Title
82283
    1SAPS     N    1   5.139   0.302  11.139  0.2885 -0.1391 -0.2659
    1SAPS   HN1    2   5.125   0.243  11.054  1.0129 -0.8932  0.1273
    1SAPS   HN2    3   5.059   0.366  11.157  1.0775  0.2639  2.1199
    1SAPS   HN3    4   5.228   0.354  11.133  1.1466 -1.3781  0.9561
    1SAPS   C12    5   5.140   0.216  11.259 -0.0951 -0.0264 -0.3221
    1SAPS  H12A    6   5.224   0.255  11.316 -0.5075  1.5099 -0.7297
    1SAPS   C13    7   5.007   0.242  11.339  0.1967 -0.5316  0.5672
    1SAPS  O13A    8   4.928   0.325  11.296 -0.4521  0.3639  0.2012
    1SAPS  O13B    9   4.996   0.188  11.448 -0.2659 -0.5111  0.4404
    1SAPS   C11   10   5.171   0.070  11.214 -0.3349  0.4893 -1.3621
    1SAPS  H11A   11   5.075   0.024  11.182 -0.1615 -1.6831  0.9096
    1SAPS  H11B   12   5.205   0.007  11.299  1.9175 -0.0100 -2.5324
    1SAPS     P   13   5.403  -0.007  11.107  0.0623  0.0758  0.3905
    1SAPS   O13   14   5.495   0.108  11.120  0.4451  0.4489 -0.2458
    1SAPS   O14   15   5.417  -0.116  11.206 -0.0182  0.3742  0.2748
    1SAPS   O12   16   5.260   0.050  11.106  0.2509 -0.3547 -0.2996
    1SAPS   O11   17   5.408  -0.069  10.961  0.6006  0.9839 -0.3599
    1SAPS    C1   18   5.515  -0.159  10.920 -0.3884 -0.7955 -0.0835
    1SAPS    HA   19   5.607  -0.104  10.891  0.8632 -2.8563 -0.2920
    1SAPS    HB   20   5.557  -0.224  11.000  0.6852  0.1211  0.1121
    1SAPS    C2   21   5.473  -0.240  10.794 -0.2471  0.2907 -0.2903
    1SAPS    HS   22   5.558  -0.311  10.784  0.1605  0.8760 -1.0863
    1SAPS   O21   23   5.454  -0.152  10.679 -0.2510  0.0233  0.3284
    1SAPS   C21   24   5.558  -0.134  10.608  0.8624 -0.0210  0.0718
    1SAPS   O22   25   5.671  -0.177  10.629  0.1667  0.0674 -0.4711
    1SAPS   C22   26   5.526  -0.047  10.489  0.7466 -0.0106  0.3692
    1SAPS   H2R   27   5.416  -0.030  10.491  0.2177 -2.6774 -1.0621
    1SAPS   H2S   28   5.571   0.054  10.500  0.1641  0.3093 -0.0625
    1SAPS    C3   29   5.353  -0.324  10.823 -0.0188 -0.0593  0.1172
    1SAPS    HX   30   5.283  -0.273  10.893  0.9402  1.5260 -0.0279
    1SAPS    HY   31   5.393  -0.401  10.892  3.3389  1.3550 -0.0563
    1SAPS   O31   32   5.285  -0.377  10.708  0.2611  0.7001 -0.2247
    1SAPS   C31   33   5.207  -0.300  10.639 -0.1783 -0.2840  0.2730
    1SAPS   O32   34   5.174  -0.184  10.668  0.2885  0.7499 -0.4030
    1SAPS   C32   35   5.165  -0.359  10.508 -0.0146 -0.0647  0.3128
    1SAPS   H2X   36   5.057  -0.384  10.519  0.6015 -3.4867 -0.2283
    1SAPS   H2Y   37   5.221  -0.455  10.500 -1.4263 -1.1664  2.5824
    1SAPS   C23   38   5.564  -0.120  10.358 -0.3008 -0.0571 -0.3236
    1SAPS   H3R   39   5.504  -0.213  10.360  0.3730 -0.5904 -2.4096
    1SAPS   H3S   40   5.672  -0.149  10.358  0.3648  2.0428 -2.3492
    1SAPS   C24   41   5.524  -0.046  10.230 -0.2198 -0.2313 -0.1859
    1SAPS   H4R   42   5.430   0.013  10.226  0.1803  0.4426 -4.4144
    1SAPS   H4S   43   5.522  -0.119  10.147  0.6434  1.0327 -1.3694
    1SAPS   C25   44   5.636   0.053  10.207  0.1513  0.0245 -0.8371
    1SAPS   H5R   45   5.625   0.140  10.273 -0.8355 -0.8174  0.1435
    1SAPS   C26   46   5.746   0.035  10.139 -0.4904  0.1172  0.0767
    1SAPS   H6R   47   5.826   0.111  10.134 -0.3807  0.0965  1.1442
    1SAPS   C27   48   5.788  -0.080  10.056  0.6371  0.9493  0.5744
    1SAPS   H7R   49   5.819  -0.054   9.953  0.8210 -0.9557  0.1090
    1SAPS   H7S   50   5.709  -0.155  10.034  1.0942  0.4719  0.5296
    1SAPS   C28   51   5.886  -0.161  10.132  0.0517 -0.5421  0.5649
    1SAPS   H8R   52   5.874  -0.161  10.241  2.7223 -0.0603  0.9352
    1SAPS   C29   53   5.985  -0.231  10.084 -0.1821  0.3811  0.9806
    1SAPS   H9R   54   6.050  -0.290  10.151  0.2231 -0.6401 -0.2678
    1SAPS  C210   55   6.027  -0.249   9.938 -0.1434 -0.7608 -0.4764
    1SAPS  H10R   56   5.952  -0.198   9.874 -0.9987  1.2909  2.0119
    1SAPS  H10S   57   6.029  -0.357   9.916 -1.2036 -0.9200  0.1366
    1SAPS  C211   58   6.166  -0.191   9.929 -0.1632 -0.2840 -0.7746
    1SAPS  H11R   59   6.240  -0.202  10.010  0.0596  3.0635 -0.3940
    1SAPS  C212   60   6.211  -0.116   9.831 -0.2279 -0.5938  0.1604
    1SAPS  H12R   61   6.316  -0.092   9.850 -0.3201 -0.9519  1.1708
    1SAPS  C213   62   6.140  -0.070   9.703 -0.7198 -0.7710 -0.0753
    1SAPS  H13R   63   6.036  -0.043   9.731  0.1040  0.3600  2.0924
    1SAPS  H13S   64   6.141  -0.149   9.624 -0.8804  0.6226 -1.5299
    1SAPS  C214   65   6.226   0.047   9.653  0.6463  0.9282  0.1484
    1SAPS  H14R   66   6.279   0.109   9.727  2.9288 -0.2874 -0.3586
    1SAPS  C215   67   6.245   0.075   9.524  0.0822 -0.8643 -0.0104
    1SAPS  H15R   68   6.276   0.178   9.502 -1.8447  0.1994  1.8686
    1SAPS  C216   69   6.175  -0.006   9.415 -0.1583  0.5374  0.8708
    1SAPS  H16R   70   6.069  -0.023   9.443 -0.2794 -0.6154 -0.2111
    1SAPS  H16S   71   6.229  -0.103   9.412 -0.2556  0.5163 -1.0097
    1SAPS  C217   72   6.199   0.048   9.273 -0.4876  0.4092  0.7143
    1SAPS  H17R   73   6.307   0.066   9.253 -0.7394 -0.1193 -1.4417
    1SAPS  H17S   74   6.155   0.149   9.265 -0.0829  0.7285  2.2628
    1SAPS  C218   75   6.142  -0.055   9.170 -0.4158 -0.4134 -0.1272
    1SAPS  H18R   76   6.040  -0.082   9.203 -0.7614  1.2679  0.2686
    1SAPS  H18S   77   6.206  -0.147   9.169 -0.9534 -0.7900 -0.9602
    1SAPS  C219   78   6.149  -0.009   9.025 -0.2055  0.4710 -0.3730
    1SAPS  H19R   79   6.239   0.052   9.004  0.0506  0.1127 -0.3255
    1SAPS  H19S   80   6.062   0.059   9.019  0.2062  1.1949  1.3019
    1SAPS  C220   81   6.143  -0.128   8.928 -0.0364 -0.2257 -0.1005
    1SAPS  H20R   82   6.147  -0.097   8.821 -1.2493 -0.2027 -0.1571
    1SAPS  H20S   83   6.047  -0.179   8.950 -1.1180  1.9362  0.5753
    1SAPS  H20T   84   6.218  -0.208   8.940  0.6247 -0.4844 -4.4630
    1SAPS   C33   85   5.181  -0.260  10.394  0.1373 -0.7122  0.2326
    1SAPS   H3X   86   5.283  -0.217  10.403 -0.0230 -0.5942  1.8016
    1SAPS   H3Y   87   5.123  -0.168  10.417  2.5895  0.7984  0.7502
    1SAPS   C34   88   5.143  -0.319  10.258 -0.6960  0.0198 -0.1305
    1SAPS   H4X   89   5.040  -0.360  10.252 -0.2389 -0.8947 -2.6358
    1SAPS   H4Y   90   5.215  -0.401  10.239  0.1692  0.8407 -0.5276
    1SAPS   C35   91   5.166  -0.223  10.138  0.7645  0.2257 -0.1743
    1SAPS   H5X   92   5.260  -0.165  10.153  1.9042 -1.4809 -0.3765
    1SAPS   H5Y   93   5.085  -0.148  10.148  0.3857 -0.4621  2.8801
    1SAPS   C36   94   5.161  -0.288  10.001 -0.1382 -0.4014  0.3129
    1SAPS   H6X   95   5.071  -0.354  10.000 -0.1631 -0.5260  3.2520
    1SAPS   H6Y   96   5.250  -0.354   9.996 -0.1491 -0.4276  0.4752
    1SAPS   C37   97   5.153  -0.189   9.884  0.2662  0.1335 -0.4605
    1SAPS   H7X   98   5.256  -0.147   9.890  0.8509 -1.1287 -1.0503
    1SAPS   H7Y   99   5.074  -0.115   9.906 -0.1378 -0.6033  0.6978
    1SAPS   C38  100   5.132  -0.251   9.745 -0.2256 -0.3081  0.2176
    1SAPS   H8X  101   5.136  -0.174   9.665 -1.9261 -0.0631  0.3415
    1SAPS   H8Y  102   5.030  -0.291   9.729 -0.6434  0.5770  0.6000
    1SAPS   C39  103   5.232  -0.366   9.713 -0.1491 -0.1202  0.1956
    1SAPS   H9X  104   5.217  -0.464   9.763  0.1645 -0.2212  0.0961
    1SAPS   H9Y  105   5.331  -0.332   9.751 -0.1402 -0.8482  0.8489
    1SAPS  C310  106   5.245  -0.387   9.559 -0.6738  0.1657 -0.0092
    1SAPS  H10X  107   5.219  -0.291   9.508  2.3145  0.8855 -0.3859
    1SAPS  H10Y  108   5.173  -0.468   9.533 -1.4599  0.1297  2.0704
    1SAPS  C311  109   5.390  -0.444   9.519 -0.2917 -0.0195 -0.7215
    1SAPS  H11X  110   5.405  -0.503   9.612 -1.6939  0.2866 -0.2802
    1SAPS  H11Y  111   5.462  -0.363   9.544  0.0412 -0.8240  1.0682
    1SAPS  C312  112   5.408  -0.503   9.379  0.3231 -0.1058 -0.1162
    1SAPS  H12X  113   5.307  -0.542   9.354  0.9054 -0.5570 -1.8793
    1SAPS  H12Y  114   5.493  -0.574   9.389 -1.2746 -2.1239 -0.3694
    1SAPS  C313  115   5.452  -0.406   9.265  0.7002  0.1026  0.1385
    1SAPS  H13X  116   5.491  -0.458   9.175 -1.6658  0.2549 -1.0663
    1SAPS  H13Y  117   5.529  -0.329   9.287  0.9960 -0.2375  0.3128
    1SAPS  C314  118   5.328  -0.328   9.209 -0.6076 -0.1856 -0.0501
    1SAPS  H14X  119   5.297  -0.246   9.277 -3.6224  0.1535 -1.6321
    1SAPS  H14Y  120   5.240  -0.397   9.212 -1.5488  1.0188  2.0324
    1SAPS  C315  121   5.344  -0.276   9.062 -0.1658 -0.1414  0.8630
    1SAPS  H15X  122   5.366  -0.356   8.988 -0.8406  1.2278 -0.9178
    1SAPS  H15Y  123   5.434  -0.213   9.045 -1.4535  1.6619  0.3800
    1SAPS  C316  124   5.212  -0.200   9.029 -0.1254  0.2791  0.3370
    1SAPS  H16X  125   5.214  -0.123   9.109  1.4867  1.5231 -0.8233
    1SAPS  H16Y  126   5.127  -0.271   9.042 -1.2460  1.7741  1.5314
    1SAPS  C317  127   5.215  -0.117   8.897  0.0148  0.0254  0.9093
    1SAPS  H17X  128   5.206  -0.178   8.805 -3.3837  1.5660  0.0377
    1SAPS  H17Y  129   5.309  -0.059   8.887 -0.5585  0.7311 -0.8886
    1SAPS  C318  130   5.098  -0.011   8.878 -0.0041 -1.0871  0.6668
    1SAPS  H18X  131   4.999  -0.060   8.865  0.4320 -1.6969 -0.5776
    1SAPS  H18Y  132   5.107   0.046   8.783 -1.3436 -1.5752  0.2208
    1SAPS  H18Z  133   5.090   0.050   8.970 -1.5347 -0.6318  0.2499
    2SAPS     N  134   4.161   6.748  10.999 -0.4428  0.4153 -0.3266
    2SAPS   HN1  135   4.130   6.731  10.902  0.0105 -3.3015  0.0340
    2SAPS   HN2  136   4.246   6.806  10.984 -0.9824  1.5289  0.7493
    2SAPS   HN3  137   4.191   6.655  11.036 -2.2279 -0.1682 -0.2433
    2SAPS   C12  138   4.057   6.816  11.085 -0.3058  1.0021  0.4733
    2SAPS  H12A  139   3.965   6.760  11.078  1.1330 -1.3534 -0.8059
    2SAPS   C13  140   4.095   6.829  11.235  0.4504 -0.3842  0.0875
    2SAPS  O13A  141   4.202   6.782  11.281  0.2726  0.2732 -0.1019
    2SAPS  O13B  142   4.003   6.872  11.311  0.4599 -0.1814 -0.6193
    2SAPS   C11  143   4.029   6.949  11.020  0.4063 -0.2496 -0.2739
    2SAPS  H11A  144   4.118   7.016  11.030  1.1793 -1.0739 -1.4648
    2SAPS  H11B  145   3.951   6.999  11.082  1.1364 -2.7210  2.9279
    2SAPS     P  146   3.913   7.060  10.820 -0.3310  0.1111 -0.2899
    2SAPS   O13  147   3.772   7.045  10.854 -0.3548 -0.3222 -0.2676
    2SAPS   O14  148   3.987   7.184  10.843  0.6769  0.0201  0.2031
    2SAPS   O12  149   3.994   6.939  10.884 -0.2822 -0.1912  0.3899
    2SAPS   O11  150   3.913   7.023  10.662  0.3906 -0.1142  0.2824
    2SAPS    C1  151   4.026   6.966  10.602  0.6955  0.0036  0.3337
    2SAPS    HA  152   4.114   6.963  10.669  0.4819 -2.5699  0.5861
    2SAPS    HB  153   4.006   6.863  10.566  0.9387  0.0967 -0.0679
    2SAPS    C2  154   4.066   7.049  10.483 -0.4893 -0.1137  0.5717
    2SAPS    HS  155   3.990   7.036  10.403 -1.4203 -0.9517  1.5676
    2SAPS   O21  156   4.193   6.992  10.435  0.3813 -0.1133 -0.7236
    2SAPS   C21  157   4.207   7.000  10.303 -0.4328 -0.4406 -0.6600
    2SAPS   O22  158   4.126   7.038  10.221 -0.2690 -0.2009  0.0208
    2SAPS   C22  159   4.357   6.978  10.270  0.1068  0.2926  0.0975
    2SAPS   H2R  160   4.413   7.063  10.314 -0.1449  1.9020 -2.4771
    2SAPS   H2S  161   4.392   6.884  10.319 -0.6182  0.2528  0.5610
    2SAPS    C3  162   4.083   7.202  10.521 -0.1852 -0.3478  0.0851
    2SAPS    HX  163   4.154   7.207  10.606 -1.4597 -1.2496  1.2609
    2SAPS    HY  164   3.990   7.242  10.568 -1.0937 -1.3251 -0.8399
    2SAPS   O31  165   4.125   7.276  10.406 -0.4608 -0.6584  0.2221
    2SAPS   C31  166   4.028   7.303  10.319  0.1079  0.4720 -0.9367
    2SAPS   O32  167   3.909   7.272  10.341 -0.9689 -0.0979 -0.3517
    2SAPS   C32  168   4.085   7.369  10.196  0.8005  0.5669  0.0286
    2SAPS   H2X  169   4.110   7.290  10.122 -0.8824  0.0972 -0.0730
    2SAPS   H2Y  170   4.176   7.420  10.234  1.0669 -1.2363  2.0049
    2SAPS   C23  171   4.363   6.970  10.117 -0.4476 -0.1062  0.9034
    2SAPS   H3R  172   4.329   7.065  10.069 -0.3233 -0.3032  0.4147
    2SAPS   H3S  173   4.288   6.892  10.092 -1.8488  1.5349 -0.2932
    2SAPS   C24  174   4.506   6.913  10.072 -0.3474 -0.3418 -0.1470
    2SAPS   H4R  175   4.504   6.904   9.961 -2.2699  1.2103 -0.2901
    2SAPS   H4S  176   4.498   6.815  10.124  1.3220 -1.4405 -1.8406
    2SAPS   C25  177   4.614   7.014  10.118 -0.6033  0.0321  0.1282
    2SAPS   H5R  178   4.576   7.058  10.211 -2.0740  0.0383 -0.4489
    2SAPS   C26  179   4.735   7.040  10.067  0.2309  0.1292 -0.8937
    2SAPS   H6R  180   4.799   7.113  10.120 -0.7012 -0.7605  1.6166
    2SAPS   C27  181   4.790   6.976   9.941 -0.1107 -0.4026 -0.0902
    2SAPS   H7R  182   4.737   6.880   9.924  0.5986 -0.9916  0.8998
    2SAPS   H7S  183   4.892   6.936   9.962  0.3627  0.5367 -0.5127
    2SAPS   C28  184   4.786   7.053   9.812  0.9101  0.3365  0.3017
    2SAPS   H8R  185   4.748   7.154   9.834  2.3426  0.9047  0.2404
    2SAPS   C29  186   4.812   7.006   9.685  0.7499 -0.6005  0.2953
    2SAPS   H9R  187   4.813   7.070   9.595  1.3462 -1.7125 -0.5075
    2SAPS  C210  188   4.859   6.866   9.656 -0.6883  0.2314 -0.2412
    2SAPS  H10R  189   4.937   6.844   9.732  1.2132  2.2867 -1.4418
    2SAPS  H10S  190   4.916   6.873   9.561 -0.3145  3.8712  0.0928
    2SAPS  C211  191   4.761   6.755   9.666  0.1510 -0.2817 -0.0841
    2SAPS  H11R  192   4.713   6.758   9.765  1.2248 -0.8110  0.4708
    2SAPS  C212  193   4.709   6.683   9.567  0.0750  0.0224  0.7837
    2SAPS  H12R  194   4.645   6.595   9.583  0.6680 -1.1081 -2.3447
    2SAPS  C213  195   4.747   6.686   9.417  0.1347 -0.5841  0.0712
    2SAPS  H13R  196   4.770   6.793   9.396  0.5981 -0.2009  2.2778
    2SAPS  H13S  197   4.656   6.669   9.355  0.2785  1.1187 -0.6559
    2SAPS  C214  198   4.867   6.603   9.394  0.0946 -0.0409  0.1697
    2SAPS  H14R  199   4.949   6.609   9.467 -0.9143 -3.3614  1.8103
    2SAPS  C215  200   4.871   6.524   9.283 -0.5845  0.0904 -0.1900
    2SAPS  H15R  201   4.966   6.471   9.266 -0.1236  0.6109  0.6651
    2SAPS  C216  202   4.763   6.499   9.179 -0.2923 -0.3081  0.2748
    2SAPS  H16R  203   4.661   6.513   9.220 -1.0761 -0.6155 -1.4609
    2SAPS  H16S  204   4.771   6.393   9.148  0.7681  0.1731 -1.2446
    2SAPS  C217  205   4.792   6.575   9.047 -0.5631 -0.1997 -1.0098
    2SAPS  H17R  206   4.903   6.577   9.047 -0.4025 -1.8476  2.1162
    2SAPS  H17S  207   4.755   6.679   9.061  0.5210 -0.0442  1.1054
    2SAPS  C218  208   4.746   6.506   8.917 -0.7856 -0.5643 -0.5480
    2SAPS  H18R  209   4.637   6.506   8.897 -0.6256 -1.7814 -1.4929
    2SAPS  H18S  210   4.781   6.401   8.914  0.5619 -0.1319 -0.6921
    2SAPS  C219  211   4.812   6.571   8.797  0.0177 -0.6543 -0.2833
    2SAPS  H19R  212   4.813   6.497   8.714  0.9042  1.0449 -1.8776
    2SAPS  H19S  213   4.918   6.597   8.818 -0.0773  1.0097 -1.6415
    2SAPS  C220  214   4.735   6.704   8.756 -0.0302  0.3036 -0.3582
    2SAPS  H20R  215   4.798   6.766   8.689  0.8075 -0.5197 -0.3507
    2SAPS  H20S  216   4.720   6.771   8.844  1.6454  1.7373 -1.0988
    2SAPS  H20T  217   4.640   6.674   8.706 -1.2948  1.9724  0.8888
    2SAPS   C33  218   3.988   7.466  10.125 -0.0445 -0.5502 -0.4162
    2SAPS   H3X  219   3.941   7.532  10.202 -1.4018 -0.7447 -1.0480
    2SAPS   H3Y  220   3.899   7.421  10.077 -1.6940  3.7520 -1.8703
    2SAPS   C34  221   4.049   7.557  10.018 -0.5114 -0.4639  0.0653
    2SAPS   H4X  222   4.120   7.629  10.064  1.2031 -1.6661 -0.6132
    2SAPS   H4Y  223   3.972   7.631   9.988 -1.1218 -0.9699  0.3714
    2SAPS   C35  224   4.107   7.478   9.908  0.3747  0.6863 -0.2456
    2SAPS   H5X  225   4.028   7.417   9.858  0.7990  0.9427 -1.2445
    2SAPS   H5Y  226   4.178   7.400   9.944  0.5036  1.7407  1.8995
    2SAPS   C36  227   4.181   7.567   9.813  0.2900  0.8263 -0.4001
    2SAPS   H6X  228   4.265   7.611   9.872  1.0747 -0.3962 -0.5549
    2SAPS   H6Y  229   4.102   7.641   9.792 -1.9024 -1.3323 -0.1836
    2SAPS   C37  230   4.232   7.491   9.690  0.9493 -0.1855  0.2643
    2SAPS   H7X  231   4.154   7.423   9.649  1.1628 -0.9763  1.1254
    2SAPS   H7Y  232   4.314   7.430   9.732  1.4482  0.6709  0.5494
    2SAPS   C38  233   4.273   7.601   9.590  0.4773 -0.3516  0.4393
    2SAPS   H8X  234   4.382   7.621   9.603  0.6895  1.1564 -2.9054
    2SAPS   H8Y  235   4.222   7.697   9.612 -1.0820 -0.6165 -1.7223
    2SAPS   C39  236   4.247   7.567   9.440  0.0568 -0.0125 -0.1585
    2SAPS   H9X  237   4.140   7.569   9.413  0.4880  0.6042 -2.0443
    2SAPS   H9Y  238   4.288   7.465   9.425 -1.1582 -0.3679 -1.2350
    2SAPS  C310  239   4.327   7.663   9.347  0.1730  0.0001 -0.1191
    2SAPS  H10X  240   4.432   7.650   9.379  0.1249  0.6889  0.3309
    2SAPS  H10Y  241   4.297   7.768   9.368  0.1970 -0.1829  0.8700
    2SAPS  C311  242   4.308   7.613   9.197 -0.4386 -0.3468  0.1091
    2SAPS  H11X  243   4.206   7.648   9.170 -0.9471  0.4427  2.7514
    2SAPS  H11Y  244   4.305   7.502   9.197  0.4686 -0.3766  0.6791
    2SAPS  C312  245   4.411   7.668   9.098 -0.3964 -0.0617  0.3033
    2SAPS  H12X  246   4.511   7.658   9.146  1.0838  1.2471 -2.2592
    2SAPS  H12Y  247   4.405   7.778   9.083 -2.2083 -0.3703 -1.8078
    2SAPS  C313  248   4.379   7.602   8.966 -0.6537 -0.4115 -0.1205
    2SAPS  H13X  249   4.279   7.613   8.920  0.6904  0.1354 -3.2027
    2SAPS  H13Y  250   4.403   7.494   8.980 -1.8107 -0.9285 -1.8297
    2SAPS  C314  251   4.473   7.648   8.846  0.3348  0.0583 -0.3443
    2SAPS  H14X  252   4.575   7.634   8.888 -0.1003  0.3216  0.8327
    2SAPS  H14Y  253   4.459   7.754   8.814 -2.1272  0.0533  0.5183
    2SAPS  C315  254   4.455   7.573   8.708  0.1002 -0.2834  0.3133
    2SAPS  H15X  255   4.552   7.589   8.656  0.2767 -0.9870  0.4109
    2SAPS  H15Y  256   4.373   7.611   8.643  0.2929 -1.1888 -0.4856
    2SAPS  C316  257   4.441   7.419   8.704  0.3163  0.5846  0.1631
    2SAPS  H16X  258   4.412   7.391   8.808 -1.6294  1.0563 -0.2174
    2SAPS  H16Y  259   4.541   7.375   8.683  0.9284  1.7825  0.5135
    2SAPS  C317  260   4.338   7.368   8.595  0.9929 -0.2439 -0.4633
    2SAPS  H17X  261   4.375   7.384   8.491  0.9798 -0.9260 -0.5815
    2SAPS  H17Y  262   4.244   7.427   8.600 -0.0368 -1.8194 -0.6223
    2SAPS  C318  263   4.311   7.216   8.607  1.0670  0.2363 -1.0506
    2SAPS  H18X  264   4.366   7.165   8.526  0.4533 -2.3156  0.0525
    2SAPS  H18Y  265   4.201   7.206   8.592  0.6556  2.8847 -0.4245
    2SAPS  H18Z  266   4.327   7.165   8.704 -0.2229 -2.2658 -2.0649
    3SAPS     N  267   3.197   3.712  10.943  0.2767  0.2893  0.0811
    3SAPS   HN1  268   3.173   3.738  11.041 -0.4961 -2.2314  0.6256
    3SAPS   HN2  269   3.296   3.736  10.922 -0.2832  1.9833 -0.8558
    3SAPS   HN3  270   3.141   3.771  10.878  1.5443  0.9792 -0.4187
    3SAPS   C12  271   3.165   3.571  10.923 -0.0576 -0.1271  1.0995
    3SAPS  H12A  272   3.199   3.509  11.005  0.3760  0.3870  1.3072
    3SAPS   C13  273   3.013   3.548  10.917  0.7098 -0.1500 -0.1258
    3SAPS  O13A  274   2.935   3.644  10.900  0.4522  0.4351 -0.0677
    3SAPS  O13B  275   2.976   3.430  10.898  0.0967 -0.0829  0.1499
    3SAPS   C11  276   3.236   3.526  10.796 -0.1382 -0.2858 -0.1163
    3SAPS  H11A  277   3.201   3.582  10.707  1.6514  0.2841 -0.5167
    3SAPS  H11B  278   3.217   3.421  10.766 -0.5028 -0.2375 -0.0604
    3SAPS     P  279   3.468   3.420  10.853 -0.4119 -0.0011  0.2590
    3SAPS   O13  280   3.611   3.463  10.866  0.0434 -0.2806  0.0339
    3SAPS   O14  281   3.411   3.345  10.961 -0.1908  0.5173  0.3215
    3SAPS   O12  282   3.377   3.548  10.809 -0.4541 -0.0765 -0.0312
    3SAPS   O11  283   3.458   3.344  10.710  0.0916 -0.2607  0.7994
    3SAPS    C1  284   3.529   3.396  10.597  0.3758  0.2294  0.8150
    3SAPS    HA  285   3.603   3.479  10.605  0.4750  0.1843  0.3908
    3SAPS    HB  286   3.587   3.311  10.555 -1.5525 -0.0782 -1.4030
    3SAPS    C2  287   3.433   3.439  10.479 -0.5198 -0.5077  0.4862
    3SAPS    HS  288   3.379   3.521  10.530  1.1462  0.1886  1.1778
    3SAPS   O21  289   3.343   3.331  10.454 -0.0299 -0.2745 -0.1710
    3SAPS   C21  290   3.227   3.362  10.399 -0.3740  0.5703 -0.1992
    3SAPS   O22  291   3.174   3.472  10.391 -0.0545  0.1400 -0.0890
    3SAPS   C22  292   3.145   3.242  10.368 -0.0386  0.1080 -0.2490
    3SAPS   H2R  293   3.196   3.164  10.306  1.7818  0.8610  0.2458
    3SAPS   H2S  294   3.126   3.189  10.464 -0.5427 -3.0867 -1.9653
    3SAPS    C3  295   3.513   3.483  10.349 -0.4502 -0.5239 -0.5292
    3SAPS    HX  296   3.595   3.415  10.320  1.6127  2.3585 -1.9835
    3SAPS    HY  297   3.569   3.571  10.388  3.7239 -2.7658 -0.8690
    3SAPS   O31  298   3.415   3.517  10.246  0.2733 -0.2205 -0.4873
    3SAPS   C31  299   3.415   3.634  10.192 -0.0822 -0.7217  0.8800
    3SAPS   O32  300   3.498   3.722  10.210  0.4134 -0.0963  0.5620
    3SAPS   C32  301   3.291   3.646  10.095 -0.4324 -0.0504  0.0449
    3SAPS   H2X  302   3.263   3.751  10.070  1.0258 -0.1622 -2.4635
    3SAPS   H2Y  303   3.219   3.587  10.156 -0.0606 -1.5395 -0.9139
    3SAPS   C23  304   3.015   3.270  10.286  0.1103  0.2891  0.5911
    3SAPS   H3R  305   2.940   3.336  10.332 -1.1682 -0.5005 -0.3018
    3SAPS   H3S  306   2.957   3.177  10.269 -0.0335  0.2354  1.3419
    3SAPS   C24  307   3.041   3.336  10.149 -0.5606  0.2599  0.8283
    3SAPS   H4R  308   3.088   3.434  10.169 -0.2010  0.3442 -0.3734
    3SAPS   H4S  309   2.948   3.359  10.093 -1.5774 -1.8078  1.5299
    3SAPS   C25  310   3.138   3.268  10.049  0.3376 -0.1040 -0.3954
    3SAPS   H5R  311   3.239   3.269  10.090  0.3880  0.5928 -0.5299
    3SAPS   C26  312   3.120   3.213   9.930 -0.0367  0.4182  0.7709
    3SAPS   H6R  313   3.201   3.159   9.878  0.1034  0.4543  0.9479
    3SAPS   C27  314   2.989   3.207   9.861 -0.2011  0.7404  0.3701
    3SAPS   H7R  315   2.906   3.213   9.934 -0.7941  4.0805 -0.4265
    3SAPS   H7S  316   2.984   3.106   9.813  1.5811  0.8529 -0.1261
    3SAPS   C28  317   2.975   3.308   9.751  0.4100  0.4483 -0.7473
    3SAPS   H8R  318   3.013   3.404   9.790  1.3609 -0.3574  0.3793
    3SAPS   C29  319   2.923   3.293   9.626  0.1437 -0.2378  0.0398
    3SAPS   H9R  320   2.915   3.383   9.565 -0.4487  0.0409  0.5188
    3SAPS  C210  321   2.876   3.162   9.579  0.4598  0.3388  0.0625
    3SAPS  H10R  322   2.831   3.089   9.650 -1.2019 -0.6156 -1.8724
    3SAPS  H10S  323   2.975   3.119   9.550  0.0930 -0.3832 -0.1531
    3SAPS  C211  324   2.787   3.164   9.454 -0.6777 -0.5047 -0.1023
    3SAPS  H11R  325   2.686   3.124   9.474 -1.3470  1.8396  1.6028
    3SAPS  C212  326   2.816   3.203   9.327  0.0831  0.1984 -0.2292
    3SAPS  H12R  327   2.736   3.201   9.252  1.5080  2.4332 -1.9425
    3SAPS  C213  328   2.946   3.248   9.277  0.6061  0.9353 -1.0069
    3SAPS  H13R  329   3.006   3.162   9.242  1.2384  0.9462  0.0029
    3SAPS  H13S  330   3.016   3.288   9.353  1.6432 -1.2108 -0.7706
    3SAPS  C214  331   2.930   3.348   9.167 -0.1615 -0.2801 -0.0691
    3SAPS  H14R  332   2.954   3.452   9.190 -1.6913 -0.1530  1.0666
    3SAPS  C215  333   2.890   3.330   9.039  0.6848 -0.1677 -0.1240
    3SAPS  H15R  334   2.892   3.417   8.972 -0.9243 -1.4249 -1.9072
    3SAPS  C216  335   2.853   3.200   8.968 -0.0675  0.1329  0.5585
    3SAPS  H16R  336   2.758   3.210   8.910  1.1923  1.8874 -1.3307
    3SAPS  H16S  337   2.840   3.108   9.029 -0.1269  0.1334  0.5468
    3SAPS  C217  338   2.962   3.180   8.859  0.9763  0.9668  0.1933
    3SAPS  H17R  339   3.055   3.156   8.915 -0.9209  0.3223  3.2781
    3SAPS  H17S  340   2.971   3.270   8.794  1.2463  1.0882  0.3958
    3SAPS  C218  341   2.940   3.059   8.760  0.3138 -0.5570 -0.0395
    3SAPS  H18R  342   2.842   3.070   8.708  0.9630 -0.1124 -1.2197
    3SAPS  H18S  343   2.939   2.968   8.823 -0.0400 -0.4846  0.0593
    3SAPS  C219  344   3.052   3.062   8.659 -0.6754  0.5723  0.7424
    3SAPS  H19R  345   3.147   3.092   8.707 -0.2852  1.7436 -0.6976
    3SAPS  H19S  346   3.038   3.133   8.574 -2.3348  0.4888  0.9206
    3SAPS  C220  347   3.061   2.930   8.583  0.8084 -0.2965 -0.3656
    3SAPS  H20R  348   2.966   2.899   8.534  0.9393 -1.2282 -0.0550
    3SAPS  H20S  349   3.094   2.867   8.668 -0.1299  0.3995  0.5468
    3SAPS  H20T  350   3.145   2.937   8.511  0.9940  0.6279 -0.0759
    3SAPS   C33  351   3.305   3.557   9.967 -0.3370  0.2674  0.1017
    3SAPS   H3X  352   3.206   3.545   9.918 -0.3318 -0.1551  0.1944
    3SAPS   H3Y  353   3.346   3.455   9.983  0.5460  0.4630 -0.8444
    3SAPS   C34  354   3.406   3.613   9.864  0.1033  0.0788 -0.1506
    3SAPS   H4X  355   3.504   3.590   9.910  0.0711  1.1720  0.5136
    3SAPS   H4Y  356   3.398   3.723   9.850 -1.5529 -0.1029 -0.8962
    3SAPS   C35  357   3.396   3.540   9.731 -0.7339 -0.1354 -0.0073
    3SAPS   H5X  358   3.394   3.433   9.762 -0.5001 -0.0001  0.4872
    3SAPS   H5Y  359   3.483   3.567   9.667 -0.8596  2.0922  0.6894
    3SAPS   C36  360   3.271   3.572   9.647 -0.1520  0.2617 -0.4549
    3SAPS   H6X  361   3.279   3.674   9.604 -0.3484 -0.5019 -2.4351
    3SAPS   H6Y  362   3.185   3.582   9.716  1.6277 -0.2006  1.9696
    3SAPS   C37  363   3.242   3.471   9.530  0.4805 -0.1460  0.0620
    3SAPS   H7X  364   3.138   3.496   9.501  0.6000 -0.4244 -0.6341
    3SAPS   H7Y  365   3.239   3.373   9.581  1.1457  0.1565  0.6954
    3SAPS   C38  366   3.331   3.474   9.408 -0.6998  0.0473 -0.0617
    3SAPS   H8X  367   3.435   3.458   9.446 -0.2296  1.4677 -0.6537
    3SAPS   H8Y  368   3.324   3.573   9.358 -2.5679  0.4107  0.8569
    3SAPS   C39  369   3.301   3.352   9.317  0.2025  0.0121 -0.2097
    3SAPS   H9X  370   3.191   3.343   9.304  0.2346  1.6148 -2.2475
    3SAPS   H9Y  371   3.340   3.260   9.365  0.5305  0.1271 -0.2512
    3SAPS  C310  372   3.364   3.361   9.181 -0.4236 -0.1221 -0.1928
    3SAPS  H10X  373   3.344   3.268   9.123  1.9480  0.0425 -1.3710
    3SAPS  H10Y  374   3.474   3.362   9.194 -0.2127 -0.3105 -1.8453
    3SAPS  C311  375   3.329   3.473   9.087  0.1244  0.4636  0.4528
    3SAPS  H11X  376   3.384   3.565   9.116  1.9629 -0.4262 -0.0432
    3SAPS  H11Y  377   3.221   3.496   9.100  0.2512  0.9116  0.7272
    3SAPS  C312  378   3.344   3.447   8.937 -0.5519  0.3964  0.1705
    3SAPS  H12X  379   3.269   3.370   8.908 -1.3144  0.2955  2.2179
    3SAPS  H12Y  380   3.443   3.398   8.938 -1.0913 -0.7320 -0.2222
    3SAPS  C313  381   3.349   3.567   8.845 -0.0679  0.1767 -0.2500
    3SAPS  H13X  382   3.393   3.540   8.747  3.0781  0.8392  0.8767
    3SAPS  H13Y  383   3.427   3.627   8.897 -1.1354  0.2912  1.3067
    3SAPS  C314  384   3.222   3.645   8.823 -1.2774 -0.0298 -0.6554
    3SAPS  H14X  385   3.234   3.729   8.752 -0.1106 -0.8120 -1.4038
    3SAPS  H14Y  386   3.187   3.691   8.918 -1.7989 -1.4692 -0.1260
    3SAPS  C315  387   3.109   3.556   8.770 -0.4058  0.1976  0.1348
    3SAPS  H15X  388   3.070   3.499   8.857 -0.4663 -0.4725 -0.3228
    3SAPS  H15Y  389   3.157   3.489   8.696 -0.1520 -2.3972  2.4538
    3SAPS  C316  390   2.990   3.628   8.716  0.3428  1.0015 -0.5038
    3SAPS  H16X  391   3.019   3.684   8.624 -1.2071  1.1180 -0.9515
    3SAPS  H16Y  392   2.955   3.708   8.785  1.2398  1.1065 -0.1539
    3SAPS  C317  393   2.873   3.535   8.678  0.6703 -0.3985  0.1451
    3SAPS  H17X  394   2.789   3.608   8.682  1.5941  0.7548 -0.6215
    3SAPS  H17Y  395   2.873   3.450   8.749  2.4883 -0.9687 -0.4807
    3SAPS  C318  396   2.889   3.470   8.537  0.4573 -0.5552 -0.1752
    3SAPS  H18X  397   2.914   3.549   8.463 -0.8559 -0.0494 -0.1131
    3SAPS  H18Y  398   2.788   3.432   8.511 -0.6331  2.4833 -0.8062
    3SAPS  H18Z  399   2.970   3.397   8.516  0.3770 -0.5021 -0.6925
    4SAPS     N  400   0.540   4.259  11.066  0.5996  0.2399 -0.1567
    4SAPS   HN1  401   0.598   4.286  10.984  0.7337  0.1877 -0.0778
    4SAPS   HN2  402   0.475   4.336  11.093 -0.7390  0.5912 -3.7726
    4SAPS   HN3  403   0.598   4.236  11.148 -0.9700 -0.6404  0.7623
    4SAPS   C12  404   0.439   4.159  11.001 -0.1989 -0.6418 -0.1605
    4SAPS  H12A  405   0.472   4.057  11.013  1.1399 -0.1329  0.6276
    4SAPS   C13  406   0.296   4.167  11.060 -0.4013 -0.0906  0.2255
    4SAPS  O13A  407   0.273   4.248  11.153 -0.4843  0.1419 -0.1584
    4SAPS  O13B  408   0.222   4.071  11.038 -0.3774  0.8569 -0.0287
    4SAPS   C11  409   0.415   4.200  10.860  0.4486 -0.7844 -0.3200
    4SAPS  H11A  410   0.369   4.301  10.867  2.1020 -0.0347  0.2576
    4SAPS  H11B  411   0.336   4.143  10.807 -1.8876  1.1717  0.8300
    4SAPS     P  412   0.607   4.095  10.713  0.0431  0.0810  0.0198
    4SAPS   O13  413   0.716   4.135  10.624 -0.2582 -0.2821  0.5141
    4SAPS   O14  414   0.629   3.985  10.805  0.1367 -0.0145  0.0309
    4SAPS   O12  415   0.541   4.220  10.791  0.3910 -0.0868 -0.2152
    4SAPS   O11  416   0.488   4.050  10.615  0.1035 -0.1066  0.0289
    4SAPS    C1  417   0.441   4.152  10.521 -1.1237  0.2863 -0.2304
    4SAPS    HA  418   0.332   4.171  10.532 -0.6361  2.0729  2.6184
    4SAPS    HB  419   0.499   4.246  10.521  1.8048 -1.4097 -0.0010
    4SAPS    C2  420   0.454   4.105  10.374  0.4674 -0.0760  0.4016
    4SAPS    HS  421   0.422   3.999  10.366 -0.0173  0.1658 -1.3750
    4SAPS   O21  422   0.596   4.122  10.333 -0.0747 -0.0198 -0.1356
    4SAPS   C21  423   0.663   4.014  10.299  0.9350  0.0536 -0.1554
    4SAPS   O22  424   0.616   3.899  10.306  0.0540 -0.0820 -0.5663
    4SAPS   C22  425   0.787   4.038  10.218  0.1438 -0.3297  0.5488
    4SAPS   H2R  426   0.760   4.112  10.140 -3.4684 -2.1204 -0.1138
    4SAPS   H2S  427   0.858   4.087  10.288  0.8854 -2.8450  1.6741
    4SAPS    C3  428   0.359   4.182  10.279  0.1021 -0.5568  1.1326
    4SAPS    HX  429   0.377   4.290  10.296 -0.3590 -0.8331  3.7038
    4SAPS    HY  430   0.255   4.162  10.311 -0.1743  0.0853  0.6525
    4SAPS   O31  431   0.371   4.133  10.144 -0.4907 -0.0943 -0.9736
    4SAPS   C31  432   0.439   4.205  10.064  0.5273 -0.0856  0.2238
    4SAPS   O32  433   0.500   4.306  10.098 -0.0886  0.7926  0.3221
    4SAPS   C32  434   0.439   4.141   9.928 -0.2880  0.3084  0.4479
    4SAPS   H2X  435   0.465   4.209   9.844  0.9289 -2.3403 -1.4549
    4SAPS   H2Y  436   0.333   4.106   9.920 -1.0576  2.3329  1.0901
    4SAPS   C23  437   0.866   3.913  10.161 -0.1512  0.0913  0.1355
    4SAPS   H3R  438   0.801   3.856  10.091 -0.8473 -0.3811  1.1333
    4SAPS   H3S  439   0.881   3.842  10.246  1.0807 -0.3739 -0.4546
    4SAPS   C24  440   0.994   3.958  10.096 -0.6826 -0.3875  0.2116
    4SAPS   H4R  441   1.045   4.042  10.147  1.6360 -1.1582 -0.7127
    4SAPS   H4S  442   0.959   4.009  10.003  3.7981 -0.5763 -1.8575
    4SAPS   C25  443   1.098   3.852  10.069 -0.7487  0.3856 -0.0452
    4SAPS   H5R  444   1.121   3.786  10.154  1.7438  0.6560 -0.4274
    4SAPS   C26  445   1.169   3.832   9.952  0.0681 -0.2137  0.2546
    4SAPS   H6R  446   1.250   3.758   9.945  1.1746  0.9520  0.3084
    4SAPS   C27  447   1.140   3.911   9.823  0.2104  0.1429 -0.1458
    4SAPS   H7R  448   1.233   3.902   9.764  1.0241  0.9354  0.9728
    4SAPS   H7S  449   1.127   4.020   9.841 -1.1153  0.4832 -2.6499
    4SAPS   C28  450   1.028   3.862   9.738  0.4619 -0.6625 -0.2159
    4SAPS   H8R  451   0.939   3.924   9.754 -1.2147 -2.5427 -1.6700
    4SAPS   C29  452   1.018   3.765   9.646  0.0024  0.0513  0.2944
    4SAPS   H9R  453   0.919   3.753   9.599  0.4435  2.3608 -1.3796
    4SAPS  C210  454   1.138   3.675   9.596 -0.2403 -0.2353 -0.4031
    4SAPS  H10R  455   1.150   3.594   9.670 -0.2046 -1.0862 -1.3269
    4SAPS  H10S  456   1.233   3.732   9.605 -0.4560  0.0135  0.3916
    4SAPS  C211  457   1.104   3.626   9.458 -0.1544  0.5853 -0.6799
    4SAPS  H11R  458   1.028   3.546   9.447  1.3158 -1.1481  1.0473
    4SAPS  C212  459   1.147   3.681   9.342 -0.1869  0.1635 -0.3535
    4SAPS  H12R  460   1.097   3.642   9.253  0.2627  1.4330 -1.1920
    4SAPS  C213  461   1.247   3.795   9.315 -0.1758  0.0690  0.2303
    4SAPS  H13R  462   1.311   3.813   9.404  1.8268 -1.2656 -0.8545
    4SAPS  H13S  463   1.202   3.893   9.288 -1.6442  0.2287  2.9696
    4SAPS  C214  464   1.341   3.743   9.205  0.3155 -0.4366 -0.6053
    4SAPS  H14R  465   1.432   3.697   9.248  0.8955 -0.6685 -2.0330
    4SAPS  C215  466   1.336   3.762   9.068  0.2917  0.0563 -0.6394
    4SAPS  H15R  467   1.410   3.722   8.996 -2.5385 -0.3411 -3.5494
    4SAPS  C216  468   1.218   3.835   9.005  0.0273 -0.4181  0.3016
    4SAPS  H16R  469   1.259   3.900   8.924  0.0898 -1.0790 -0.2033
    4SAPS  H16S  470   1.153   3.888   9.077 -2.1181  0.0736 -1.8527
    4SAPS  C217  471   1.106   3.733   8.949 -0.2333 -0.0313 -1.7078
    4SAPS  H17R  472   1.035   3.720   9.033 -0.0199  0.9423 -1.3620
    4SAPS  H17S  473   1.158   3.637   8.928  0.7031  0.0983 -0.1593
    4SAPS  C218  474   1.029   3.782   8.825  0.1888 -0.1474 -0.1046
    4SAPS  H18R  475   1.105   3.809   8.748 -0.0970 -0.1831 -0.4035
    4SAPS  H18S  476   0.980   3.879   8.850  2.6139  0.7762  1.5036
    4SAPS  C219  477   0.929   3.673   8.777 -0.0531  0.7756 -0.2207
    4SAPS  H19R  478   0.971   3.574   8.750 -0.6370  0.1107  1.1885
    4SAPS  H19S  479   0.891   3.714   8.681 -0.8347  0.2216 -0.1529
    4SAPS  C220  480   0.817   3.649   8.876 -0.3306 -0.1187  0.0648
    4SAPS  H20R  481   0.858   3.584   8.956 -0.9802  1.0953  1.4497
    4SAPS  H20S  482   0.733   3.589   8.836 -0.7955  1.5863 -1.6585
    4SAPS  H20T  483   0.776   3.740   8.925  0.5675  0.0286  0.5763
    4SAPS   C33  484   0.530   4.018   9.920 -0.3924  0.0405 -0.5303
    4SAPS   H3X  485   0.491   3.943   9.993 -3.9740 -0.2755 -2.5396
    4SAPS   H3Y  486   0.635   4.044   9.947 -0.1671  0.2318 -1.5487
    4SAPS   C34  487   0.521   3.954   9.784  0.1121  0.1296  0.4843
    4SAPS   H4X  488   0.536   4.020   9.696  0.1302 -0.0850  0.3242
    4SAPS   H4Y  489   0.421   3.907   9.769  1.1449 -1.9518 -0.3667
    4SAPS   C35  490   0.631   3.846   9.765  0.1255  0.7119 -0.2363
    4SAPS   H5X  491   0.629   3.771   9.846  0.2119  0.3585 -0.5571
    4SAPS   H5Y  492   0.723   3.907   9.768 -0.5702  1.7372  1.3825
    4SAPS   C36  493   0.622   3.776   9.632  0.6152  0.1386  0.4539
    4SAPS   H6X  494   0.712   3.711   9.622  0.9904  0.3756  2.1317
    4SAPS   H6Y  495   0.637   3.856   9.556  0.5417 -0.0689  0.2162
    4SAPS   C37  496   0.499   3.695   9.603  0.9720 -0.0821 -0.3379
    4SAPS   H7X  497   0.421   3.774   9.608 -0.8364 -1.8306  0.8463
    4SAPS   H7Y  498   0.467   3.616   9.674 -0.2143 -0.7763 -1.5937
    4SAPS   C38  499   0.485   3.644   9.461  0.6515  0.2701 -0.0125
    4SAPS   H8X  500   0.378   3.622   9.440  0.4005  1.2599  0.1766
    4SAPS   H8Y  501   0.549   3.553   9.454  0.6686  0.2394  0.5264
    4SAPS   C39  502   0.534   3.738   9.344 -0.4482  0.0099 -0.6501
    4SAPS   H9X  503   0.642   3.753   9.365 -0.1540 -0.1076 -1.9873
    4SAPS   H9Y  504   0.485   3.838   9.349  1.6753  1.0458  0.9117
    4SAPS  C310  505   0.518   3.668   9.210 -0.2600 -0.2340  0.5823
    4SAPS  H10X  506   0.555   3.563   9.212  1.1316  0.1888 -0.9576
    4SAPS  H10Y  507   0.573   3.726   9.133  0.3980  0.5146  1.5865
    4SAPS  C311  508   0.371   3.664   9.159  0.5689  0.5012  0.5686
    4SAPS  H11X  509   0.337   3.763   9.124  0.1253  0.6725  1.4695
    4SAPS  H11Y  510   0.303   3.625   9.237  1.2852 -0.1339  0.8974
    4SAPS  C312  511   0.339   3.561   9.045 -0.1078 -0.4184 -0.3201
    4SAPS  H12X  512   0.232   3.580   9.020 -0.1163  2.7352  1.5741
    4SAPS  H12Y  513   0.343   3.457   9.085  2.1997 -0.6029 -0.8931
    4SAPS  C313  514   0.432   3.573   8.921  0.1726 -0.1281 -0.3666
    4SAPS  H13X  515   0.533   3.538   8.948  0.0290 -1.2306 -1.1762
    4SAPS  H13Y  516   0.445   3.682   8.903 -0.2359 -0.2212 -1.3194
    4SAPS  C314  517   0.384   3.508   8.791 -0.2234 -0.1447 -0.2064
    4SAPS  H14X  518   0.278   3.540   8.779  0.0096  0.8695  0.3655
    4SAPS  H14Y  519   0.388   3.398   8.809  1.0185 -0.4498 -2.0026
    4SAPS  C315  520   0.471   3.537   8.660 -0.0901  0.5418  0.6914
    4SAPS  H15X  521   0.460   3.459   8.581 -0.5299  0.0891  1.1854
    4SAPS  H15Y  522   0.573   3.520   8.700 -0.7377 -1.4493  1.6459
    4SAPS  C316  523   0.458   3.667   8.588  0.0661 -0.6012 -0.6302
    4SAPS  H16X  524   0.478   3.739   8.671 -1.6543 -0.8303  0.0170
    4SAPS  H16Y  525   0.355   3.699   8.563 -0.0719 -1.7746 -1.6189
    4SAPS  C317  526   0.540   3.702   8.461  0.0456 -0.1727  0.0074
    4SAPS  H17X  527   0.491   3.781   8.401  0.2454  0.5339  0.7562
    4SAPS  H17Y  528   0.542   3.610   8.399 -1.0367 -0.8784  0.9664
    4SAPS  C318  529   0.683   3.750   8.501  0.1043 -0.1268  0.8399
    4SAPS  H18X  530   0.742   3.665   8.543  1.7698  0.6601  0.1709
    4SAPS  H18Y  531   0.669   3.832   8.573 -2.6310 -0.1727  0.4813
    4SAPS  H18Z  532   0.728   3.784   8.405 -0.2614 -1.7629  0.0391
    5SAPS     N  533   3.300   2.727  10.952 -0.4215 -0.3852 -0.1743
    5SAPS   HN1  534   3.202   2.758  10.935 -0.7284 -0.1605  1.7233
    5SAPS   HN2  535   3.365   2.805  10.933  0.8966 -1.6832 -1.1725
    5SAPS   HN3  536   3.322   2.650  10.886 -0.1306 -1.3256  0.9876
    5SAPS   C12  537   3.329   2.673  11.095 -0.4280 -0.2941  0.6253
    5SAPS  H12A  538   3.430   2.703  11.119  0.1142 -0.2497 -1.5171
    5SAPS   C13  539   3.235   2.730  11.202 -0.2202 -0.3941  0.4800
    5SAPS  O13A  540   3.132   2.786  11.175 -0.0371 -0.5090  0.4376
    5SAPS  O13B  541   3.260   2.691  11.318  0.0675  0.1927  0.5455
    5SAPS   C11  542   3.327   2.520  11.089 -1.0425  0.2666  0.2023
    5SAPS  H11A  543   3.237   2.474  11.042  0.3802 -1.7680 -0.6714
    5SAPS  H11B  544   3.329   2.476  11.191 -1.7144  1.0332  0.5619
    5SAPS     P  545   3.508   2.334  11.015  0.2584 -0.8004  0.0030
    5SAPS   O13  546   3.598   2.349  11.141 -0.8989  0.2792 -0.7530
    5SAPS   O14  547   3.405   2.230  11.017  0.4782 -0.3754  0.1362
    5SAPS   O12  548   3.428   2.473  11.001 -0.2130 -0.0557  0.4456
    5SAPS   O11  549   3.601   2.320  10.886 -0.2435  0.5127  0.1168
    5SAPS    C1  550   3.623   2.192  10.824  0.0224  0.5184 -0.7052
    5SAPS    HA  551   3.659   2.119  10.900 -0.3622  1.4282  0.3863
    5SAPS    HB  552   3.528   2.145  10.790 -0.3945 -0.7060  1.9268
    5SAPS    C2  553   3.736   2.195  10.711  0.2590 -0.1514 -1.0124
    5SAPS    HS  554   3.823   2.245  10.759  0.1669 -0.1458 -0.8497
    5SAPS   O21  555   3.683   2.269  10.598 -0.2743 -0.8306 -0.2441
    5SAPS   C21  556   3.776   2.346  10.536  0.1417 -0.0429  0.0341
    5SAPS   O22  557   3.890   2.361  10.574  0.6638 -0.0438  0.2914
    5SAPS   C22  558   3.716   2.413  10.409 -0.0152 -0.0631 -0.2982
    5SAPS   H2R  559   3.608   2.388  10.401 -0.2472  1.0959 -0.9644
    5SAPS   H2S  560   3.727   2.521  10.429  3.3929 -0.3244 -0.1258
    5SAPS    C3  561   3.761   2.052  10.659  0.0327  0.0632 -0.1374
    5SAPS    HX  562   3.670   2.019  10.604  0.0736  0.3565 -0.3881
    5SAPS    HY  563   3.798   1.986  10.740 -0.8668 -0.9804 -0.5705
    5SAPS   O31  564   3.871   2.054  10.557 -0.1324  0.1018  0.0467
    5SAPS   C31  565   3.998   2.072  10.602  0.0061  0.4354 -0.5456
    5SAPS   O32  566   4.022   2.106  10.717  0.4697  0.2764  0.1444
    5SAPS   C32  567   4.109   2.054  10.498  0.1853 -0.5478 -0.2726
    5SAPS   H2X  568   4.119   1.948  10.469  0.5705 -0.4514 -0.5059
    5SAPS   H2Y  569   4.202   2.092  10.547 -0.2648 -1.5494  1.4278
    5SAPS   C23  570   3.798   2.386  10.286 -0.3575 -0.5660 -0.4524
    5SAPS   H3R  571   3.790   2.278  10.263  0.8457 -0.7644  0.0024
    5SAPS   H3S  572   3.904   2.412  10.308 -0.7662  0.1808  0.7519
    5SAPS   C24  573   3.751   2.476  10.175  0.2622 -0.1617  0.2664
    5SAPS   H4R  574   3.781   2.579  10.203  0.7254 -0.9552  2.9307
    5SAPS   H4S  575   3.640   2.478  10.175  0.2599  0.1991 -0.4126
    5SAPS   C25  576   3.804   2.431  10.039  0.2012 -0.5754  0.1187
    5SAPS   H5R  577   3.912   2.410  10.049  0.3134  0.8146  2.6843
    5SAPS   C26  578   3.729   2.423   9.928  0.0057  0.2335  0.0502
    5SAPS   H6R  579   3.773   2.377   9.838 -3.5802 -0.0264 -1.7666
    5SAPS   C27  580   3.588   2.447   9.902  0.0007  0.2135 -0.6191
    5SAPS   H7R  581   3.531   2.435   9.996  0.2241 -3.2459 -0.7948
    5SAPS   H7S  582   3.547   2.359   9.848  0.2221  0.8767 -1.8982
    5SAPS   C28  583   3.557   2.580   9.836 -0.2526  1.0345  0.1963
    5SAPS   H8R  584   3.575   2.581   9.728 -1.2596  3.3855 -0.0037
    5SAPS   C29  585   3.509   2.689   9.896  0.0099 -0.4382 -0.3311
    5SAPS   H9R  586   3.502   2.781   9.838 -2.5879 -0.7903 -0.6993
    5SAPS  C210  587   3.484   2.697  10.052  0.9971  0.2914  0.5212
    5SAPS  H10R  588   3.583   2.717  10.097  1.3623  0.7029 -0.4337
    5SAPS  H10S  589   3.445   2.607  10.105 -1.0696  0.7919 -0.0393
    5SAPS  C211  590   3.400   2.815  10.083  0.1766 -0.3842  0.8303
    5SAPS  H11R  591   3.298   2.801  10.122  0.7530 -1.6332  1.9551
    5SAPS  C212  592   3.430   2.947  10.081 -0.6054 -0.1040  0.8742
    5SAPS  H12R  593   3.355   3.024  10.102 -0.3347  1.5029 -3.2385
    5SAPS  C213  594   3.560   3.002  10.035  0.5682 -0.5447 -0.5614
    5SAPS  H13R  595   3.625   2.922   9.992 -0.6478 -1.7221 -0.2767
    5SAPS  H13S  596   3.623   3.045  10.117  0.5961  0.3348 -1.0347
    5SAPS  C214  597   3.526   3.096   9.920 -0.4216 -0.9426  0.2080
    5SAPS  H14R  598   3.492   3.050   9.826 -1.1171 -0.4956  0.2328
    5SAPS  C215  599   3.559   3.227   9.910 -0.3472 -1.0039  0.2679
    5SAPS  H15R  600   3.527   3.281   9.820 -0.3620  1.0557  1.4608
    5SAPS  C216  601   3.627   3.307  10.021  0.9314  0.3381  0.0426
    5SAPS  H16R  602   3.613   3.247  10.113  0.5148 -2.5582 -1.8004
    5SAPS  H16S  603   3.568   3.401  10.023  1.0400  0.3860  1.1744
    5SAPS  C217  604   3.778   3.326  10.016  0.2959  0.0074  0.0813
    5SAPS  H17R  605   3.828   3.234   9.980  1.2977  0.4190  0.3671
    5SAPS  H17S  606   3.815   3.333  10.121 -0.1859  0.3484  0.2349
    5SAPS  C218  607   3.820   3.436   9.923 -0.1186 -1.0614  0.5022
    5SAPS  H18R  608   3.742   3.510   9.896  0.3148  0.2930  2.6660
    5SAPS  H18S  609   3.897   3.500   9.971 -0.6752 -0.8744  1.1632
    5SAPS  C219  610   3.894   3.382   9.800  1.0985 -0.9410  0.1314
    5SAPS  H19R  611   3.817   3.353   9.726  1.6714  2.7517 -2.1461
    5SAPS  H19S  612   3.962   3.296   9.820  0.9541 -1.3059 -0.8736
    5SAPS  C220  613   3.962   3.484   9.701  0.0997 -0.5955  0.3085
    5SAPS  H20R  614   4.053   3.533   9.743 -0.9512  0.8171  1.0100
    5SAPS  H20S  615   3.894   3.569   9.680  1.2578  0.2250 -0.2603
    5SAPS  H20T  616   3.985   3.432   9.606 -0.9134 -0.9578  0.2471
    5SAPS   C33  617   4.089   2.132  10.365  0.1530  0.6112 -1.0371
    5SAPS   H3X  618   4.095   2.239  10.391  1.2655  0.3514 -0.1742
    5SAPS   H3Y  619   3.986   2.109  10.331 -0.3867 -0.1560  0.9481
    5SAPS   C34  620   4.190   2.095  10.264 -0.1829  0.1116  0.2121
    5SAPS   H4X  621   4.226   1.990  10.273 -1.1431 -0.3198 -0.7327
    5SAPS   H4Y  622   4.278   2.159  10.287  1.1955 -1.8885  0.7771
    5SAPS   C35  623   4.144   2.112  10.111 -1.0025 -0.5848 -0.9154
    5SAPS   H5X  624   4.121   2.215  10.076 -2.2872 -0.3551  0.5066
    5SAPS   H5Y  625   4.049   2.055  10.100 -1.6079  0.3652 -0.7124
    5SAPS   C36  626   4.260   2.053  10.033 -0.6016  0.4489  1.4907
    5SAPS   H6X  627   4.262   1.943  10.051  1.4993 -0.3319 -2.3632
    5SAPS   H6Y  628   4.362   2.090  10.056 -0.2723 -0.9009  2.2975
    5SAPS   C37  629   4.227   2.057   9.885  0.6294  0.2378  0.9240
    5SAPS   H7X  630   4.206   2.163   9.861  2.0919  0.5080  0.7445
    5SAPS   H7Y  631   4.134   1.996   9.873  0.5115  0.3696  1.1615
    5SAPS   C38  632   4.332   2.008   9.779  0.5805  0.1189  0.3145
    5SAPS   H8X  633   4.366   1.910   9.818  0.2009 -0.3394 -0.4867
    5SAPS   H8Y  634   4.420   2.075   9.789  1.2709 -0.4688 -1.4840
    5SAPS   C39  635   4.282   2.003   9.628 -0.1918  0.6437  0.2014
    5SAPS   H9X  636   4.304   2.100   9.579 -0.6799  0.9469  0.5674
    5SAPS   H9Y  637   4.175   1.973   9.639  0.2108 -0.9619 -0.0707
    5SAPS  C310  638   4.350   1.885   9.551 -0.0053 -0.7597  0.4994
    5SAPS  H10X  639   4.323   1.791   9.603 -0.5650 -0.6820  0.3592
    5SAPS  H10Y  640   4.460   1.898   9.559 -0.1528 -0.3918  2.3343
    5SAPS  C311  641   4.292   1.864   9.411 -0.2393 -0.2373  0.0340
    5SAPS  H11X  642   4.302   1.952   9.345 -0.5887 -1.6643 -2.0055
    5SAPS  H11Y  643   4.184   1.838   9.417 -0.6024  1.1783 -0.1739
    5SAPS  C312  644   4.363   1.749   9.338 -0.0952  0.2691  0.1471
    5SAPS  H12X  645   4.334   1.652   9.384 -0.7143 -0.1492 -1.0952
    5SAPS  H12Y  646   4.474   1.758   9.349  0.4014 -2.0414 -2.1021
    5SAPS  C313  647   4.323   1.745   9.187 -0.0659 -0.6508 -0.1129
    5SAPS  H13X  648   4.220   1.776   9.161  0.6944  0.7171 -1.6802
    5SAPS  H13Y  649   4.334   1.641   9.151 -1.1999 -0.6105 -0.5967
    5SAPS  C314  650   4.406   1.835   9.102 -0.3589 -0.8909  0.1668
    5SAPS  H14X  651   4.510   1.795   9.096  0.7503  1.7608  0.1667
    5SAPS  H14Y  652   4.417   1.927   9.163 -1.1417 -0.9077  0.3492
    5SAPS  C315  653   4.344   1.847   8.959  0.4612  0.5360  0.0465
    5SAPS  H15X  654   4.397   1.921   8.896  0.8859 -0.8469 -1.2773
    5SAPS  H15Y  655   4.240   1.886   8.960  0.3085  0.1459  0.9991
    5SAPS  C316  656   4.343   1.709   8.879  0.2951 -0.3325  0.1334
    5SAPS  H16X  657   4.279   1.634   8.930  0.6242 -1.3962 -0.9853
    5SAPS  H16Y  658   4.449   1.674   8.883  0.6614  0.8102  2.0196
    5SAPS  C317  659   4.297   1.715   8.731 -0.7465 -0.3271 -0.2361
    5SAPS  H17X  660   4.193   1.752   8.726 -0.3802  0.6612 -1.1096
    5SAPS  H17Y  661   4.289   1.617   8.679  1.9776 -0.8252  0.1207
    5SAPS  C318  662   4.382   1.810   8.645  0.0538  0.2561  0.5129
    5SAPS  H18X  663   4.374   1.919   8.661  1.3676  0.2472  1.2951
    5SAPS  H18Y  664   4.349   1.797   8.539  2.3417  1.2638 -0.3768
    5SAPS  H18Z  665   4.488   1.779   8.657 -0.2806 -0.6189  1.3144
    6SAPS     N  666   2.592   1.412  10.913 -0.6769  0.2973  0.1072
    6SAPS   HN1  667   2.582   1.419  11.016  1.6133  1.0769  0.3234
    6SAPS   HN2  668   2.673   1.350  10.891 -0.6697 -0.4932  2.1517
    6SAPS   HN3  669   2.611   1.509  10.881  0.3549  0.3865  0.9435
    6SAPS   C12  670   2.477   1.350  10.849 -0.3382  0.4603  0.3591
    6SAPS  H12A  671   2.483   1.245  10.873  4.3641  0.4012 -0.1810
    6SAPS   C13  672   2.336   1.402  10.894  0.1635 -0.5585 -0.9152
    6SAPS  O13A  673   2.330   1.482  10.993  1.0959  0.0920  0.1933
    6SAPS  O13B  674   2.235   1.341  10.846 -0.7739 -0.4173 -0.2474
    6SAPS   C11  675   2.478   1.371  10.693 -0.1717  0.3339 -0.2087
    6SAPS  H11A  676   2.494   1.479  10.674 -0.7420  0.4275 -0.1460
    6SAPS  H11B  677   2.385   1.331  10.648  0.2151  2.3937 -3.0884
    6SAPS     P  678   2.584   1.172  10.556  0.4493  0.0683  0.2936
    6SAPS   O13  679   2.714   1.120  10.523 -0.3372 -0.0248 -0.2814
    6SAPS   O14  680   2.480   1.085  10.616  0.4732 -0.2264 -0.4456
    6SAPS   O12  681   2.600   1.304  10.644  0.5708 -0.0052  0.0372
    6SAPS   O11  682   2.520   1.230  10.429 -0.0049 -0.1920 -0.4114
    6SAPS    C1  683   2.537   1.360  10.367 -0.2237  0.8702 -0.9783
    6SAPS    HA  684   2.452   1.425  10.395 -0.6994 -0.8531  2.0514
    6SAPS    HB  685   2.630   1.413  10.399  0.5439 -0.1482 -1.4458
    6SAPS    C2  686   2.558   1.348  10.209  0.4720  0.4709 -0.8097
    6SAPS    HS  687   2.555   1.449  10.163 -0.4701  0.5620 -0.5780
    6SAPS   O21  688   2.458   1.266  10.141 -0.1625 -0.0605 -0.5078
    6SAPS   C21  689   2.338   1.324  10.142  0.1282  0.8366 -0.4338
    6SAPS   O22  690   2.315   1.432  10.193  0.0796  0.1986 -0.2993
    6SAPS   C22  691   2.233   1.235  10.073  0.3974 -0.3037  0.1059
    6SAPS   H2R  692   2.261   1.201   9.971  1.1013  1.2009 -0.2294
    6SAPS   H2S  693   2.226   1.142  10.133 -2.7918  1.2530  2.4689
    6SAPS    C3  694   2.702   1.298  10.170  0.0975  0.5394  0.1816
    6SAPS    HX  695   2.698   1.189  10.191  1.1783 -0.3197 -3.3912
    6SAPS    HY  696   2.782   1.348  10.228 -2.9888  1.5754  3.9985
    6SAPS   O31  697   2.725   1.309  10.025 -0.1130  0.1144  0.0205
    6SAPS   C31  698   2.724   1.433   9.973 -0.9010 -0.0211  0.0054
    6SAPS   O32  699   2.738   1.534  10.039 -0.1004 -0.1665  0.4260
    6SAPS   C32  700   2.703   1.432   9.817 -0.2262  0.6550 -0.4619
    6SAPS   H2X  701   2.722   1.330   9.777  1.0345  0.7184 -0.0634
    6SAPS   H2Y  702   2.781   1.495   9.770 -0.3129  0.0700 -1.4189
    6SAPS   C23  703   2.083   1.288  10.088 -0.0070  0.1281  0.1327
    6SAPS   H3R  704   2.071   1.346  10.181  1.4320  0.3566  0.2069
    6SAPS   H3S  705   2.028   1.194  10.110 -0.0057  0.2272  0.5541
    6SAPS   C24  706   2.018   1.362   9.968  0.1941  0.0640  0.1793
    6SAPS   H4R  707   2.064   1.315   9.878 -1.5314  1.4069 -1.4937
    6SAPS   H4S  708   2.046   1.470   9.964  3.9309 -0.7724 -1.4081
    6SAPS   C25  709   1.873   1.331   9.973  0.0653 -0.2299  0.5601
    6SAPS   H5R  710   1.834   1.349  10.074 -2.5655  1.3953 -0.6502
    6SAPS   C26  711   1.792   1.281   9.874  0.6821  0.2241  0.4296
    6SAPS   H6R  712   1.687   1.269   9.906  0.8097 -1.1984  0.3794
    6SAPS   C27  713   1.822   1.261   9.722 -0.2062 -0.4755 -0.3811
    6SAPS   H7R  714   1.724   1.230   9.679 -1.6951 -0.9849  2.9833
    6SAPS   H7S  715   1.900   1.185   9.704  0.5433 -0.4827  2.4688
    6SAPS   C28  716   1.857   1.393   9.661 -0.4448 -0.5697 -0.4503
    6SAPS   H8R  717   1.833   1.485   9.715  0.2625  0.8480 -2.4327
    6SAPS   C29  718   1.912   1.403   9.538  0.7894 -0.9970  0.7377
    6SAPS   H9R  719   1.920   1.507   9.500 -0.0879 -0.0489  2.9871
    6SAPS  C210  720   1.943   1.294   9.442 -0.2287  0.7415  0.2216
    6SAPS  H10R  721   2.001   1.225   9.507 -0.4887  1.8669  1.7090
    6SAPS  H10S  722   2.024   1.321   9.371  0.2252 -1.5178 -0.1807
    6SAPS  C211  723   1.838   1.214   9.368  0.3466 -0.6621 -0.7062
    6SAPS  H11R  724   1.788   1.132   9.423 -0.7210  0.8547  0.6825
    6SAPS  C212  725   1.810   1.222   9.238  0.2153 -0.7786 -0.8120
    6SAPS  H12R  726   1.727   1.166   9.193 -1.2025 -1.4157  2.3402
    6SAPS  C213  727   1.864   1.319   9.139  0.3990 -0.2118  0.5193
    6SAPS  H13R  728   1.936   1.396   9.172 -2.8002  1.6322  3.8769
    6SAPS  H13S  729   1.770   1.375   9.120 -0.6195 -2.1108 -0.4032
    6SAPS  C214  730   1.906   1.250   9.010  0.0478 -0.1167 -0.8994
    6SAPS  H14R  731   1.980   1.170   9.026 -1.5663 -1.2622  1.3718
    6SAPS  C215  732   1.849   1.266   8.891  0.2060  0.5187 -0.0477
    6SAPS  H15R  733   1.897   1.212   8.808 -0.5569 -0.9526  0.4311
    6SAPS  C216  734   1.729   1.348   8.853 -0.3387  0.3393  0.3300
    6SAPS  H16R  735   1.746   1.415   8.766 -2.0311  2.5531  1.6050
    6SAPS  H16S  736   1.679   1.407   8.933 -0.5191 -2.1903  2.2096
    6SAPS  C217  737   1.602   1.262   8.810 -0.4512  0.4485  0.2074
    6SAPS  H17R  738   1.515   1.272   8.879  0.1923  3.4786  0.7532
    6SAPS  H17S  739   1.639   1.158   8.820 -1.6325  0.1242  1.5524
    6SAPS  C218  740   1.554   1.287   8.672 -0.8726 -0.2015  0.2372
    6SAPS  H18R  741   1.634   1.254   8.603 -0.6840  2.2483 -0.8138
    6SAPS  H18S  742   1.558   1.397   8.657  1.3956 -0.0684  1.3430
    6SAPS  C219  743   1.422   1.236   8.620 -0.6060  0.2765 -0.8818
    6SAPS  H19R  744   1.333   1.287   8.665  0.5418  1.1535  0.4685
    6SAPS  H19S  745   1.418   1.128   8.645 -2.0754 -0.1511 -2.7102
    6SAPS  C220  746   1.403   1.238   8.467  0.0212  0.1789 -0.5576
    6SAPS  H20R  747   1.434   1.141   8.423 -0.4675  0.6346 -1.9373
    6SAPS  H20S  748   1.454   1.327   8.425  1.0307  1.6485  3.3088
    6SAPS  H20T  749   1.294   1.237   8.443  0.1057  0.4830 -0.9520
    6SAPS   C33  750   2.575   1.507   9.778 -0.2469  0.4075  0.7553
    6SAPS   H3X  751   2.597   1.527   9.671  2.2943  2.4918  1.5525
    6SAPS   H3Y  752   2.578   1.603   9.834  1.7365  1.0708 -0.3999
    6SAPS   C34  753   2.440   1.434   9.766  0.0849 -0.2736 -0.2278
    6SAPS   H4X  754   2.373   1.444   9.854 -0.8695 -0.8159 -0.8745
    6SAPS   H4Y  755   2.463   1.325   9.759 -0.3917 -0.4769  1.0263
    6SAPS   C35  756   2.357   1.480   9.645  0.0970 -0.4148  0.2023
    6SAPS   H5X  757   2.391   1.582   9.618  2.0975 -1.7646 -2.8976
    6SAPS   H5Y  758   2.249   1.491   9.670 -0.0580 -0.7654 -0.2992
    6SAPS   C36  759   2.381   1.406   9.509  0.3538 -0.9921  0.1326
    6SAPS   H6X  760   2.318   1.314   9.512  0.5725 -1.1582 -0.2665
    6SAPS   H6Y  761   2.488   1.390   9.483  0.7770  0.1792  1.0430
    6SAPS   C37  762   2.323   1.479   9.390 -0.3230  0.3899 -0.0459
    6SAPS   H7X  763   2.367   1.581   9.386  0.1656  0.2746  1.5834
    6SAPS   H7Y  764   2.213   1.488   9.383 -0.3043  1.3781  0.6584
    6SAPS   C38  765   2.359   1.407   9.257 -0.7914  0.0585  0.3097
    6SAPS   H8X  766   2.357   1.301   9.287  1.1052 -0.0234  0.2437
    6SAPS   H8Y  767   2.466   1.430   9.240 -0.8102  0.1724  0.3392
    6SAPS   C39  768   2.286   1.446   9.130 -0.6107 -0.0156 -0.2530
    6SAPS   H9X  769   2.310   1.554   9.121  0.6668 -0.3614 -1.2611
    6SAPS   H9Y  770   2.177   1.439   9.151 -0.8306  0.0674 -1.2857
    6SAPS  C310  771   2.324   1.368   9.012 -0.2152 -0.0951 -0.3066
    6SAPS  H10X  772   2.304   1.264   9.045  1.1912 -0.2463  0.1371
    6SAPS  H10Y  773   2.432   1.385   8.989 -0.9492  1.0422 -3.3789
    6SAPS  C311  774   2.242   1.391   8.888 -0.4464 -0.4814  0.4023
    6SAPS  H11X  775   2.256   1.493   8.847  0.4630 -0.7412  0.0429
    6SAPS  H11Y  776   2.134   1.386   8.915 -0.1794  0.5861  1.8594
    6SAPS  C312  777   2.275   1.296   8.772  0.0053 -0.0791 -0.8948
    6SAPS  H12X  778   2.261   1.188   8.794  0.5578  0.4080  2.3215
    6SAPS  H12Y  779   2.378   1.320   8.739  0.4704 -0.1752  0.4286
    6SAPS  C313  780   2.181   1.327   8.657  0.5538  0.1220  0.7015
    6SAPS  H13X  781   2.221   1.418   8.608 -0.9805  0.7061  0.4772
    6SAPS  H13Y  782   2.079   1.347   8.695  0.9455  0.6638  1.4893
    6SAPS  C314  783   2.170   1.233   8.535  0.1654  1.0469 -0.1013
    6SAPS  H14X  784   2.097   1.265   8.458  1.1739  0.7689 -1.2011
    6SAPS  H14Y  785   2.133   1.136   8.574  2.8236 -0.4822 -1.1309
    6SAPS  C315  786   2.306   1.200   8.459  0.7458  0.4086 -0.0578
    6SAPS  H15X  787   2.385   1.180   8.535  1.5726  2.3270 -0.3367
    6SAPS  H15Y  788   2.325   1.300   8.415 -0.2176  1.4153  1.6900
    6SAPS  C316  789   2.291   1.099   8.344  0.4489 -0.2033  0.0984
    6SAPS  H16X  790   2.188   1.102   8.303  1.0675  0.5653 -1.4722
    6SAPS  H16Y  791   2.313   0.997   8.383  2.3945 -0.3139 -1.1381
    6SAPS  C317  792   2.378   1.138   8.218 -0.7433 -0.6662  0.2273
    6SAPS  H17X  793   2.488   1.134   8.233 -0.6703  1.5341  0.7379
    6SAPS  H17Y  794   2.358   1.241   8.180 -0.2093 -0.3194  0.8606
    6SAPS  C318  795   2.344   1.054   8.101 -0.4337 -0.6303 -0.5678
    6SAPS  H18X  796   2.346   0.946   8.126 -2.0353 -0.3154  1.1244
    6SAPS  H18Y  797   2.421   1.067   8.022  0.9357  0.8230  0.9033
    6SAPS  H18Z  798   2.251   1.090   8.053  0.0895  1.3624 -0.2126
    7SAPS     N  799   4.610   1.293  10.889 -0.2976 -0.3783 -0.2868
    7SAPS   HN1  800   4.640   1.302  10.988 -2.4608  1.9542  0.2713
    7SAPS   HN2  801   4.529   1.230  10.898 -0.8358  0.4548  0.9773
    7SAPS   HN3  802   4.684   1.255  10.826 -1.4955 -1.6809 -0.9571
    7SAPS   C12  803   4.575   1.419  10.838  0.5710  0.1019  0.5944
    7SAPS  H12A  804   4.482   1.436  10.890  0.7436  1.1156  0.5901
    7SAPS   C13  805   4.666   1.536  10.883  0.3520 -0.1112  0.1756
    7SAPS  O13A  806   4.756   1.515  10.961  0.1496  0.7020  0.2941
    7SAPS  O13B  807   4.642   1.649  10.832  0.0816  0.1856 -0.8363
    7SAPS   C11  808   4.574   1.417  10.686  0.1630  0.3950 -0.0375
    7SAPS  H11A  809   4.671   1.386  10.642  0.0124 -1.9273  1.0755
    7SAPS  H11B  810   4.562   1.520  10.647 -2.0619 -0.0209 -0.6352
    7SAPS     P  811   4.381   1.352  10.513 -0.0160 -0.0505 -0.0440
    7SAPS   O13  812   4.361   1.227  10.439  0.3125  0.9473  0.4687
    7SAPS   O14  813   4.258   1.417  10.558  0.3161 -0.3332 -0.7349
    7SAPS   O12  814   4.471   1.327  10.642 -0.1471  0.5140 -0.6546
    7SAPS   O11  815   4.471   1.457  10.436  0.4289 -0.1518 -0.3883
    7SAPS    C1  816   4.589   1.412  10.362  0.7342 -0.5236 -0.0961
    7SAPS    HA  817   4.647   1.330  10.410  0.3800 -1.0519 -0.5571
    7SAPS    HB  818   4.553   1.371  10.265 -1.7869  0.3373  0.3946
    7SAPS    C2  819   4.688   1.527  10.330 -0.0987  0.1082 -0.3912
    7SAPS    HS  820   4.715   1.576  10.426 -0.7371 -0.9244  0.3426
    7SAPS   O21  821   4.626   1.629  10.246 -0.2173  0.6678  0.6089
    7SAPS   C21  822   4.699   1.725  10.206 -0.0965  0.3303 -0.5956
    7SAPS   O22  823   4.816   1.753  10.245  0.8428  0.3453  0.8044
    7SAPS   C22  824   4.629   1.812  10.102 -0.4435  0.2522  0.0336
    7SAPS   H2R  825   4.531   1.849  10.138 -0.5634  1.2360 -1.2257
    7SAPS   H2S  826   4.700   1.888  10.062  0.2003  0.0203  0.7229
    7SAPS    C3  827   4.829   1.467  10.284 -0.2560  0.2263  0.4698
    7SAPS    HX  828   4.857   1.384  10.352 -0.1153 -1.5222 -1.6235
    7SAPS    HY  829   4.910   1.542  10.299 -0.3398 -0.0973  3.1320
    7SAPS   O31  830   4.824   1.427  10.149 -0.2499 -0.0424  0.7149
    7SAPS   C31  831   4.820   1.294  10.130 -0.2417 -0.7037 -0.4552
    7SAPS   O32  832   4.821   1.205  10.211  0.4801 -0.7824  0.1906
    7SAPS   C32  833   4.841   1.272   9.977  0.1817 -0.2183 -0.3992
    7SAPS   H2X  834   4.780   1.348   9.923  2.2004  1.9283  0.1683
    7SAPS   H2Y  835   4.804   1.168   9.962  0.9014 -0.5962  0.3609
    7SAPS   C23  836   4.601   1.723   9.979 -0.2688 -0.2702  0.7287
    7SAPS   H3R  837   4.548   1.794   9.912  0.8806  2.4029  2.5132
    7SAPS   H3S  838   4.547   1.630  10.007  1.8515 -1.2777  1.7133
    7SAPS   C24  839   4.736   1.668   9.906 -0.4956 -1.1399 -0.4791
    7SAPS   H4R  840   4.789   1.608   9.983 -1.8726  0.0282  1.4765
    7SAPS   H4S  841   4.797   1.761   9.904 -0.2448 -1.1728  2.2187
    7SAPS   C25  842   4.711   1.595   9.770 -0.4942  0.9087 -0.3961
    7SAPS   H5R  843   4.653   1.501   9.773 -0.0613  0.5592 -1.8927
    7SAPS   C26  844   4.749   1.633   9.647  0.6846 -0.4332  0.2196
    7SAPS   H6R  845   4.724   1.581   9.554  1.5015 -1.8750  0.7574
    7SAPS   C27  846   4.819   1.763   9.607 -0.1017  0.1161 -0.6006
    7SAPS   H7R  847   4.921   1.732   9.576 -0.5837  0.2219 -2.4066
    7SAPS   H7S  848   4.840   1.833   9.691  1.2868 -1.9680  0.8948
    7SAPS   C28  849   4.769   1.832   9.480  0.2788 -0.4316  0.0390
    7SAPS   H8R  850   4.664   1.863   9.487  0.2176 -0.4166 -0.8899
    7SAPS   C29  851   4.838   1.852   9.365  0.0084 -0.6082 -0.0806
    7SAPS   H9R  852   4.775   1.889   9.283 -0.4861  1.0782  1.0196
    7SAPS  C210  853   4.977   1.813   9.330 -0.0612  0.6434  0.2042
    7SAPS  H10R  854   5.013   1.739   9.404 -0.8275  0.9056  0.8506
    7SAPS  H10S  855   5.052   1.895   9.340  1.2442 -0.4771 -0.1287
    7SAPS  C211  856   5.004   1.778   9.186 -0.2850 -0.0403 -0.1616
    7SAPS  H11R  857   5.022   1.863   9.118  0.1672  0.4330  0.5347
    7SAPS  C212  858   4.995   1.654   9.133  0.5186  0.0847 -0.0628
    7SAPS  H12R  859   5.001   1.640   9.024 -1.0567  1.3291 -0.3531
    7SAPS  C213  860   4.957   1.532   9.202  0.0459 -0.0128  0.2299
    7SAPS  H13R  861   4.883   1.481   9.136 -2.2108  3.5363 -0.2681
    7SAPS  H13S  862   4.898   1.569   9.288  0.1065  1.7006 -0.4273
    7SAPS  C214  863   5.070   1.440   9.246 -0.1066 -0.1470 -0.3879
    7SAPS  H14R  864   5.129   1.476   9.331 -2.1182  2.2511  0.0981
    7SAPS  C215  865   5.091   1.318   9.189 -1.2338 -1.0358 -0.1027
    7SAPS  H15R  866   5.166   1.256   9.240 -1.3101  0.2278  1.6635
    7SAPS  C216  867   5.010   1.258   9.084 -0.4806  0.6941  0.2440
    7SAPS  H16R  868   4.965   1.340   9.025 -0.2456  0.3351 -0.4437
    7SAPS  H16S  869   4.938   1.183   9.122  3.4581 -3.5101  0.2799
    7SAPS  C217  870   5.089   1.175   8.981  0.8325  0.0835  0.0704
    7SAPS  H17R  871   5.118   1.079   9.029 -0.3529 -0.0858  0.4740
    7SAPS  H17S  872   5.181   1.224   8.943 -0.6568  2.1725 -1.0409
    7SAPS  C218  873   5.003   1.133   8.854 -1.1410 -0.1645  0.6604
    7SAPS  H18R  874   4.961   1.224   8.807  1.9472 -0.0439 -2.3103
    7SAPS  H18S  875   4.930   1.056   8.888  0.0751 -0.5189  2.6559
    7SAPS  C219  876   5.093   1.075   8.745  0.3936  0.4258 -0.0369
    7SAPS  H19R  877   5.144   0.986   8.788  0.7234 -0.7358 -2.6560
    7SAPS  H19S  878   5.181   1.136   8.715  0.2523  0.1629 -1.0059
    7SAPS  C220  879   5.014   1.039   8.619  0.0930  0.0029 -0.5056
    7SAPS  H20R  880   4.983   1.130   8.562 -1.5719 -1.0722 -1.4098
    7SAPS  H20S  881   4.922   0.980   8.639  0.0056 -0.4992 -2.2200
    7SAPS  H20T  882   5.080   0.986   8.547  0.9931 -2.6070  2.0556
    7SAPS   C33  883   4.991   1.272   9.956  0.1204  0.2150 -0.1221
    7SAPS   H3X  884   5.047   1.237  10.046 -0.1741 -0.2122 -0.1041
    7SAPS   H3Y  885   5.028   1.374   9.930 -0.3255 -0.3609 -3.3283
    7SAPS   C34  886   5.042   1.187   9.837  0.1061  0.1616  0.6562
    7SAPS   H4X  887   5.145   1.216   9.809 -0.5324  1.6997 -0.2294
    7SAPS   H4Y  888   4.979   1.220   9.751 -0.0100 -0.4764  0.4889
    7SAPS   C35  889   5.036   1.036   9.866  0.6519 -0.6213 -0.7281
    7SAPS   H5X  890   4.938   1.005   9.908  0.3653  0.3915 -0.6007
    7SAPS   H5Y  891   5.115   1.017   9.941 -0.1533  0.2276  0.3584
    7SAPS   C36  892   5.064   0.959   9.733  0.0084 -1.1800  0.2984
    7SAPS   H6X  893   4.996   0.992   9.652 -0.2271  1.1578  1.3704
    7SAPS   H6Y  894   5.035   0.854   9.752 -0.3900 -0.7927  1.9275
    7SAPS   C37  895   5.207   0.966   9.686 -0.5255 -0.4091 -0.2556
    7SAPS   H7X  896   5.268   0.924   9.769 -2.0684 -0.5825  0.8184
    7SAPS   H7Y  897   5.221   1.076   9.680  0.5111 -0.5463 -0.8248
    7SAPS   C38  898   5.213   0.900   9.551 -0.0974 -0.1150 -0.3225
    7SAPS   H8X  899   5.141   0.816   9.559 -1.2507  0.8461 -0.3369
    7SAPS   H8Y  900   5.312   0.850   9.541  0.3269  0.5683  0.3639
    7SAPS   C39  901   5.172   1.000   9.445  0.3367  0.0476 -0.2586
    7SAPS   H9X  902   5.254   1.013   9.371 -0.0356  2.2607 -0.3492
    7SAPS   H9Y  903   5.156   1.101   9.490 -2.2208 -0.4932  0.1543
    7SAPS  C310  904   5.050   0.955   9.370 -0.0202  0.2514  0.2654
    7SAPS  H10X  905   5.012   1.046   9.319  3.0108  0.6195 -1.5497
    7SAPS  H10Y  906   4.972   0.923   9.443  0.2578 -1.0233  0.0225
    7SAPS  C311  907   5.070   0.851   9.258  0.6735  0.5623 -0.8277
    7SAPS  H11X  908   5.109   0.755   9.299 -0.1330 -0.2045 -1.8057
    7SAPS  H11Y  909   5.143   0.884   9.181  1.0487 -1.0370 -1.1963
    7SAPS  C312  910   4.933   0.818   9.181 -0.5505 -0.2401  0.5722
    7SAPS  H12X  911   4.912   0.911   9.123 -1.0492 -0.2989  0.6592
    7SAPS  H12Y  912   4.852   0.798   9.254 -1.5533  1.9385  0.1302
    7SAPS  C313  913   4.951   0.699   9.083  0.4188 -0.1436  0.6163
    7SAPS  H13X  914   4.981   0.610   9.142  1.7063 -0.5322 -0.5592
    7SAPS  H13Y  915   5.042   0.703   9.020 -0.5405 -0.1712 -0.8215
    7SAPS  C314  916   4.833   0.686   8.979  0.7864  0.2040 -0.5990
    7SAPS  H14X  917   4.860   0.763   8.903  1.3868  1.4679  0.8525
    7SAPS  H14Y  918   4.732   0.710   9.020 -0.2551 -1.6930 -1.9202
    7SAPS  C315  919   4.834   0.540   8.921  0.2951 -0.3682 -0.3945
    7SAPS  H15X  920   4.732   0.538   8.878  0.9419 -0.9510 -1.9715
    7SAPS  H15Y  921   4.847   0.476   9.011 -0.8638  0.3456  0.3106
    7SAPS  C316  922   4.929   0.525   8.800  0.1309  0.1773  0.1085
    7SAPS  H16X  923   5.033   0.498   8.828 -0.3081 -2.6718 -0.6429
    7SAPS  H16Y  924   4.935   0.627   8.755  0.2797  0.1388  0.0406
    7SAPS  C317  925   4.868   0.428   8.698  0.0417 -0.4307  0.8366
    7SAPS  H17X  926   4.763   0.453   8.673 -0.2530 -3.4908 -1.6167
    7SAPS  H17Y  927   4.870   0.329   8.748 -1.5624  1.1995  4.4406
    7SAPS  C318  928   4.950   0.431   8.562 -0.2878 -0.4922 -0.5129
    7SAPS  H18X  929   4.908   0.512   8.498 -3.1516 -3.1193 -2.2419
    7SAPS  H18Y  930   4.961   0.330   8.516  0.8301 -0.7594  0.3122
    7SAPS  H18Z  931   5.053   0.459   8.592 -0.3489 -0.4770 -0.3164
    8SAPS     N  932   2.336   2.889  10.988  0.4569  0.5890 -0.1833
    8SAPS   HN1  933   2.437   2.902  11.007  0.2895  0.3379  0.9401
    8SAPS   HN2  934   2.330   2.816  10.914  1.8635  4.3087 -4.4397
    8SAPS   HN3  935   2.306   2.974  10.936  2.1598  2.3260  1.5103
    8SAPS   C12  936   2.240   2.850  11.100 -0.3905  0.9316 -0.7552
    8SAPS  H12A  937   2.267   2.747  11.117  0.4358  1.3892  0.9559
    8SAPS   C13  938   2.260   2.934  11.232  0.0081 -0.1123 -0.9239
    8SAPS  O13A  939   2.353   3.014  11.242 -0.1744 -0.1967 -0.7460
    8SAPS  O13B  940   2.182   2.904  11.332  0.3304 -0.8392  0.3821
    8SAPS   C11  941   2.096   2.866  11.053 -0.3979 -0.1567 -0.3621
    8SAPS  H11A  942   2.069   2.968  11.017  1.3285  0.2440 -0.5779
    8SAPS  H11B  943   2.025   2.845  11.136 -0.3250 -1.5958 -0.6285
    8SAPS     P  944   1.999   2.646  10.975 -0.0550  0.2958  0.1564
    8SAPS   O13  945   2.102   2.577  11.056  0.1731 -0.8853  0.3668
    8SAPS   O14  946   1.864   2.670  11.025 -0.1662 -0.2523 -0.4790
    8SAPS   O12  947   2.066   2.780  10.940  0.1908 -0.5431  0.1678
    8SAPS   O11  948   1.989   2.580  10.833  0.1528 -0.1426  0.6755
    8SAPS    C1  949   1.884   2.618  10.744  0.5243  0.3669  0.3309
    8SAPS    HA  950   1.792   2.650  10.798 -0.5466  0.6301 -1.5822
    8SAPS    HB  951   1.920   2.700  10.678  0.1480 -2.8565 -4.3270
    8SAPS    C2  952   1.850   2.497  10.652  0.0706  0.2881  0.2131
    8SAPS    HS  953   1.822   2.408  10.712 -0.2241  1.2236  1.5150
    8SAPS   O21  954   1.962   2.470  10.566  0.0196  0.0399 -0.4748
    8SAPS   C21  955   1.961   2.344  10.511  0.4779 -0.6981  0.1893
    8SAPS   O22  956   1.897   2.253  10.565 -0.4352  0.2808 -0.0737
    8SAPS   C22  957   2.067   2.335  10.397  0.4270 -0.6588 -0.5550
    8SAPS   H2R  958   2.167   2.368  10.431  0.5191  1.1961 -2.4448
    8SAPS   H2S  959   2.086   2.230  10.365  0.1389 -0.7210 -0.5266
    8SAPS    C3  960   1.727   2.539  10.568  0.3551 -0.0846 -0.6227
    8SAPS    HX  961   1.637   2.547  10.632 -0.3113  3.8855 -1.7894
    8SAPS    HY  962   1.713   2.457  10.495 -0.7471  1.2497 -1.9905
    8SAPS   O31  963   1.754   2.668  10.504 -0.0084  0.0106  0.1770
    8SAPS   C31  964   1.658   2.697  10.409 -0.0952  0.2588 -0.3590
    8SAPS   O32  965   1.576   2.617  10.370  0.7001 -0.0800  0.1331
    8SAPS   C32  966   1.675   2.840  10.361  0.5337 -0.0258 -0.5287
    8SAPS   H2X  967   1.772   2.837  10.306  0.2387 -0.3819 -1.0413
    8SAPS   H2Y  968   1.680   2.905  10.451 -2.0816  0.6606 -0.7933
    8SAPS   C23  969   2.018   2.421  10.272  0.0579 -0.5196  0.2538
    8SAPS   H3R  970   1.981   2.520  10.307  1.0376  0.0740 -0.3507
    8SAPS   H3S  971   1.934   2.360  10.232  0.6953 -0.7994 -0.6609
    8SAPS   C24  972   2.119   2.434  10.164 -0.0792  0.5548  0.2630
    8SAPS   H4R  973   2.207   2.489  10.203 -0.1214  0.0206  1.1346
    8SAPS   H4S  974   2.078   2.506  10.089  0.6594  1.4007  0.6469
    8SAPS   C25  975   2.165   2.301  10.097 -0.6228 -0.4906 -0.7718
    8SAPS   H5R  976   2.150   2.211  10.158 -0.7640 -0.3894 -0.6564
    8SAPS   C26  977   2.231   2.294   9.984 -0.1994  0.1045  0.5460
    8SAPS   H6R  978   2.266   2.197   9.945 -0.4866 -0.3344  1.3450
    8SAPS   C27  979   2.277   2.410   9.893  0.1144  0.1449 -0.1391
    8SAPS   H7R  980   2.379   2.376   9.866 -0.4915  0.1762 -2.8347
    8SAPS   H7S  981   2.281   2.508   9.946  4.2800  0.9676 -1.5780
    8SAPS   C28  982   2.204   2.435   9.758 -0.6260 -0.4138  0.5295
    8SAPS   H8R  983   2.097   2.458   9.770  0.2991  3.7779  2.6578
    8SAPS   C29  984   2.252   2.410   9.632  0.0745 -0.3926  0.1185
    8SAPS   H9R  985   2.177   2.428   9.553 -0.3188 -0.2053  0.5267
    8SAPS  C210  986   2.384   2.347   9.586  0.5207  0.1558 -0.2296
    8SAPS  H10R  987   2.450   2.348   9.675 -1.0236  1.1218  0.9730
    8SAPS  H10S  988   2.422   2.407   9.501 -2.8409 -0.8224 -2.6439
    8SAPS  C211  989   2.363   2.203   9.549 -1.0548 -0.2466 -0.3519
    8SAPS  H11R  990   2.355   2.129   9.630 -3.2671 -0.1964 -0.4467
    8SAPS  C212  991   2.353   2.164   9.416  0.3726 -0.2363 -0.0803
    8SAPS  H12R  992   2.335   2.056   9.412 -2.9889  0.1620  0.7164
    8SAPS  C213  993   2.346   2.250   9.289  0.3384  0.0557  0.1693
    8SAPS  H13R  994   2.450   2.270   9.255 -0.6809  0.1907 -3.1827
    8SAPS  H13S  995   2.300   2.350   9.304  1.0247  0.0065  3.1562
    8SAPS  C214  996   2.274   2.177   9.175 -0.1413 -0.9685  0.5838
    8SAPS  H14R  997   2.183   2.126   9.210 -0.6507 -0.9130 -0.6198
    8SAPS  C215  998   2.313   2.166   9.046 -0.2329  0.0682  0.7733
    8SAPS  H15R  999   2.264   2.097   8.976  3.3328  0.3593 -2.3843
    8SAPS  C216 1000   2.438   2.213   8.979 -0.8054 -0.3337 -0.2213
    8SAPS  H16R 1001   2.529   2.206   9.042 -1.2612  3.0135  1.0498
    8SAPS  H16S 1002   2.425   2.321   8.952  1.5188 -0.4616 -2.1695
    8SAPS  C217 1003   2.474   2.135   8.852  0.1399 -0.1928  0.0554
    8SAPS  H17R 1004   2.388   2.136   8.781  0.2359  2.1660 -0.1214
    8SAPS  H17S 1005   2.510   2.034   8.879  4.1045  1.6153  2.4157
    8SAPS  C218 1006   2.589   2.220   8.783  0.2303  0.5606 -0.2377
    8SAPS  H18R 1007   2.687   2.198   8.830  1.1297 -0.4274 -2.4283
    8SAPS  H18S 1008   2.566   2.328   8.796 -3.1766  0.0570 -1.1943
    8SAPS  C219 1009   2.609   2.181   8.636  0.1547 -0.5545  0.4929
    8SAPS  H19R 1010   2.522   2.220   8.580  1.0764 -1.3629 -1.5872
    8SAPS  H19S 1011   2.605   2.071   8.626 -0.3590 -0.3500 -2.5768
    8SAPS  C220 1012   2.742   2.247   8.579  1.0113 -0.7025 -0.0577
    8SAPS  H20R 1013   2.793   2.203   8.491  2.0027  0.8617 -0.2960
    8SAPS  H20S 1014   2.813   2.237   8.665  0.0008 -1.0212  0.7620
    8SAPS  H20T 1015   2.722   2.355   8.564  0.2998 -0.4230  2.3747
    8SAPS   C33 1016   1.567   2.880  10.264 -0.1923 -0.2125 -0.0028
    8SAPS   H3X 1017   1.580   2.989  10.253 -0.5533 -0.3337 -2.0468
    8SAPS   H3Y 1018   1.463   2.869  10.301  0.3199  0.2229  1.6332
    8SAPS   C34 1019   1.585   2.805  10.133 -0.5942 -0.9999 -0.2907
    8SAPS   H4X 1020   1.568   2.697  10.153 -0.4059 -0.9819 -0.0268
    8SAPS   H4Y 1021   1.691   2.809  10.098 -1.4838  1.1018 -3.1121
    8SAPS   C35 1022   1.487   2.841  10.025  0.4113 -0.8561 -0.3722
    8SAPS   H5X 1023   1.489   2.949  10.000 -2.2834 -0.9628 -1.4082
    8SAPS   H5Y 1024   1.387   2.807  10.060  0.8942 -3.5321 -1.3287
    8SAPS   C36 1025   1.517   2.777   9.887  0.3310 -0.5644 -0.2422
    8SAPS   H6X 1026   1.514   2.666   9.880  1.0616 -0.7147  1.5155
    8SAPS   H6Y 1027   1.617   2.811   9.854  1.3518 -1.4890  1.7772
    8SAPS   C37 1028   1.415   2.823   9.787  0.1505  0.7068  0.0879
    8SAPS   H7X 1029   1.427   2.931   9.763 -1.2468  1.0184  0.7446
    8SAPS   H7Y 1030   1.316   2.809   9.834  0.8629  0.9493  1.7409
    8SAPS   C38 1031   1.422   2.752   9.650  0.5360  0.1657 -0.4018
    8SAPS   H8X 1032   1.327   2.764   9.592 -0.8086 -1.1909  1.3944
    8SAPS   H8Y 1033   1.429   2.643   9.673  1.8041  0.5061  0.9515
    8SAPS   C39 1034   1.543   2.806   9.579  0.1556 -0.1128  0.7398
    8SAPS   H9X 1035   1.635   2.793   9.641  1.7785  0.4574 -1.4438
    8SAPS   H9Y 1036   1.534   2.916   9.569 -1.2332 -0.3553 -1.2878
    8SAPS  C310 1037   1.575   2.738   9.444  0.4847 -0.0183 -0.3151
    8SAPS  H10X 1038   1.555   2.631   9.465  0.8729 -0.7144 -3.1775
    8SAPS  H10Y 1039   1.681   2.748   9.412  0.1229  1.2380 -1.2145
    8SAPS  C311 1040   1.483   2.787   9.338  0.7946 -0.4485 -0.5508
    8SAPS  H11X 1041   1.436   2.887   9.348 -0.9880 -1.0874 -1.9241
    8SAPS  H11Y 1042   1.399   2.715   9.341  0.0819  0.2536 -2.0992
    8SAPS  C312 1043   1.541   2.784   9.190 -0.2340  0.0162 -0.1396
    8SAPS  H12X 1044   1.647   2.816   9.186  0.0809 -0.7604  1.2404
    8SAPS  H12Y 1045   1.474   2.848   9.130  1.1156  2.6409  0.9863
    8SAPS  C313 1046   1.546   2.633   9.141  0.1620  0.7401 -0.0948
    8SAPS  H13X 1047   1.459   2.572   9.174  1.7393 -1.1550  0.7524
    8SAPS  H13Y 1048   1.633   2.593   9.198 -1.0287  1.2441  2.1879
    8SAPS  C314 1049   1.553   2.618   8.990 -0.5746 -0.4815  0.1131
    8SAPS  H14X 1050   1.558   2.509   8.967  0.3131 -0.4504  0.1137
    8SAPS  H14Y 1051   1.641   2.673   8.950 -1.9565  0.4453 -1.8185
    8SAPS  C315 1052   1.432   2.663   8.908 -0.3041  0.2053  0.0467
    8SAPS  H15X 1053   1.448   2.772   8.900  0.1353  0.2361  1.1395
    8SAPS  H15Y 1054   1.337   2.635   8.959  0.4267  0.5676  1.6973
    8SAPS  C316 1055   1.436   2.608   8.763  0.4592 -0.1539 -0.5988
    8SAPS  H16X 1056   1.344   2.644   8.712 -1.2558 -0.5985  1.9513
    8SAPS  H16Y 1057   1.428   2.498   8.775 -0.0785  0.1474  2.7349
    8SAPS  C317 1058   1.570   2.630   8.691  0.6337  0.0139 -0.1642
    8SAPS  H17X 1059   1.568   2.568   8.599 -0.0152  0.3847 -0.4116
    8SAPS  H17Y 1060   1.654   2.596   8.755  0.5737 -0.8552 -0.5279
    8SAPS  C318 1061   1.594   2.772   8.654 -0.8578  0.1356 -0.3082
    8SAPS  H18X 1062   1.513   2.825   8.599 -1.1916 -0.9684 -0.9069
    8SAPS  H18Y 1063   1.684   2.781   8.589 -0.2475  0.3353  0.5467
    8SAPS  H18Z 1064   1.613   2.835   8.744 -1.4926  0.2770 -0.2715
    9SAPS     N 1065   6.585   0.002   6.125  0.3173 -0.4633 -0.3295
    9SAPS   HN1 1066   6.652   0.069   6.167  2.9083 -1.5218 -2.4943
    9SAPS   HN2 1067   6.573  -0.082   6.185 -3.9501  0.2150  0.0493
    9SAPS   HN3 1068   6.614  -0.029   6.030 -0.8816 -1.9541 -0.2447
    9SAPS   C12 1069   6.444   0.068   6.102  0.0705 -0.3363  0.0471
    9SAPS  H12A 1070   6.398   0.068   6.199 -1.8991  1.0149 -0.8240
    9SAPS   C13 1071   6.431   0.216   6.057  0.2757  0.3552 -0.6146
    9SAPS  O13A 1072   6.533   0.286   6.039 -0.1816 -0.4538  0.7315
    9SAPS  O13B 1073   6.315   0.262   6.032 -0.0040 -0.2955  0.0276
    9SAPS   C11 1074   6.360  -0.024   6.005 -0.5267 -0.5136  0.4993
    9SAPS  H11A 1075   6.423  -0.040   5.915  1.3255  1.9271  1.2402
    9SAPS  H11B 1076   6.271   0.036   5.976 -1.2689 -1.2181  1.2736
    9SAPS     P 1077   6.206  -0.173   6.160  0.1784  0.4200  0.4630
    9SAPS   O13 1078   6.088  -0.107   6.093 -0.6566 -0.6508 -0.6016
    9SAPS   O14 1079   6.195  -0.317   6.189 -0.8983  0.0368  0.3016
    9SAPS   O12 1080   6.324  -0.153   6.058  0.9275  0.1476  0.4733
    9SAPS   O11 1081   6.256  -0.107   6.290  0.0653  0.3838 -0.4402
    9SAPS    C1 1082   6.168  -0.026   6.375 -0.0047 -0.2203  0.8409
    9SAPS    HA 1083   6.150   0.072   6.325  0.1090  0.4852  2.1388
    9SAPS    HB 1084   6.073  -0.080   6.395 -0.0255  0.9296  4.6923
    9SAPS    C2 1085   6.220   0.006   6.520 -0.4577 -0.6356 -0.0041
    9SAPS    HS 1086   6.169   0.093   6.565 -0.8212 -0.5853 -0.5076
    9SAPS   O21 1087   6.360   0.017   6.522  0.1375 -0.7259  0.0274
    9SAPS   C21 1088   6.405   0.143   6.516  0.0573 -0.3914 -0.3592
    9SAPS   O22 1089   6.335   0.240   6.506  0.3310  0.0338  0.0959
    9SAPS   C22 1090   6.551   0.148   6.551  0.2660  0.1131 -0.8916
    9SAPS   H2R 1091   6.601   0.049   6.545  0.5829  0.1103  1.0756
    9SAPS   H2S 1092   6.590   0.223   6.479 -1.2126  1.2828 -0.5247
    9SAPS    C3 1093   6.180  -0.109   6.611  0.4920 -0.4811  0.3752
    9SAPS    HX 1094   6.214  -0.207   6.571  2.3528  0.1348  0.3927
    9SAPS    HY 1095   6.071  -0.117   6.589  0.8859  1.4192 -2.8083
    9SAPS   O31 1096   6.215  -0.098   6.749 -0.1714 -0.2301  0.2211
    9SAPS   C31 1097   6.155  -0.008   6.832 -0.7372 -0.5945  0.5908
    9SAPS   O32 1098   6.071   0.070   6.793 -0.2924 -0.1970 -0.6156
    9SAPS   C32 1099   6.193  -0.027   6.976  0.3148  0.0118 -1.0366
    9SAPS   H2X 1100   6.301  -0.020   7.002  0.5657 -0.4571 -1.9285
    9SAPS   H2Y 1101   6.177  -0.131   7.011  0.4755  0.9720  2.3294
    9SAPS   C23 1102   6.582   0.202   6.694  0.4325  0.5365  0.4914
    9SAPS   H3R 1103   6.530   0.300   6.706  0.9770  1.5400 -3.6032
    9SAPS   H3S 1104   6.692   0.216   6.689  0.7150 -1.3463  1.0059
    9SAPS   C24 1105   6.549   0.094   6.801 -0.3737  0.2300  0.3483
    9SAPS   H4R 1106   6.602   0.001   6.770  1.6238  2.0310 -2.0959
    9SAPS   H4S 1107   6.440   0.078   6.798 -0.2910 -0.5583  1.2330
    9SAPS   C25 1108   6.598   0.122   6.944 -0.5751  0.7042  0.1762
    9SAPS   H5R 1109   6.656   0.038   6.986 -0.8398 -0.4340 -1.6381
    9SAPS   C26 1110   6.573   0.227   7.017 -0.3625 -0.1619 -0.0825
    9SAPS   H6R 1111   6.612   0.214   7.118  3.5809 -2.7609 -1.7103
    9SAPS   C27 1112   6.509   0.357   6.991 -0.9351 -0.5405 -0.8537
    9SAPS   H7R 1113   6.574   0.417   6.924  0.0011 -0.1843  0.3402
    9SAPS   H7S 1114   6.524   0.421   7.080 -1.0101 -0.0979 -1.1532
    9SAPS   C28 1115   6.364   0.357   6.957 -0.3016 -0.5528  0.0461
    9SAPS   H8R 1116   6.344   0.327   6.853 -0.0191 -0.3985 -0.0532
    9SAPS   C29 1117   6.265   0.397   7.042  0.0422 -0.3514  0.1299
    9SAPS   H9R 1118   6.157   0.389   7.024 -0.1881 -0.0053  1.2548
    9SAPS  C210 1119   6.278   0.438   7.188  0.2992 -0.9039 -0.1968
    9SAPS  H10R 1120   6.349   0.377   7.248  1.2320  2.0240  1.9609
    9SAPS  H10S 1121   6.173   0.436   7.224  0.4242  0.0085  0.2628
    9SAPS  C211 1122   6.317   0.586   7.198 -0.8798 -0.0063 -0.2872
    9SAPS  H11R 1123   6.406   0.608   7.137 -1.6362  0.4006 -1.2695
    9SAPS  C212 1124   6.253   0.697   7.256 -0.6699 -0.6191  0.2661
    9SAPS  H12R 1125   6.306   0.793   7.248 -0.5164 -0.7055  0.2339
    9SAPS  C213 1126   6.125   0.692   7.328  0.2058  0.0221  0.3137
    9SAPS  H13R 1127   6.101   0.588   7.359 -0.3776  0.5750  1.8298
    9SAPS  H13S 1128   6.040   0.723   7.263 -0.2351 -0.1104  0.8206
    9SAPS  C214 1129   6.111   0.786   7.445 -1.2643 -0.6437  0.3094
    9SAPS  H14R 1130   6.063   0.882   7.422 -1.7873 -0.9142  0.2678
    9SAPS  C215 1131   6.181   0.786   7.564 -0.0028  0.6290  0.2000
    9SAPS  H15R 1132   6.163   0.861   7.643  3.1733  0.4384  1.2330
    9SAPS  C216 1133   6.281   0.682   7.603 -0.0291 -0.6758 -0.0205
    9SAPS  H16R 1134   6.382   0.727   7.614  1.0638 -3.1973  1.1618
    9SAPS  H16S 1135   6.299   0.606   7.523  2.2266  0.7121 -0.9377
    9SAPS  C217 1136   6.254   0.608   7.734  0.0439  0.3492 -0.9682
    9SAPS  H17R 1137   6.352   0.575   7.776 -1.0968 -0.7567  0.9927
    9SAPS  H17S 1138   6.197   0.516   7.709 -1.3216  0.6519  0.8843
    9SAPS  C218 1139   6.174   0.671   7.848 -0.0229  0.0166 -0.4690
    9SAPS  H18R 1140   6.067   0.682   7.817 -0.3281 -2.1014 -0.2954
    9SAPS  H18S 1141   6.220   0.770   7.868  0.9363 -0.2913 -1.1032
    9SAPS  C219 1142   6.173   0.602   7.990 -0.1838  0.1390 -0.2536
    9SAPS  H19R 1143   6.104   0.661   8.054 -0.2424 -0.2955  0.0886
    9SAPS  H19S 1144   6.279   0.603   8.025  0.0007 -0.8978 -0.7386
    9SAPS  C220 1145   6.142   0.457   7.983  0.4476 -0.0212  0.5179
    9SAPS  H20R 1146   6.139   0.416   8.087 -1.2864 -1.2583  0.0328
    9SAPS  H20S 1147   6.219   0.392   7.937 -1.7291 -1.8308 -0.7539
    9SAPS  H20T 1148   6.049   0.430   7.929  1.0369  0.9559 -1.0520
    9SAPS   C33 1149   6.123   0.072   7.076 -0.4415  0.7306  0.9153
    9SAPS   H3X 1150   6.014   0.062   7.060 -0.7356  3.5313  0.6799
    9SAPS   H3Y 1151   6.154   0.171   7.038  1.3390 -0.3589 -0.6376
    9SAPS   C34 1152   6.170   0.052   7.219 -0.0060 -0.2555  0.0489
    9SAPS   H4X 1153   6.124   0.140   7.267 -1.2126 -0.7646 -0.1427
    9SAPS   H4Y 1154   6.279   0.063   7.240 -0.6609 -0.5041  4.5768
    9SAPS   C35 1155   6.122  -0.077   7.283  0.3358 -0.1603  0.3905
    9SAPS   H5X 1156   6.170  -0.164   7.233  1.4342 -0.4694  1.9176
    9SAPS   H5Y 1157   6.012  -0.093   7.277  0.4564 -1.3229  1.0059
    9SAPS   C36 1158   6.157  -0.081   7.428  0.3108 -0.6071  0.5030
    9SAPS   H6X 1159   6.127   0.004   7.493 -0.0174  0.4885 -1.0263
    9SAPS   H6Y 1160   6.267  -0.066   7.434  0.0512  0.9140  2.8772
    9SAPS   C37 1161   6.115  -0.208   7.515 -0.6347 -0.3086  0.3044
    9SAPS   H7X 1162   6.178  -0.297   7.491  1.9938  1.1467  1.3270
    9SAPS   H7Y 1163   6.007  -0.232   7.504 -0.5815 -1.0361  1.2303
    9SAPS   C38 1164   6.136  -0.165   7.666 -0.0549  0.3783  0.1629
    9SAPS   H8X 1165   6.057  -0.089   7.684  0.6030  1.1158  0.0519
    9SAPS   H8Y 1166   6.235  -0.114   7.677  0.3909  0.1308 -2.0861
    9SAPS   C39 1167   6.118  -0.283   7.762  0.2328 -0.2522 -0.0378
    9SAPS   H9X 1168   6.207  -0.349   7.756  0.8122  0.5830 -0.9351
    9SAPS   H9Y 1169   6.033  -0.333   7.711  0.3255 -1.0150  0.5343
    9SAPS  C310 1170   6.089  -0.236   7.911  0.5085  0.4940  1.2292
    9SAPS  H10X 1171   5.993  -0.180   7.907 -0.9132 -1.8784 -1.9013
    9SAPS  H10Y 1172   6.173  -0.166   7.931  2.8135 -1.2459 -1.4506
    9SAPS  C311 1173   6.075  -0.348   8.016 -0.1231 -0.5070 -0.2190
    9SAPS  H11X 1174   6.175  -0.387   8.044 -0.9309 -2.3208  0.3051
    9SAPS  H11Y 1175   6.009  -0.429   7.978 -2.0639  0.5742  0.6894
    9SAPS  C312 1176   6.008  -0.300   8.143 -0.5856 -0.6228 -0.3127
    9SAPS  H12X 1177   5.913  -0.253   8.108 -0.2807  1.3844  1.3355
    9SAPS  H12Y 1178   6.062  -0.213   8.186 -4.0140  2.6563 -1.9647
    9SAPS  C313 1179   5.988  -0.408   8.251  0.9260 -0.1773  0.6735
    9SAPS  H13X 1180   6.082  -0.459   8.282  1.5910  0.2239 -0.6384
    9SAPS  H13Y 1181   5.926  -0.489   8.206 -0.6257  1.6071 -0.5271
    9SAPS  C314 1182   5.928  -0.355   8.382  0.2187  0.1371  0.4161
    9SAPS  H14X 1183   5.832  -0.312   8.346 -0.5995 -0.2342  2.0781
    9SAPS  H14Y 1184   5.982  -0.269   8.428  1.6762 -0.9484  0.8196
    9SAPS  C315 1185   5.887  -0.468   8.481 -0.2623  0.5488 -0.1220
    9SAPS  H15X 1186   5.981  -0.504   8.529 -0.0859 -0.1778 -1.0000
    9SAPS  H15Y 1187   5.841  -0.550   8.423  0.5767 -0.2742  0.3429
    9SAPS  C316 1188   5.790  -0.428   8.586 -0.3544  0.1266 -0.0414
    9SAPS  H16X 1189   5.707  -0.370   8.539 -1.0523 -2.5162 -2.3282
    9SAPS  H16Y 1190   5.843  -0.358   8.653  0.1457 -1.4450  1.2822
    9SAPS  C317 1191   5.737  -0.544   8.656 -1.3003 -0.3397  0.6549
    9SAPS  H17X 1192   5.819  -0.598   8.710 -0.3867  0.0670 -0.2880
    9SAPS  H17Y 1193   5.719  -0.625   8.582  1.4147 -2.0083  1.6367
    9SAPS  C318 1194   5.618  -0.532   8.741  1.0934 -0.8832 -0.2821
    9SAPS  H18X 1195   5.544  -0.467   8.689  0.7395 -1.0848 -0.0342
    9SAPS  H18Y 1196   5.620  -0.480   8.838 -0.9242  0.7736 -1.0508
    9SAPS  H18Z 1197   5.572  -0.633   8.753 -0.2832 -0.1671  0.7128
   10SAPS     N 1198   6.311   6.359   6.357  0.3547 -0.3410 -0.1463
   10SAPS   HN1 1199   6.214   6.327   6.374  0.0376  0.6935  0.0751
   10SAPS   HN2 1200   6.359   6.375   6.448 -0.2468 -0.1179  0.1380
   10SAPS   HN3 1201   6.297   6.447   6.303 -0.7486 -0.7198 -0.5039
   10SAPS   C12 1202   6.380   6.272   6.259 -0.0878  0.1682 -0.1028
   10SAPS  H12A 1203   6.316   6.261   6.173 -0.1657 -0.1895  0.0024
   10SAPS   C13 1204   6.511   6.339   6.201 -0.4811  0.5661  0.2259
   10SAPS  O13A 1205   6.543   6.449   6.235  0.0529  0.4132  0.2394
   10SAPS  O13B 1206   6.573   6.272   6.114  0.0112 -0.3184  0.1354
   10SAPS   C11 1207   6.411   6.135   6.316  0.3641  0.1411  0.5340
   10SAPS  H11A 1208   6.475   6.147   6.406  2.2694  0.0083 -0.7423
   10SAPS  H11B 1209   6.462   6.079   6.234 -0.5088 -0.8392  0.6444
   10SAPS     P 1210   6.292   5.932   6.434 -0.6719 -0.1956  0.1764
   10SAPS   O13 1211   6.165   5.859   6.404  0.4597  0.7163  0.1727
   10SAPS   O14 1212   6.418   5.859   6.415  0.7899  0.1797 -0.7495
   10SAPS   O12 1213   6.292   6.065   6.354 -0.7250 -0.4295  0.3453
   10SAPS   O11 1214   6.284   5.992   6.581  1.2213  0.2856  0.5416
   10SAPS    C1 1215   6.187   6.092   6.618  0.2322 -0.4981  0.5303
   10SAPS    HA 1216   6.243   6.184   6.642  0.4991 -0.2586 -0.8857
   10SAPS    HB 1217   6.118   6.125   6.536  1.9431 -1.1009 -1.2371
   10SAPS    C2 1218   6.091   6.066   6.740  0.3572 -0.9439  0.2760
   10SAPS    HS 1219   6.024   6.154   6.754  3.4841  1.9583 -1.5640
   10SAPS   O21 1220   6.169   6.039   6.856  0.0198  0.1480  0.1844
   10SAPS   C21 1221   6.195   6.149   6.931 -0.2350  0.1065  1.3021
   10SAPS   O22 1222   6.137   6.255   6.926  0.1843 -0.6704  0.8166
   10SAPS   C22 1223   6.319   6.114   7.016 -0.0081 -0.0117 -0.5512
   10SAPS   H2R 1224   6.372   6.025   6.977  0.9139 -0.4658  1.5471
   10SAPS   H2S 1225   6.392   6.197   7.005  1.5476 -1.1901  0.3114
   10SAPS    C3 1226   6.000   5.945   6.723  0.0657 -0.1696 -0.0135
   10SAPS    HX 1227   6.055   5.851   6.701 -0.4003 -0.5255  0.3235
   10SAPS    HY 1228   5.939   5.961   6.632  1.6507 -1.0928 -1.2978
   10SAPS   O31 1229   5.921   5.925   6.841 -0.0855  0.2106  0.3346
   10SAPS   C31 1230   5.831   5.829   6.830  0.1170 -0.3892  0.0716
   10SAPS   O32 1231   5.804   5.772   6.728  0.1645 -0.2117  0.3509
   10SAPS   C32 1232   5.743   5.816   6.955 -0.3013  0.3596 -0.0264
   10SAPS   H2X 1233   5.661   5.750   6.920  1.3605 -1.9257  0.1251
   10SAPS   H2Y 1234   5.715   5.918   6.990  0.5717  0.0208  1.7907
   10SAPS   C23 1235   6.290   6.109   7.174  0.3873 -0.6111  0.8473
   10SAPS   H3R 1236   6.265   6.209   7.216 -0.7438 -0.9079  0.9249
   10SAPS   H3S 1237   6.382   6.071   7.224 -1.3262 -3.1581  2.3467
   10SAPS   C24 1238   6.169   6.010   7.208 -1.1252  0.0827  0.3173
   10SAPS   H4R 1239   6.087   6.040   7.139  0.6059  1.7023 -1.1497
   10SAPS   H4S 1240   6.138   6.020   7.314 -2.2947  0.7283 -0.0582
   10SAPS   C25 1241   6.199   5.866   7.166  0.8254  0.2568 -0.3197
   10SAPS   H5R 1242   6.196   5.843   7.059  0.8861  0.5837 -0.3921
   10SAPS   C26 1243   6.229   5.764   7.249 -0.3448 -0.5187  0.5589
   10SAPS   H6R 1244   6.248   5.663   7.209 -0.4640 -1.1187  1.9745
   10SAPS   C27 1245   6.243   5.783   7.395  0.3054 -0.4038 -0.0546
   10SAPS   H7R 1246   6.262   5.683   7.439  0.0858  0.1009  1.2204
   10SAPS   H7S 1247   6.148   5.821   7.437  0.1910 -1.1036  0.3411
   10SAPS   C28 1248   6.361   5.872   7.443  0.6340  0.3318  0.6836
   10SAPS   H8R 1249   6.435   5.884   7.363  1.2325 -0.3513  1.1170
   10SAPS   C29 1250   6.368   5.939   7.562 -0.1908  0.7882 -0.2626
   10SAPS   H9R 1251   6.449   6.011   7.581  2.3082 -1.3534 -2.0505
   10SAPS  C210 1252   6.272   5.935   7.680 -0.7055 -0.7114 -0.1701
   10SAPS  H10R 1253   6.319   5.879   7.763 -1.1392  2.1225  2.1367
   10SAPS  H10S 1254   6.176   5.889   7.649 -0.5622  0.0891 -1.9391
   10SAPS  C211 1255   6.239   6.081   7.717 -0.6504 -0.4557 -0.4322
   10SAPS  H11R 1256   6.234   6.148   7.630  1.6243  0.2311 -0.0984
   10SAPS  C212 1257   6.228   6.124   7.844 -0.3982 -0.0776 -0.3958
   10SAPS  H12R 1258   6.206   6.229   7.867 -0.3579 -0.1531 -0.0043
   10SAPS  C213 1259   6.250   6.025   7.958  0.3181  0.4465 -0.3439
   10SAPS  H13R 1260   6.342   5.965   7.945 -0.6760 -1.3937  0.6745
   10SAPS  H13S 1261   6.175   5.945   7.942  0.3511  0.5340 -0.9794
   10SAPS  C214 1262   6.220   6.087   8.090  0.4403  0.5287 -0.2955
   10SAPS  H14R 1263   6.130   6.053   8.143 -0.3909  0.3889 -1.7338
   10SAPS  C215 1264   6.305   6.175   8.144 -0.1407 -0.2072 -0.0500
   10SAPS  H15R 1265   6.269   6.220   8.238  0.7815  0.8829 -0.1958
   10SAPS  C216 1266   6.434   6.234   8.093  0.2060  0.1647 -0.1040
   10SAPS  H16R 1267   6.416   6.343   8.101 -3.7097 -0.4311  0.9561
   10SAPS  H16S 1268   6.455   6.204   7.988 -1.3419 -1.4170 -0.0181
   10SAPS  C217 1269   6.557   6.211   8.181 -0.7721 -0.5496 -0.2769
   10SAPS  H17R 1270   6.596   6.108   8.175 -2.1226 -1.0036 -2.5373
   10SAPS  H17S 1271   6.530   6.234   8.286 -1.8030 -1.1149 -0.4040
   10SAPS  C218 1272   6.674   6.309   8.140  0.2438 -0.2408 -1.1280
   10SAPS  H18R 1273   6.627   6.409   8.138  0.2262 -0.1716  0.8823
   10SAPS  H18S 1274   6.713   6.275   8.041 -3.4808  0.4729 -3.0009
   10SAPS  C219 1275   6.781   6.289   8.247 -0.2877  0.1404 -0.2037
   10SAPS  H19R 1276   6.827   6.188   8.237  0.5338  0.6075 -1.3322
   10SAPS  H19S 1277   6.728   6.307   8.343  1.6616 -0.4528  1.0513
   10SAPS  C220 1278   6.892   6.393   8.216  0.4515  0.6818  0.6641
   10SAPS  H20R 1279   6.927   6.434   8.314  0.5437  0.5623  0.6811
   10SAPS  H20S 1280   6.845   6.481   8.167 -1.5645 -0.4803  0.3948
   10SAPS  H20T 1281   6.976   6.358   8.153 -1.5352  0.1131 -1.8317
   10SAPS   C33 1282   5.819   5.745   7.079 -0.1137 -0.4567 -0.1712
   10SAPS   H3X 1283   5.913   5.804   7.087 -0.9649  0.8994  0.3231
   10SAPS   H3Y 1284   5.846   5.642   7.048  0.2201 -0.1626 -0.8846
   10SAPS   C34 1285   5.749   5.757   7.215 -0.0409 -0.0702  0.0112
   10SAPS   H4X 1286   5.681   5.669   7.211 -0.6094  0.3906 -0.4985
   10SAPS   H4Y 1287   5.680   5.843   7.223 -1.7711 -1.5622  3.5872
   10SAPS   C35 1288   5.826   5.754   7.339 -0.3277  0.6455 -0.5235
   10SAPS   H5X 1289   5.906   5.831   7.335  0.3128  0.0757  0.7247
   10SAPS   H5Y 1290   5.875   5.659   7.368 -1.2445  0.1422 -0.5840
   10SAPS   C36 1291   5.743   5.790   7.467  0.2485  0.3634  0.4156
   10SAPS   H6X 1292   5.670   5.708   7.486 -0.8384  1.3481  0.5705
   10SAPS   H6Y 1293   5.681   5.881   7.454 -2.1649 -0.7637  2.8430
   10SAPS   C37 1294   5.840   5.827   7.583  0.3624 -0.2702 -0.0910
   10SAPS   H7X 1295   5.894   5.919   7.551 -0.8817  0.6457  0.3999
   10SAPS   H7Y 1296   5.904   5.737   7.595  0.7338 -0.0241 -0.1988
   10SAPS   C38 1297   5.758   5.862   7.712  0.1211 -0.0101 -0.4740
   10SAPS   H8X 1298   5.706   5.780   7.766  1.1743  0.0342  0.6586
   10SAPS   H8Y 1299   5.679   5.937   7.691  1.7440  1.7874 -0.4878
   10SAPS   C39 1300   5.845   5.932   7.822  0.4272 -0.2388 -0.0129
   10SAPS   H9X 1301   5.897   6.020   7.778  1.1609  0.3186  1.8577
   10SAPS   H9Y 1302   5.931   5.866   7.845  0.7473 -0.1494 -0.9215
   10SAPS  C310 1303   5.765   5.994   7.936  0.1851  0.5497 -1.1777
   10SAPS  H10X 1304   5.704   5.915   7.984 -0.9805 -0.1830 -3.7209
   10SAPS  H10Y 1305   5.703   6.076   7.895  0.3094  0.3572 -1.7615
   10SAPS  C311 1306   5.854   6.050   8.044  0.3464  0.7338  0.4808
   10SAPS  H11X 1307   5.911   6.129   7.990 -0.4759  0.6723 -0.4966
   10SAPS  H11Y 1308   5.930   5.974   8.073 -0.7202 -0.0030  1.4396
   10SAPS  C312 1309   5.779   6.108   8.167  0.4714 -0.3009 -0.2386
   10SAPS  H12X 1310   5.849   6.129   8.252 -0.8659  0.2234  0.7690
   10SAPS  H12Y 1311   5.723   6.019   8.203  1.4416 -1.2467 -0.9847
   10SAPS  C313 1312   5.687   6.227   8.151 -0.2024  0.5391  0.0255
   10SAPS  H13X 1313   5.626   6.214   8.060 -0.6983 -3.0606  0.7420
   10SAPS  H13Y 1314   5.752   6.317   8.143 -1.2850  1.3708  0.3678
   10SAPS  C314 1315   5.583   6.238   8.258  0.2689 -0.5461 -0.6660
   10SAPS  H14X 1316   5.558   6.344   8.278  0.2732 -0.4675 -1.0793
   10SAPS  H14Y 1317   5.626   6.196   8.352 -1.4400  0.5225  0.6678
   10SAPS  C315 1318   5.453   6.162   8.226 -0.7972  1.1280 -0.1519
   10SAPS  H15X 1319   5.486   6.059   8.202 -2.4677  0.7991 -1.2168
   10SAPS  H15Y 1320   5.414   6.207   8.132 -1.8963 -1.8736 -1.2560
   10SAPS  C316 1321   5.346   6.172   8.323  0.4215 -0.5173 -0.1764
   10SAPS  H16X 1322   5.259   6.105   8.311  1.3143 -1.2286 -3.4648
   10SAPS  H16Y 1323   5.308   6.276   8.316 -0.3168 -0.7722 -0.0546
   10SAPS  C317 1324   5.399   6.143   8.467 -0.3465 -0.1056 -0.1467
   10SAPS  H17X 1325   5.318   6.173   8.537  0.1273  1.6156 -0.3005
   10SAPS  H17Y 1326   5.489   6.201   8.496 -0.7207  1.3631 -1.8094
   10SAPS  C318 1327   5.438   5.994   8.494  0.3576  0.0628 -0.5871
   10SAPS  H18X 1328   5.442   5.966   8.602 -1.4461  0.4038 -0.3920
   10SAPS  H18Y 1329   5.526   5.956   8.437  0.3770 -1.0923  0.1726
   10SAPS  H18Z 1330   5.348   5.939   8.459 -2.1092  2.1502  1.9822
   11SAPS     N 1331   0.217   2.806   5.555  0.1916 -0.4872  0.4918
   11SAPS   HN1 1332   0.195   2.866   5.472  2.9886 -1.9769 -1.5244
   11SAPS   HN2 1333   0.212   2.870   5.636 -2.2770  3.4595 -2.3854
   11SAPS   HN3 1334   0.311   2.763   5.542 -0.2697 -2.5954  3.3750
   11SAPS   C12 1335   0.126   2.683   5.556 -0.3618 -0.0333 -0.2700
   11SAPS  H12A 1336   0.039   2.706   5.615 -0.4845  0.4893 -0.6514
   11SAPS   C13 1337   0.075   2.653   5.410  0.0910 -0.3899  0.0766
   11SAPS  O13A 1338   0.119   2.728   5.318  0.2482 -0.1225  0.2783
   11SAPS  O13B 1339   0.019   2.538   5.391 -0.3672  0.6239  0.2403
   11SAPS   C11 1340   0.201   2.558   5.606 -0.4597 -0.7501 -0.7192
   11SAPS  H11A 1341   0.311   2.567   5.593 -0.5736 -1.5014 -2.5211
   11SAPS  H11B 1342   0.184   2.470   5.541 -2.3652 -1.0307  0.0859
   11SAPS     P 1343   0.253   2.416   5.811  0.1697 -0.0502  0.3208
   11SAPS   O13 1344   0.181   2.369   5.936  0.3697  0.4241  0.4194
   11SAPS   O14 1345   0.299   2.319   5.707  0.3948 -0.4481  0.1729
   11SAPS   O12 1346   0.161   2.527   5.745 -0.9374 -0.4822  0.0687
   11SAPS   O11 1347   0.381   2.490   5.857 -0.2655  0.5127  0.0088
   11SAPS    C1 1348   0.372   2.604   5.938  0.3053 -0.4157  0.6778
   11SAPS    HA 1349   0.473   2.650   5.939 -0.3211  1.0229  2.4063
   11SAPS    HB 1350   0.295   2.677   5.907  0.2840 -0.2838  1.0424
   11SAPS    C2 1351   0.335   2.574   6.085 -0.5037 -0.6562  0.6976
   11SAPS    HS 1352   0.230   2.542   6.103 -1.5301  2.5743  1.1689
   11SAPS   O21 1353   0.366   2.696   6.167  0.3441 -0.0978  0.0043
   11SAPS   C21 1354   0.269   2.786   6.171 -0.1374 -0.2567  0.0937
   11SAPS   O22 1355   0.162   2.768   6.116 -0.5951 -0.7330 -0.2778
   11SAPS   C22 1356   0.315   2.919   6.240 -0.8197  0.3865 -0.7099
   11SAPS   H2R 1357   0.426   2.926   6.238 -0.6637 -0.3615  1.7488
   11SAPS   H2S 1358   0.273   3.008   6.188  2.3646  1.1557 -2.2121
   11SAPS    C3 1359   0.414   2.454   6.143 -0.1895  0.8072  0.7705
   11SAPS    HX 1360   0.518   2.481   6.171  1.0827 -3.7262  1.2368
   11SAPS    HY 1361   0.423   2.376   6.064  0.8071 -0.0820  1.7329
   11SAPS   O31 1362   0.354   2.397   6.253  0.1247 -0.7350  0.1725
   11SAPS   C31 1363   0.412   2.289   6.305 -0.0453 -0.4907  0.8032
   11SAPS   O32 1364   0.515   2.228   6.267  0.8309 -0.1734  0.2119
   11SAPS   C32 1365   0.327   2.241   6.430 -0.3116 -0.2647  0.2295
   11SAPS   H2X 1366   0.234   2.201   6.387  0.3445 -1.6914  0.0951
   11SAPS   H2Y 1367   0.315   2.332   6.493 -1.4140 -0.3102  0.0981
   11SAPS   C23 1368   0.265   2.926   6.385  0.6715  0.1362 -0.3801
   11SAPS   H3R 1369   0.292   2.837   6.446  0.3173  0.7581  0.7231
   11SAPS   H3S 1370   0.155   2.941   6.390  0.3027 -2.4090  1.7909
   11SAPS   C24 1371   0.335   3.045   6.466 -0.1525  0.2370 -0.4416
   11SAPS   H4R 1372   0.444   3.030   6.452  0.1120  0.9279  0.7407
   11SAPS   H4S 1373   0.307   3.029   6.572  0.5761 -2.6393 -0.6077
   11SAPS   C25 1374   0.296   3.182   6.409  0.1537 -0.3184 -0.2562
   11SAPS   H5R 1375   0.363   3.230   6.335 -0.3512  0.3840 -0.2686
   11SAPS   C26 1376   0.194   3.266   6.457 -0.5281 -0.0392  0.9685
   11SAPS   H6R 1377   0.183   3.366   6.410 -0.9992 -1.0345 -1.1840
   11SAPS   C27 1378   0.105   3.238   6.572  0.4772 -0.1739 -0.3258
   11SAPS   H7R 1379   0.066   3.338   6.598 -0.1266  0.0723 -2.0286
   11SAPS   H7S 1380   0.179   3.210   6.649  0.2928 -1.5022 -0.6035
   11SAPS   C28 1381  -0.003   3.124   6.566 -0.0134 -0.6625 -0.2279
   11SAPS   H8R 1382   0.006   3.062   6.475  0.5150  1.0142 -1.3738
   11SAPS   C29 1383  -0.099   3.107   6.656 -1.1240  0.2890 -0.4303
   11SAPS   H9R 1384  -0.173   3.027   6.640 -1.5354  0.6902 -0.5628
   11SAPS  C210 1385  -0.124   3.194   6.780 -0.6789 -0.0274  0.8003
   11SAPS  H10R 1386  -0.175   3.285   6.742 -0.9862  0.1187  1.5378
   11SAPS  H10S 1387  -0.028   3.232   6.822 -0.6601  1.4627 -0.4934
   11SAPS  C211 1388  -0.213   3.127   6.883  0.4455 -0.1439 -0.0917
   11SAPS  H11R 1389  -0.306   3.085   6.842 -0.5191  1.2732  0.5715
   11SAPS  C212 1390  -0.193   3.116   7.013 -0.0076  0.3129  0.3609
   11SAPS  H12R 1391  -0.273   3.066   7.069 -0.2551 -0.4180 -0.6134
   11SAPS  C213 1392  -0.082   3.179   7.092 -0.3326 -0.3444  0.3586
   11SAPS  H13R 1393   0.009   3.148   7.035 -0.8124 -1.0292 -0.0497
   11SAPS  H13S 1394  -0.073   3.133   7.193 -2.1489  0.0806  0.7384
   11SAPS  C214 1395  -0.070   3.331   7.097  0.2075  0.4427 -0.3189
   11SAPS  H14R 1396  -0.142   3.386   7.033 -0.2662  0.2596  0.0521
   11SAPS  C215 1397   0.018   3.391   7.180  0.3146 -0.7506  0.4183
   11SAPS  H15R 1398   0.021   3.500   7.171  1.3386 -0.7983  0.0045
   11SAPS  C216 1399   0.119   3.320   7.272 -0.3907 -1.0911 -0.2918
   11SAPS  H16R 1400   0.222   3.361   7.261 -0.7166  0.3689  1.5329
   11SAPS  H16S 1401   0.129   3.211   7.252 -0.1628 -1.3570  1.1567
   11SAPS  C217 1402   0.073   3.326   7.415  0.2701 -0.2524 -0.1000
   11SAPS  H17R 1403  -0.027   3.280   7.428 -0.0134  0.7259  1.5822
   11SAPS  H17S 1404   0.065   3.429   7.457 -0.0591 -0.1773 -0.3484
   11SAPS  C218 1405   0.168   3.249   7.512 -0.8132  0.2399 -0.5444
   11SAPS  H18R 1406   0.162   3.290   7.615 -1.1738  2.1071 -1.2726
   11SAPS  H18S 1407   0.275   3.255   7.485 -0.7258 -0.6953 -0.4273
   11SAPS  C219 1408   0.127   3.104   7.527  0.4786  0.8876  1.0934
   11SAPS  H19R 1409   0.118   3.065   7.423  0.8756 -0.7419  1.6404
   11SAPS  H19S 1410   0.031   3.086   7.578  0.8206 -3.5337  0.6282
   11SAPS  C220 1411   0.225   3.021   7.599  0.2261 -0.4208 -0.1311
   11SAPS  H20R 1412   0.189   2.917   7.616  3.4202 -1.5548  0.3435
   11SAPS  H20S 1413   0.242   3.065   7.699  2.3788 -0.5372 -0.3872
   11SAPS  H20T 1414   0.323   3.017   7.546 -0.0408  2.6744 -1.0615
   11SAPS   C33 1415   0.395   2.119   6.502  1.0102 -0.3118  0.3378
   11SAPS   H3X 1416   0.440   2.045   6.432  2.2400 -0.3317  1.1152
   11SAPS   H3Y 1417   0.308   2.069   6.551  0.6355 -1.4670 -1.4237
   11SAPS   C34 1418   0.494   2.156   6.608  0.1442 -0.6751  0.2355
   11SAPS   H4X 1419   0.451   2.236   6.671 -0.0049 -1.6076  1.3534
   11SAPS   H4Y 1420   0.592   2.185   6.566 -1.4290  2.6940 -1.4305
   11SAPS   C35 1421   0.508   2.037   6.709  0.4928  0.2527  0.0118
   11SAPS   H5X 1422   0.527   1.947   6.647 -0.0932  0.2531 -0.1755
   11SAPS   H5Y 1423   0.417   2.017   6.768  0.3989 -0.6525 -0.4351
   11SAPS   C36 1424   0.627   2.073   6.806  1.0656 -0.1776 -0.3836
   11SAPS   H6X 1425   0.712   2.121   6.753  0.0978  2.1280  0.0306
   11SAPS   H6Y 1426   0.664   1.983   6.859 -0.7284 -0.6833  0.0616
   11SAPS   C37 1427   0.587   2.176   6.916  0.1450 -0.6566  0.5745
   11SAPS   H7X 1428   0.489   2.140   6.954 -0.4441 -0.0639 -0.3359
   11SAPS   H7Y 1429   0.561   2.272   6.866  0.8326 -0.0922  1.2636
   11SAPS   C38 1430   0.699   2.211   7.017  0.3477  0.3432 -0.8526
   11SAPS   H8X 1431   0.782   2.266   6.967 -1.3310  3.3282 -0.6209
   11SAPS   H8Y 1432   0.741   2.115   7.053 -0.7840  0.6287  1.3479
   11SAPS   C39 1433   0.648   2.277   7.139 -0.0707  0.1957  0.0972
   11SAPS   H9X 1434   0.574   2.215   7.194  1.1583 -0.8829  0.5877
   11SAPS   H9Y 1435   0.597   2.371   7.110  1.5347  0.7872 -0.9465
   11SAPS  C310 1436   0.763   2.318   7.231 -0.4569  0.2242  0.0930
   11SAPS  H10X 1437   0.835   2.386   7.181 -1.5755  0.7758 -0.8128
   11SAPS  H10Y 1438   0.813   2.222   7.260 -0.0379  0.3349 -0.2505
   11SAPS  C311 1439   0.737   2.385   7.368 -0.7757 -0.6632 -0.4057
   11SAPS  H11X 1440   0.838   2.420   7.399 -0.4837 -1.6950 -0.1476
   11SAPS  H11Y 1441   0.695   2.316   7.445 -1.7028  1.3982  1.0005
   11SAPS  C312 1442   0.645   2.516   7.362  0.4375  0.2777  0.3624
   11SAPS  H12X 1443   0.552   2.489   7.307  0.4066  1.1147 -0.0107
   11SAPS  H12Y 1444   0.707   2.594   7.314  0.6584 -0.5383 -0.7057
   11SAPS  C313 1445   0.597   2.572   7.498 -0.2915 -0.2331  0.3708
   11SAPS  H13X 1446   0.671   2.614   7.569 -1.0379 -1.3233  1.8681
   11SAPS  H13Y 1447   0.559   2.481   7.550 -1.7450 -0.4122 -0.9358
   11SAPS  C314 1448   0.469   2.663   7.491  0.0541  0.6974  0.5078
   11SAPS  H14X 1449   0.409   2.630   7.404  0.6608 -0.3331  0.4571
   11SAPS  H14Y 1450   0.513   2.759   7.459 -2.3989  1.1767 -1.7585
   11SAPS  C315 1451   0.389   2.667   7.624 -0.5562 -0.1758  0.1253
   11SAPS  H15X 1452   0.367   2.561   7.651 -0.0287 -0.0260  1.1925
   11SAPS  H15Y 1453   0.293   2.721   7.609 -0.2826 -0.2284 -2.2688
   11SAPS  C316 1454   0.461   2.722   7.749 -0.0451  0.3820  0.1980
   11SAPS  H16X 1455   0.476   2.828   7.720  2.3583 -0.3045 -1.4656
   11SAPS  H16Y 1456   0.557   2.673   7.775  1.1531  1.6389 -1.5992
   11SAPS  C317 1457   0.378   2.724   7.876  0.8988  0.2304 -0.6236
   11SAPS  H17X 1458   0.352   2.618   7.897 -0.2885  0.3979 -1.1762
   11SAPS  H17Y 1459   0.292   2.793   7.863 -2.1086 -3.0478  0.2238
   11SAPS  C318 1460   0.465   2.766   7.994  0.1152 -0.1958  0.2343
   11SAPS  H18X 1461   0.542   2.686   7.999 -0.6114 -0.9469 -0.2552
   11SAPS  H18Y 1462   0.402   2.764   8.085 -2.7689  0.8058 -1.5680
   11SAPS  H18Z 1463   0.505   2.868   7.973 -0.3652 -0.5600 -2.9488
   12SAPS     N 1464   0.617   4.279   5.945  0.8710  0.3460  0.2155
   12SAPS   HN1 1465   0.703   4.262   5.891  2.0793  3.1421  1.0738
   12SAPS   HN2 1466   0.652   4.274   6.043  1.7238  0.7568 -0.0604
   12SAPS   HN3 1467   0.558   4.198   5.915  0.1351  1.2831 -0.9635
   12SAPS   C12 1468   0.563   4.408   5.897 -0.2099 -0.2523 -0.0278
   12SAPS  H12A 1469   0.635   4.478   5.936  0.8114 -0.3891 -1.5774
   12SAPS   C13 1470   0.570   4.416   5.738 -0.6058  0.5669 -0.2477
   12SAPS  O13A 1471   0.628   4.323   5.672  0.5430 -0.1524 -0.2756
   12SAPS  O13B 1472   0.505   4.509   5.680 -0.3404 -0.1562  0.2934
   12SAPS   C11 1473   0.424   4.435   5.956  0.2203 -0.6728 -0.0980
   12SAPS  H11A 1474   0.353   4.367   5.905  1.5718 -2.9746  0.9312
   12SAPS  H11B 1475   0.391   4.538   5.928  2.0322  0.4507  1.6316
   12SAPS     P 1476   0.276   4.387   6.169 -0.0931 -0.3178  0.0047
   12SAPS   O13 1477   0.169   4.376   6.069  0.2834 -0.5081 -0.2548
   12SAPS   O14 1478   0.304   4.271   6.261 -0.5657  0.2949  0.0008
   12SAPS   O12 1479   0.418   4.426   6.098  0.2343 -1.3472  0.1287
   12SAPS   O11 1480   0.247   4.513   6.262  0.6419  0.3583  0.0779
   12SAPS    C1 1481   0.343   4.579   6.344  0.3805 -0.6877  0.4589
   12SAPS    HA 1482   0.446   4.549   6.314  0.0550 -1.6077  0.2348
   12SAPS    HB 1483   0.330   4.686   6.317  0.8084 -0.3754  1.4450
   12SAPS    C2 1484   0.328   4.568   6.497 -0.5277 -0.4145  0.6581
   12SAPS    HS 1485   0.404   4.635   6.543  1.6379 -1.8946 -0.5956
   12SAPS   O21 1486   0.340   4.437   6.542  0.4592  0.3003  0.1271
   12SAPS   C21 1487   0.461   4.382   6.526 -0.6659  0.3252 -0.1835
   12SAPS   O22 1488   0.565   4.436   6.493  0.0421  0.4888  0.4452
   12SAPS   C22 1489   0.452   4.232   6.562  0.0276  0.4865  0.4712
   12SAPS   H2R 1490   0.370   4.221   6.636 -1.5288  1.1441 -1.0866
   12SAPS   H2S 1491   0.438   4.167   6.472  0.1314 -1.2883  1.6904
   12SAPS    C3 1492   0.186   4.620   6.531  0.0041 -0.4545  0.2710
   12SAPS    HX 1493   0.116   4.552   6.478 -2.1030  1.4535  0.4647
   12SAPS    HY 1494   0.164   4.717   6.482  0.1171  0.3830  1.7999
   12SAPS   O31 1495   0.153   4.641   6.667  0.4651  0.5476  0.4094
   12SAPS   C31 1496   0.120   4.528   6.729  0.2570  0.8328  0.4901
   12SAPS   O32 1497   0.113   4.419   6.672  0.0854  0.5897 -0.6416
   12SAPS   C32 1498   0.113   4.544   6.873 -0.2340  0.2711  0.4262
   12SAPS   H2X 1499   0.078   4.647   6.897  1.7942  0.9808  0.5069
   12SAPS   H2Y 1500   0.214   4.531   6.918  0.4941  2.1444 -0.5737
   12SAPS   C23 1501   0.582   4.179   6.638  0.7790  0.1767  0.4844
   12SAPS   H3R 1502   0.667   4.204   6.571  0.1868 -0.7715 -0.6521
   12SAPS   H3S 1503   0.556   4.071   6.637  2.2564 -0.1946 -0.8403
   12SAPS   C24 1504   0.601   4.226   6.781 -0.0977  0.0957 -0.4560
   12SAPS   H4R 1505   0.506   4.237   6.836  0.7782 -1.2084  1.3948
   12SAPS   H4S 1506   0.634   4.332   6.779  0.5597 -0.1049 -1.1828
   12SAPS   C25 1507   0.692   4.121   6.844  0.1256 -0.5657  0.1468
   12SAPS   H5R 1508   0.780   4.107   6.778 -0.6815 -1.2422 -0.8203
   12SAPS   C26 1509   0.678   4.052   6.961  0.0884  0.4076  0.3124
   12SAPS   H6R 1510   0.759   3.982   6.985 -0.2517  0.8240  2.9428
   12SAPS   C27 1511   0.555   4.061   7.050  0.6583  0.0074  0.1070
   12SAPS   H7R 1512   0.533   3.961   7.092 -1.2188  0.6492  0.7294
   12SAPS   H7S 1513   0.472   4.081   6.979 -1.3021 -0.1339  2.2427
   12SAPS   C28 1514   0.539   4.159   7.164 -0.2291 -0.4804 -0.2392
   12SAPS   H8R 1515   0.450   4.225   7.162 -0.3245 -0.5473 -3.5004
   12SAPS   C29 1516   0.607   4.152   7.274 -0.3291 -0.1628 -0.1144
   12SAPS   H9R 1517   0.591   4.231   7.349  2.9655 -0.6510  1.2570
   12SAPS  C210 1518   0.707   4.043   7.315  0.5431 -0.0011  0.3588
   12SAPS  H10R 1519   0.790   4.101   7.363 -0.2911  0.6156  1.0822
   12SAPS  H10S 1520   0.751   3.984   7.232  0.9120 -0.0395  0.5766
   12SAPS  C211 1521   0.639   3.946   7.401  0.1634  0.1877  0.1590
   12SAPS  H11R 1522   0.537   3.913   7.375  0.1900  0.2395 -0.0133
   12SAPS  C212 1523   0.700   3.888   7.509 -0.8041 -0.2084 -0.4828
   12SAPS  H12R 1524   0.654   3.812   7.575  0.7033 -0.4832  0.2888
   12SAPS  C213 1525   0.844   3.913   7.547 -1.0672 -0.2717 -0.2451
   12SAPS  H13R 1526   0.872   4.014   7.509  0.2524 -0.5120  0.0489
   12SAPS  H13S 1527   0.905   3.849   7.480  0.7361  1.2431 -0.1633
   12SAPS  C214 1528   0.888   3.906   7.693 -0.9570  0.1987  1.0552
   12SAPS  H14R 1529   0.936   3.995   7.736 -0.7839  0.5429  0.1602
   12SAPS  C215 1530   0.883   3.791   7.763  0.4141  0.4187  0.5137
   12SAPS  H15R 1531   0.912   3.794   7.869 -0.1920 -1.1495  0.7583
   12SAPS  C216 1532   0.835   3.654   7.729  0.4570  0.1798  0.4956
   12SAPS  H16R 1533   0.825   3.635   7.620  0.5690  1.1865  0.2954
   12SAPS  H16S 1534   0.731   3.655   7.769  0.6739 -1.8425  1.2106
   12SAPS  C217 1535   0.918   3.541   7.798  0.1648 -0.5858  0.4149
   12SAPS  H17R 1536   0.858   3.448   7.804  3.0560 -3.0239 -3.3766
   12SAPS  H17S 1537   0.950   3.577   7.898 -4.0363 -0.4618  1.8713
   12SAPS  C218 1538   1.025   3.497   7.701 -0.3031 -0.1329  0.1261
   12SAPS  H18R 1539   1.107   3.572   7.689  0.0171 -0.6796 -1.4727
   12SAPS  H18S 1540   0.979   3.506   7.600 -0.7597 -1.1082  0.2409
   12SAPS  C219 1541   1.065   3.352   7.733 -0.3873 -0.0274  0.3663
   12SAPS  H19R 1542   1.138   3.319   7.656 -1.5913 -0.6631 -0.5526
   12SAPS  H19S 1543   0.981   3.278   7.729 -1.4323  1.1603 -0.5833
   12SAPS  C220 1544   1.154   3.328   7.859  0.3393  0.5476  0.2908
   12SAPS  H20R 1545   1.173   3.220   7.873 -0.2238  0.2258 -1.2593
   12SAPS  H20S 1546   1.110   3.376   7.949 -2.8709  0.7261 -1.2293
   12SAPS  H20T 1547   1.257   3.362   7.833  0.3223  0.4047  0.0368
   12SAPS   C33 1548   0.007   4.446   6.935  0.5085  0.0124  0.4967
   12SAPS   H3X 1549   0.050   4.344   6.944 -0.0235 -0.1192  2.0100
   12SAPS   H3Y 1550  -0.081   4.444   6.867  1.4089  2.3296 -0.8303
   12SAPS   C34 1551  -0.027   4.503   7.077 -0.3966  0.2015 -0.4055
   12SAPS   H4X 1552  -0.118   4.452   7.117  0.5819  0.9245  2.9907
   12SAPS   H4Y 1553  -0.045   4.609   7.052  0.0834  0.1002 -1.2336
   12SAPS   C35 1554   0.088   4.478   7.181  0.4097  0.4174 -0.4639
   12SAPS   H5X 1555   0.169   4.548   7.154 -0.4628  0.5263 -3.0647
   12SAPS   H5Y 1556   0.127   4.377   7.156  0.9377  0.5165 -0.0565
   12SAPS   C36 1557   0.054   4.509   7.322  0.2244 -0.4780  0.5190
   12SAPS   H6X 1558   0.139   4.474   7.385 -0.4044  0.0985  1.7290
   12SAPS   H6Y 1559  -0.041   4.459   7.348  0.1633 -1.5198 -1.5035
   12SAPS   C37 1560   0.044   4.667   7.349  0.0091  0.6679  0.8712
   12SAPS   H7X 1561  -0.053   4.708   7.312 -0.8437 -0.8978  1.2813
   12SAPS   H7Y 1562   0.138   4.706   7.305  0.5365 -1.6152 -0.2129
   12SAPS   C38 1563   0.040   4.686   7.501 -0.6236 -0.6488 -0.3514
   12SAPS   H8X 1564   0.011   4.790   7.529  0.0140 -0.3587 -0.7489
   12SAPS   H8Y 1565   0.139   4.668   7.548 -0.3506 -0.1319 -0.7229
   12SAPS   C39 1566  -0.057   4.590   7.582 -0.0906 -0.5051  0.3311
   12SAPS   H9X 1567  -0.034   4.484   7.556 -1.8270 -0.8828  0.2176
   12SAPS   H9Y 1568  -0.161   4.623   7.564  0.1412  1.5455  2.3127
   12SAPS  C310 1569  -0.035   4.623   7.734  0.6210 -0.1229  0.0879
   12SAPS  H10X 1570  -0.028   4.733   7.748  1.1559 -0.2067  0.5561
   12SAPS  H10Y 1571   0.057   4.576   7.776  0.3731 -0.5726  0.1318
   12SAPS  C311 1572  -0.141   4.561   7.826  0.2158 -0.0964  0.3301
   12SAPS  H11X 1573  -0.145   4.452   7.803 -2.4355 -0.0750  0.2978
   12SAPS  H11Y 1574  -0.245   4.599   7.811  0.3536  0.1924  0.1084
   12SAPS  C312 1575  -0.097   4.579   7.978 -0.0234  0.5284  0.7184
   12SAPS  H12X 1576   0.009   4.549   7.992 -0.4316 -1.3424  0.0643
   12SAPS  H12Y 1577  -0.158   4.505   8.034  0.8937 -1.4453 -0.7729
   12SAPS  C313 1578  -0.098   4.717   8.041 -0.2804  0.2333 -0.0506
   12SAPS  H13X 1579  -0.201   4.758   8.043 -0.0686  0.8327 -0.8506
   12SAPS  H13Y 1580  -0.039   4.779   7.971 -0.0400 -1.6007 -1.5538
   12SAPS  C314 1581  -0.033   4.722   8.176 -0.1542 -0.0463 -0.4539
   12SAPS  H14X 1582   0.074   4.699   8.162 -0.4459 -1.3778 -0.6792
   12SAPS  H14Y 1583  -0.084   4.643   8.235  0.9719  0.0562  0.6853
   12SAPS  C315 1584  -0.043   4.863   8.236 -0.5665 -0.1723 -0.1237
   12SAPS  H15X 1585  -0.148   4.897   8.248 -0.6973 -0.3159 -0.8452
   12SAPS  H15Y 1586  -0.008   4.932   8.156  0.2413 -1.2291 -0.7128
   12SAPS  C316 1587   0.045   4.886   8.357  0.3983 -0.1521 -0.5675
   12SAPS  H16X 1588   0.137   4.824   8.350  0.0648 -0.9310  1.2625
   12SAPS  H16Y 1589  -0.006   4.866   8.454 -2.4133  1.5952 -1.5434
   12SAPS  C317 1590   0.079   5.035   8.367 -0.3986 -0.2173  0.1352
   12SAPS  H17X 1591  -0.002   5.090   8.419  1.2557  3.6808 -1.0334
   12SAPS  H17Y 1592   0.080   5.078   8.265 -4.7871  0.3173  0.1259
   12SAPS  C318 1593   0.212   5.052   8.446 -0.1197 -0.4672 -0.1609
   12SAPS  H18X 1594   0.254   5.155   8.443  1.3573 -0.8608  3.0793
   12SAPS  H18Y 1595   0.298   4.992   8.407  0.9547 -0.2975  1.7945
   12SAPS  H18Z 1596   0.200   5.017   8.550  0.7571 -1.4177 -0.3618
   13SAPS     N 1597   2.359   0.354   5.981 -0.7003  0.2878 -0.7211
   13SAPS   HN1 1598   2.422   0.435   5.960  0.7961 -0.1873  1.4958
   13SAPS   HN2 1599   2.260   0.384   5.986 -0.7388  0.3162 -1.5783
   13SAPS   HN3 1600   2.396   0.309   6.067 -0.2691 -0.6982 -1.4099
   13SAPS   C12 1601   2.361   0.259   5.872  0.4767  0.0108  0.0065
   13SAPS  H12A 1602   2.256   0.239   5.856  0.6684 -1.5609  0.5451
   13SAPS   C13 1603   2.430   0.302   5.738 -0.0460  0.2728  0.0479
   13SAPS  O13A 1604   2.531   0.377   5.738  0.1598  0.6404  0.3352
   13SAPS  O13B 1605   2.396   0.224   5.641 -0.0853  0.2604 -0.3310
   13SAPS   C11 1606   2.420   0.126   5.927 -0.0708  1.0997 -0.3973
   13SAPS  H11A 1607   2.530   0.140   5.933 -0.2609  2.0007  1.5730
   13SAPS  H11B 1608   2.392   0.056   5.845 -2.3120  1.5660 -0.0723
   13SAPS     P 1609   2.393  -0.066   6.096  0.4274 -0.3873 -0.2940
   13SAPS   O13 1610   2.334  -0.156   5.992 -0.1864  0.3170 -0.3655
   13SAPS   O14 1611   2.539  -0.082   6.102  0.0200 -0.2177  0.2979
   13SAPS   O12 1612   2.366   0.078   6.052  0.2392  0.0295  0.1714
   13SAPS   O11 1613   2.337  -0.096   6.241  0.2688  0.3547 -0.0339
   13SAPS    C1 1614   2.227  -0.024   6.294 -0.5643 -0.3967 -0.2393
   13SAPS    HA 1615   2.149  -0.010   6.216 -0.5322  1.3420  0.0032
   13SAPS    HB 1616   2.181  -0.096   6.365 -0.3551 -0.6598 -0.3672
   13SAPS    C2 1617   2.284   0.105   6.367 -0.0204  0.3676 -0.7703
   13SAPS    HS 1618   2.343   0.161   6.292  1.0167  1.9787  1.1289
   13SAPS   O21 1619   2.364   0.076   6.481  0.0232  0.6183  0.2900
   13SAPS   C21 1620   2.429   0.178   6.540  1.2185 -0.4546 -0.1840
   13SAPS   O22 1621   2.428   0.294   6.498  0.3404  0.5065 -0.1845
   13SAPS   C22 1622   2.480   0.136   6.676 -0.9217 -0.5301  0.5204
   13SAPS   H2R 1623   2.415   0.057   6.719 -2.6183 -0.0544 -1.0318
   13SAPS   H2S 1624   2.580   0.093   6.655 -0.5957  0.8080 -0.8251
   13SAPS    C3 1625   2.162   0.201   6.407 -0.5205  0.0221  0.1400
   13SAPS    HX 1626   2.092   0.205   6.320 -0.8419  1.6987  0.4432
   13SAPS    HY 1627   2.204   0.304   6.406  1.5730 -0.7759  0.8743
   13SAPS   O31 1628   2.113   0.166   6.533  0.2045  0.1037  0.6842
   13SAPS   C31 1629   1.992   0.106   6.528 -0.3134  0.4289  0.3607
   13SAPS   O32 1630   1.937   0.078   6.427 -0.2479  0.0596 -0.0401
   13SAPS   C32 1631   1.946   0.064   6.667  0.0762 -0.6518  0.1207
   13SAPS   H2X 1632   1.984  -0.037   6.693  1.0702 -0.0024  1.3183
   13SAPS   H2Y 1633   1.836   0.049   6.658  0.1172 -1.0847  0.3311
   13SAPS   C23 1634   2.481   0.259   6.769 -0.3104 -0.6492 -0.3973
   13SAPS   H3R 1635   2.374   0.281   6.785  0.0501 -0.0600  1.4757
   13SAPS   H3S 1636   2.517   0.350   6.717 -0.7082  0.6706  1.5275
   13SAPS   C24 1637   2.551   0.232   6.900 -0.1690 -0.2006 -0.3709
   13SAPS   H4R 1638   2.576   0.331   6.945 -1.3786  0.3720 -0.9041
   13SAPS   H4S 1639   2.644   0.177   6.874 -0.8065 -0.7562 -1.5650
   13SAPS   C25 1640   2.479   0.145   6.995  0.1749 -0.1725  0.1180
   13SAPS   H5R 1641   2.480   0.036   6.978  0.5720 -0.1067 -0.2829
   13SAPS   C26 1642   2.415   0.193   7.100  0.2555 -0.6442 -0.1707
   13SAPS   H6R 1643   2.364   0.131   7.176 -1.9633  2.1591  0.7903
   13SAPS   C27 1644   2.402   0.330   7.148 -0.8311 -0.2506  0.6908
   13SAPS   H7R 1645   2.320   0.331   7.223 -2.1297 -0.3909 -0.7007
   13SAPS   H7S 1646   2.379   0.392   7.059  0.5633 -1.3179 -0.4688
   13SAPS   C28 1647   2.537   0.375   7.211  0.1196 -0.0355 -0.9297
   13SAPS   H8R 1648   2.621   0.355   7.143  1.3278  0.4760  0.3733
   13SAPS   C29 1649   2.551   0.423   7.336  0.2658 -0.6460 -0.0249
   13SAPS   H9R 1650   2.641   0.478   7.368  1.4079 -1.5761 -1.4850
   13SAPS  C210 1651   2.439   0.452   7.433 -0.1083 -0.0759 -0.5118
   13SAPS  H10R 1652   2.341   0.472   7.385 -0.5838  1.9675  1.1910
   13SAPS  H10S 1653   2.476   0.544   7.481  0.3345 -1.5363  2.1271
   13SAPS  C211 1654   2.433   0.342   7.537 -0.1584 -0.6094 -0.2761
   13SAPS  H11R 1655   2.436   0.239   7.498  4.7347 -1.8623  2.5944
   13SAPS  C212 1656   2.456   0.358   7.669  0.0402 -0.0511  0.9765
   13SAPS  H12R 1657   2.450   0.270   7.734  2.0274 -1.0159 -0.0536
   13SAPS  C213 1658   2.466   0.482   7.746  0.0795 -0.2100  0.2480
   13SAPS  H13R 1659   2.550   0.540   7.700 -1.6898  3.0852  0.8640
   13SAPS  H13S 1660   2.490   0.461   7.852  0.2735  0.3270  0.3148
   13SAPS  C214 1661   2.343   0.574   7.735 -0.3556  0.3140 -0.9576
   13SAPS  H14R 1662   2.287   0.556   7.642 -0.5913  0.8394 -0.9160
   13SAPS  C215 1663   2.313   0.681   7.819 -0.1427  0.2074  0.2969
   13SAPS  H15R 1664   2.213   0.726   7.819 -0.4775 -0.5134  0.8394
   13SAPS  C216 1665   2.399   0.709   7.937 -0.1217 -0.6394  0.1496
   13SAPS  H16R 1666   2.397   0.818   7.961  0.9301 -0.6560  0.3713
   13SAPS  H16S 1667   2.503   0.676   7.918  0.0645  0.9843 -2.1486
   13SAPS  C217 1668   2.359   0.648   8.074  0.2240 -0.1173  0.1314
   13SAPS  H17R 1669   2.347   0.538   8.069  1.5789 -0.5073  3.1425
   13SAPS  H17S 1670   2.262   0.694   8.103  1.8222  2.6713  1.5506
   13SAPS  C218 1671   2.444   0.679   8.195 -0.2581 -0.1369  0.0057
   13SAPS  H18R 1672   2.486   0.782   8.189  0.9343 -0.6767 -1.8933
   13SAPS  H18S 1673   2.525   0.603   8.199 -1.5030 -1.5332 -0.4745
   13SAPS  C219 1674   2.360   0.662   8.322 -0.1969 -0.0315  1.0267
   13SAPS  H19R 1675   2.318   0.559   8.332 -1.5800  0.2683 -0.9707
   13SAPS  H19S 1676   2.278   0.736   8.318 -3.2034 -3.0504 -3.7592
   13SAPS  C220 1677   2.440   0.683   8.448  0.2729 -0.2392 -0.4111
   13SAPS  H20R 1678   2.483   0.785   8.440 -2.7069  1.2966  1.1702
   13SAPS  H20S 1679   2.507   0.595   8.459 -1.2856 -1.5196 -0.7210
   13SAPS  H20T 1680   2.372   0.688   8.536  0.6519 -0.6236 -0.0942
   13SAPS   C33 1681   1.987   0.158   6.783 -0.0855  0.1839  0.0484
   13SAPS   H3X 1682   1.935   0.252   6.755  1.3247  0.3106 -2.4549
   13SAPS   H3Y 1683   2.097   0.172   6.789 -0.2273  1.2050  0.4793
   13SAPS   C34 1684   1.939   0.100   6.917  0.7422  0.0330 -0.5240
   13SAPS   H4X 1685   1.980  -0.002   6.933  1.7390  0.6064  0.7538
   13SAPS   H4Y 1686   1.829   0.086   6.931  0.9530 -1.3791 -0.0891
   13SAPS   C35 1687   2.004   0.177   7.034  0.2355  0.5612 -0.7237
   13SAPS   H5X 1688   1.956   0.277   7.026  0.3316  0.4784 -2.8242
   13SAPS   H5Y 1689   2.113   0.188   7.018  0.7697 -0.5454  1.7330
   13SAPS   C36 1690   1.976   0.117   7.178  0.2304 -0.6553  0.4332
   13SAPS   H6X 1691   2.003   0.009   7.171 -0.4848 -0.7355 -1.6850
   13SAPS   H6Y 1692   1.867   0.110   7.200  0.0907 -0.2742 -0.1292
   13SAPS   C37 1693   2.064   0.170   7.285 -0.5611 -0.7898 -1.0907
   13SAPS   H7X 1694   2.014   0.266   7.313 -1.4833 -1.7811  0.8483
   13SAPS   H7Y 1695   2.170   0.180   7.252 -0.3126 -1.0619 -0.3869
   13SAPS   C38 1696   2.058   0.082   7.416 -0.1224  0.2473  0.4974
   13SAPS   H8X 1697   2.091  -0.023   7.399  0.9334  0.1929  2.6122
   13SAPS   H8Y 1698   1.952   0.095   7.448 -0.1800  0.6812  0.1406
   13SAPS   C39 1699   2.154   0.125   7.529 -0.2232 -0.0011 -0.4470
   13SAPS   H9X 1700   2.149   0.235   7.545 -0.2271 -0.3139  1.9673
   13SAPS   H9Y 1701   2.261   0.101   7.508 -0.3738 -1.1909  0.0739
   13SAPS  C310 1702   2.116   0.059   7.666 -0.1524 -0.0987  0.8569
   13SAPS  H10X 1703   2.133  -0.051   7.653 -1.6776 -0.1677 -1.0325
   13SAPS  H10Y 1704   2.008   0.085   7.666  0.0468  0.8438 -0.4734
   13SAPS  C311 1705   2.171   0.108   7.794 -0.0083 -0.8613 -0.2416
   13SAPS  H11X 1706   2.282   0.103   7.787  0.0254 -0.7006  0.1278
   13SAPS  H11Y 1707   2.157   0.037   7.878  0.2240  1.2771  1.7001
   13SAPS  C312 1708   2.130   0.245   7.848 -0.3093 -0.0027  0.5886
   13SAPS  H12X 1709   2.027   0.260   7.887 -0.6210 -1.4404  0.3700
   13SAPS  H12Y 1710   2.144   0.317   7.765 -0.4877 -1.7783 -1.0512
   13SAPS  C313 1711   2.219   0.309   7.956  0.2639 -0.1581  1.1749
   13SAPS  H13X 1712   2.205   0.419   7.950 -0.0763 -0.2793 -2.2255
   13SAPS  H13Y 1713   2.325   0.308   7.922 -0.0647 -1.1003  0.0947
   13SAPS  C314 1714   2.203   0.248   8.099 -0.0707  0.2920 -0.3147
   13SAPS  H14X 1715   2.305   0.255   8.141 -1.8420  3.2755  4.3499
   13SAPS  H14Y 1716   2.159   0.147   8.091  0.2402  0.1919 -0.7563
   13SAPS  C315 1717   2.118   0.333   8.196  0.3280  0.2321 -0.0343
   13SAPS  H15X 1718   2.017   0.351   8.155 -1.7934 -1.0572  4.0793
   13SAPS  H15Y 1719   2.174   0.428   8.209  3.1601 -1.4397  0.8821
   13SAPS  C316 1720   2.110   0.257   8.328  0.0623 -0.6512  0.1102
   13SAPS  H16X 1721   2.208   0.238   8.377  0.3963  0.3534 -0.1360
   13SAPS  H16Y 1722   2.067   0.156   8.311 -1.6262  0.1123 -0.4104
   13SAPS  C317 1723   2.032   0.344   8.433  0.2012  0.3048 -0.1505
   13SAPS  H17X 1724   2.011   0.266   8.510  1.2516  1.1068  0.9814
   13SAPS  H17Y 1725   1.932   0.376   8.398  0.6356  2.9653  0.8029
   13SAPS  C318 1726   2.111   0.455   8.502  0.1499  0.3662  0.0014
   13SAPS  H18X 1727   2.216   0.425   8.521  0.8247  1.2213 -2.0602
   13SAPS  H18Y 1728   2.066   0.464   8.603  0.6553  1.6482  0.1436
   13SAPS  H18Z 1729   2.100   0.552   8.449 -1.8897  0.3644  0.3669
   14SAPS     N 1730   6.607   2.977   6.031 -0.0412 -0.2603  0.0775
   14SAPS   HN1 1731   6.564   2.938   6.117  0.4869  0.6900  0.7988
   14SAPS   HN2 1732   6.674   2.918   5.977  2.5122  0.9038  1.7440
   14SAPS   HN3 1733   6.663   3.060   6.060  1.7238 -1.0257 -0.9325
   14SAPS   C12 1734   6.504   3.031   5.932  0.0371  0.7995  0.1720
   14SAPS  H12A 1735   6.415   3.069   5.980 -1.4392 -0.4345 -1.4757
   14SAPS   C13 1736   6.567   3.138   5.850 -0.3983  0.7268 -0.5060
   14SAPS  O13A 1737   6.690   3.161   5.865  0.3728  0.3756 -0.1393
   14SAPS  O13B 1738   6.486   3.221   5.796  0.1299  0.1257  0.0888
   14SAPS   C11 1739   6.453   2.921   5.833  0.1176  0.3276  0.3594
   14SAPS  H11A 1740   6.540   2.887   5.773 -2.9512  0.2690 -4.6638
   14SAPS  H11B 1741   6.381   2.969   5.763 -0.7634  1.3152  1.8820
   14SAPS     P 1742   6.242   2.778   5.916  0.2998  0.2609 -0.1738
   14SAPS   O13 1743   6.177   2.902   5.970  0.1413 -0.2450  0.3601
   14SAPS   O14 1744   6.184   2.713   5.799 -0.3530  0.0735  0.5606
   14SAPS   O12 1745   6.399   2.803   5.901 -1.1643  0.2246  0.5136
   14SAPS   O11 1746   6.237   2.681   6.037 -0.4054  0.6835 -0.0783
   14SAPS    C1 1747   6.347   2.608   6.094 -0.2516 -0.2324 -0.9376
   14SAPS    HA 1748   6.336   2.499   6.076 -1.2977  0.0165 -1.8928
   14SAPS    HB 1749   6.447   2.640   6.056 -1.1232  1.6000 -1.8167
   14SAPS    C2 1750   6.366   2.628   6.249  0.5074  0.7699 -0.3442
   14SAPS    HS 1751   6.328   2.730   6.270  1.4012  1.2553 -1.0252
   14SAPS   O21 1752   6.508   2.605   6.281  0.1204 -0.2947  0.9673
   14SAPS   C21 1753   6.587   2.712   6.275  0.1538  0.5717  0.5811
   14SAPS   O22 1754   6.552   2.827   6.257 -0.0589  0.0007  0.3407
   14SAPS   C22 1755   6.729   2.670   6.301 -0.4375  0.3508 -0.5014
   14SAPS   H2R 1756   6.726   2.562   6.327  2.0936  0.5090  0.8122
   14SAPS   H2S 1757   6.782   2.670   6.203 -1.9992 -2.1991 -1.4348
   14SAPS    C3 1758   6.278   2.532   6.334 -0.3259 -0.1383  0.1303
   14SAPS    HX 1759   6.295   2.423   6.319 -2.2537 -0.7158  1.7707
   14SAPS    HY 1760   6.171   2.537   6.305 -0.0316  2.7440 -0.8078
   14SAPS   O31 1761   6.286   2.569   6.469  0.2778 -0.2253  0.1895
   14SAPS   C31 1762   6.370   2.499   6.540 -0.4029  0.5107 -0.7611
   14SAPS   O32 1763   6.423   2.397   6.500 -0.0487 -0.5574 -0.0179
   14SAPS   C32 1764   6.404   2.571   6.670  0.2640 -0.3162  1.0540
   14SAPS   H2X 1765   6.357   2.672   6.662  0.6079 -0.2823 -1.2485
   14SAPS   H2Y 1766   6.514   2.586   6.675  0.5647 -2.0426  0.4224
   14SAPS   C23 1767   6.810   2.740   6.408 -0.1616  0.2464  0.7276
   14SAPS   H3R 1768   6.763   2.840   6.415 -0.9684  0.2866 -3.1911
   14SAPS   H3S 1769   6.913   2.760   6.369 -0.3817  0.9683  0.4929
   14SAPS   C24 1770   6.823   2.663   6.545  0.1917 -0.7523 -0.0800
   14SAPS   H4R 1771   6.866   2.565   6.513  0.3286 -0.2763 -1.4250
   14SAPS   H4S 1772   6.724   2.646   6.591 -0.3699  0.1260 -0.9262
   14SAPS   C25 1773   6.932   2.714   6.631 -0.3086  0.1221  0.3497
   14SAPS   H5R 1774   7.031   2.711   6.582 -0.6013 -0.8695 -0.2134
   14SAPS   C26 1775   6.914   2.748   6.762 -0.6594  0.3984 -0.1981
   14SAPS   H6R 1776   6.999   2.792   6.815  2.4597 -1.6973 -2.9866
   14SAPS   C27 1777   6.787   2.744   6.845  0.0037  0.0564  0.3997
   14SAPS   H7R 1778   6.698   2.759   6.781 -1.4197  2.3992  2.7143
   14SAPS   H7S 1779   6.788   2.840   6.900 -0.4820 -0.4360  1.2975
   14SAPS   C28 1780   6.772   2.613   6.925 -0.2024 -0.4153 -0.1949
   14SAPS   H8R 1781   6.783   2.519   6.870 -0.3713  0.3292 -1.5453
   14SAPS   C29 1782   6.754   2.606   7.060 -0.4364 -0.0404  0.1405
   14SAPS   H9R 1783   6.751   2.508   7.111  0.4680 -0.0982  0.0998
   14SAPS  C210 1784   6.733   2.719   7.152 -0.3481 -0.4931  0.1507
   14SAPS  H10R 1785   6.664   2.677   7.228  2.2208 -1.1202  2.2792
   14SAPS  H10S 1786   6.681   2.807   7.108 -0.0791 -1.5749 -2.5349
   14SAPS  C211 1787   6.865   2.760   7.215  0.3668 -0.2497  0.7303
   14SAPS  H11R 1788   6.916   2.839   7.158  0.4412 -0.4406  0.5299
   14SAPS  C212 1789   6.912   2.719   7.333  0.4296 -0.4037 -0.9290
   14SAPS  H12R 1790   7.011   2.749   7.370  1.2166 -1.9212 -1.6923
   14SAPS  C213 1791   6.848   2.620   7.422  0.0555 -0.2967  0.2831
   14SAPS  H13R 1792   6.927   2.553   7.462  1.8953  1.8649  0.4755
   14SAPS  H13S 1793   6.776   2.569   7.354  1.4561  0.5243 -1.9277
   14SAPS  C214 1794   6.771   2.684   7.534  0.2435  0.5178 -0.4996
   14SAPS  H14R 1795   6.721   2.776   7.500  0.1704 -0.0284 -1.9294
   14SAPS  C215 1796   6.755   2.648   7.662 -0.0147  0.1440 -0.2487
   14SAPS  H15R 1797   6.707   2.725   7.725  0.2486  0.4895 -0.4652
   14SAPS  C216 1798   6.821   2.525   7.721  0.4278  0.0327 -0.3813
   14SAPS  H16R 1799   6.920   2.556   7.759  0.9281 -0.6290 -1.1002
   14SAPS  H16S 1800   6.851   2.449   7.645 -0.6653 -1.4887  0.6491
   14SAPS  C217 1801   6.723   2.462   7.827 -0.6505  0.8499  0.0943
   14SAPS  H17R 1802   6.770   2.366   7.857 -1.0675  1.2269  2.1452
   14SAPS  H17S 1803   6.629   2.431   7.777  1.4266 -1.7728 -2.5003
   14SAPS  C218 1804   6.699   2.547   7.950  0.1596  0.0754  0.3783
   14SAPS  H18R 1805   6.631   2.632   7.927 -1.2701 -0.9500  0.7039
   14SAPS  H18S 1806   6.794   2.597   7.975 -0.2729  1.4856 -0.6872
   14SAPS  C219 1807   6.630   2.469   8.064  0.2067  0.3702 -0.3812
   14SAPS  H19R 1808   6.685   2.379   8.099 -0.8140  0.6371  2.1398
   14SAPS  H19S 1809   6.533   2.436   8.021  0.4970 -1.3458  0.1826
   14SAPS  C220 1810   6.602   2.560   8.188  0.2094 -0.8857 -1.0000
   14SAPS  H20R 1811   6.699   2.611   8.209 -0.4472  0.0833 -0.2533
   14SAPS  H20S 1812   6.588   2.506   8.284  0.1585 -0.1188 -0.5695
   14SAPS  H20T 1813   6.520   2.634   8.176  0.3070 -1.0847 -3.2812
   14SAPS   C33 1814   6.358   2.487   6.800  0.8035 -0.5395 -0.7564
   14SAPS   H3X 1815   6.419   2.395   6.792  0.8811 -0.4193 -1.6945
   14SAPS   H3Y 1816   6.248   2.468   6.800  0.6348  0.3620  0.0388
   14SAPS   C34 1817   6.378   2.573   6.929  0.0388  0.5996 -0.5163
   14SAPS   H4X 1818   6.323   2.669   6.919 -0.6123  0.1900 -0.9899
   14SAPS   H4Y 1819   6.484   2.603   6.938  0.4852 -1.3133  1.3787
   14SAPS   C35 1820   6.336   2.499   7.058 -0.5153 -0.3863 -0.3085
   14SAPS   H5X 1821   6.399   2.413   7.089 -0.0823  0.0394  0.0059
   14SAPS   H5Y 1822   6.233   2.461   7.042 -1.0170  1.3109 -1.4172
   14SAPS   C36 1823   6.346   2.607   7.174 -0.3223  1.2176  0.0837
   14SAPS   H6X 1824   6.255   2.668   7.154 -2.7100 -1.3004  2.4229
   14SAPS   H6Y 1825   6.441   2.665   7.177 -0.9617  2.3864  4.5744
   14SAPS   C37 1826   6.315   2.538   7.311  0.2598 -0.1049 -0.2097
   14SAPS   H7X 1827   6.383   2.450   7.317 -1.1958 -1.2747 -0.3021
   14SAPS   H7Y 1828   6.211   2.499   7.309  1.0235 -2.5703  1.9701
   14SAPS   C38 1829   6.333   2.628   7.430 -0.2656 -0.2427  0.5235
   14SAPS   H8X 1830   6.255   2.706   7.414 -1.0087 -1.4039 -2.0124
   14SAPS   H8Y 1831   6.434   2.674   7.433 -1.6584  3.3916 -1.7709
   14SAPS   C39 1832   6.312   2.554   7.564 -0.3231  0.5523  0.5172
   14SAPS   H9X 1833   6.377   2.464   7.560 -0.5634  0.4375 -1.6554
   14SAPS   H9Y 1834   6.207   2.518   7.575 -0.3313  0.9086  1.8784
   14SAPS  C310 1835   6.342   2.645   7.686 -1.1204 -0.5058 -0.3167
   14SAPS  H10X 1836   6.277   2.735   7.681  1.2851  1.3719 -0.1336
   14SAPS  H10Y 1837   6.447   2.676   7.665 -0.6836 -1.2176  0.7224
   14SAPS  C311 1838   6.342   2.588   7.825  0.6550  0.4653 -0.1437
   14SAPS  H11X 1839   6.403   2.650   7.894  0.1413  0.1842  0.5808
   14SAPS  H11Y 1840   6.399   2.494   7.811 -0.3186 -0.1996  0.2272
   14SAPS  C312 1841   6.200   2.579   7.896  0.2978  0.1637  0.6452
   14SAPS  H12X 1842   6.159   2.681   7.914 -1.0418 -0.2149 -0.0996
   14SAPS  H12Y 1843   6.222   2.542   7.999 -1.3142  0.1051  0.9958
   14SAPS  C313 1844   6.090   2.498   7.825 -0.3138  0.1430 -0.7907
   14SAPS  H13X 1845   6.129   2.408   7.773  0.7256 -0.0746  0.3198
   14SAPS  H13Y 1846   6.037   2.562   7.751 -2.2448  1.2277  1.4013
   14SAPS  C314 1847   5.989   2.449   7.927  0.6987  0.0284  0.3023
   14SAPS  H14X 1848   5.893   2.451   7.871 -1.9750  3.0635  4.4565
   14SAPS  H14Y 1849   5.971   2.508   8.019  1.3221  0.3259  0.2383
   14SAPS  C315 1850   6.009   2.308   7.978  0.5845  0.2111 -0.2450
   14SAPS  H15X 1851   6.109   2.302   8.027  0.8464 -0.6496 -0.8701
   14SAPS  H15Y 1852   6.011   2.237   7.893 -0.6271 -0.8693  0.5987
   14SAPS  C316 1853   5.910   2.257   8.085  0.4040  0.1952  0.2568
   14SAPS  H16X 1854   5.808   2.248   8.043 -0.4555  0.3265  2.1988
   14SAPS  H16Y 1855   5.910   2.320   8.177 -2.0447 -1.6701  1.6623
   14SAPS  C317 1856   5.933   2.105   8.126 -0.4533 -0.7500 -0.5982
   14SAPS  H17X 1857   6.028   2.111   8.184  0.2799  1.5078 -1.9235
   14SAPS  H17Y 1858   5.947   2.044   8.034  1.0901  1.9023 -2.2751
   14SAPS  C318 1859   5.828   2.036   8.203 -0.1995  0.1182  1.1961
   14SAPS  H18X 1860   5.875   1.953   8.260 -0.3571 -1.2152 -0.5033
   14SAPS  H18Y 1861   5.751   1.984   8.140 -1.4870  2.6739  0.5367
   14SAPS  H18Z 1862   5.783   2.110   8.272 -1.7266  2.3031 -1.8980
   15SAPS     N 1863   1.500   3.244   5.425 -0.1707 -0.3686 -0.2880
   15SAPS   HN1 1864   1.585   3.279   5.473  0.7855  1.0213 -2.7995
   15SAPS   HN2 1865   1.535   3.218   5.331  1.8693  2.8588 -0.5748
   15SAPS   HN3 1866   1.454   3.335   5.402  0.2954 -0.0682 -0.0533
   15SAPS   C12 1867   1.432   3.122   5.489 -0.1150 -0.3537  0.2344
   15SAPS  H12A 1868   1.336   3.108   5.442  0.4728 -0.0451 -1.0923
   15SAPS   C13 1869   1.510   2.986   5.489  0.1126  0.0114  0.9973
   15SAPS  O13A 1870   1.613   2.980   5.415 -0.0696 -0.3362 -0.6438
   15SAPS  O13B 1871   1.483   2.903   5.577  0.1315 -0.0288 -0.2240
   15SAPS   C11 1872   1.392   3.159   5.639  0.5957  0.6596  0.6171
   15SAPS  H11A 1873   1.488   3.164   5.694  0.9097 -1.5043  0.3505
   15SAPS  H11B 1874   1.337   3.070   5.677 -0.8732  0.3772 -1.9774
   15SAPS     P 1875   1.303   3.349   5.795  0.2468 -0.4240  0.0222
   15SAPS   O13 1876   1.433   3.414   5.823  0.3600 -0.2873 -0.1873
   15SAPS   O14 1877   1.185   3.436   5.792  0.2472  0.5223 -0.1529
   15SAPS   O12 1878   1.322   3.287   5.650 -0.3285  0.0765 -0.2436
   15SAPS   O11 1879   1.270   3.224   5.892 -0.1198 -1.0062  0.1727
   15SAPS    C1 1880   1.370   3.156   5.972 -0.5526  0.5737 -0.0561
   15SAPS    HA 1881   1.359   3.047   5.954  0.5081  0.2099  1.2904
   15SAPS    HB 1882   1.473   3.175   5.934  0.6464 -1.4548  1.8865
   15SAPS    C2 1883   1.364   3.176   6.117 -0.5763 -0.7977  0.7821
   15SAPS    HS 1884   1.450   3.126   6.166 -0.8320  0.7810  2.9705
   15SAPS   O21 1885   1.240   3.130   6.175 -0.1895  0.1262 -0.0945
   15SAPS   C21 1886   1.233   2.995   6.183  0.2806 -0.5714  0.2507
   15SAPS   O22 1887   1.313   2.911   6.144  0.6004 -0.9134  0.0567
   15SAPS   C22 1888   1.095   2.958   6.229 -0.1850 -0.9754 -0.7850
   15SAPS   H2R 1889   1.104   2.910   6.328 -3.5212 -0.5713 -0.1678
   15SAPS   H2S 1890   1.037   3.053   6.236 -0.9465 -1.5131  0.6093
   15SAPS    C3 1891   1.381   3.330   6.148  1.1717 -0.0557  0.5547
   15SAPS    HX 1892   1.287   3.381   6.117  1.2319 -0.1550  0.2065
   15SAPS    HY 1893   1.464   3.380   6.094  1.0066  0.2613  0.5958
   15SAPS   O31 1894   1.395   3.348   6.291 -0.1229 -0.5511 -0.1502
   15SAPS   C31 1895   1.509   3.311   6.347  0.3020  0.0401 -0.4047
   15SAPS   O32 1896   1.609   3.273   6.286  0.0420 -0.2480  0.3456
   15SAPS   C32 1897   1.502   3.350   6.495  0.8935 -0.0815 -0.2612
   15SAPS   H2X 1898   1.421   3.282   6.531  0.0565  1.1731  0.2717
   15SAPS   H2Y 1899   1.457   3.450   6.512  0.4060 -0.4090  0.3987
   15SAPS   C23 1900   1.035   2.851   6.143 -0.5089 -0.9392 -0.3535
   15SAPS   H3R 1901   1.110   2.786   6.094  0.5906  1.2186 -1.6568
   15SAPS   H3S 1902   0.969   2.884   6.060 -1.5450 -0.0089  0.8035
   15SAPS   C24 1903   0.938   2.757   6.229 -0.2894 -0.0314  0.2876
   15SAPS   H4R 1904   0.976   2.738   6.331 -1.7539 -1.5839  0.5893
   15SAPS   H4S 1905   0.939   2.661   6.174  1.6728  1.2403 -2.1188
   15SAPS   C25 1906   0.800   2.811   6.240 -0.0109 -0.3919 -0.6279
   15SAPS   H5R 1907   0.731   2.797   6.155 -0.8448 -1.5346  0.2127
   15SAPS   C26 1908   0.739   2.871   6.345  0.5617  0.3190 -0.0974
   15SAPS   H6R 1909   0.630   2.881   6.343  0.5708  0.4033 -0.1686
   15SAPS   C27 1910   0.805   2.880   6.478  0.5857  0.2253 -0.6546
   15SAPS   H7R 1911   0.912   2.852   6.465  0.6515 -0.0025  0.2725
   15SAPS   H7S 1912   0.768   2.807   6.552 -0.3495  1.0668 -0.2640
   15SAPS   C28 1913   0.802   3.024   6.519  0.0450  0.1954  0.9768
   15SAPS   H8R 1914   0.835   3.086   6.434  0.4094 -0.1072  0.8952
   15SAPS   C29 1915   0.765   3.075   6.629  0.1586 -0.3993  0.1919
   15SAPS   H9R 1916   0.770   3.184   6.642 -0.7044 -0.6876  3.8702
   15SAPS  C210 1917   0.713   3.002   6.750 -0.4490 -0.1847  0.2324
   15SAPS  H10R 1918   0.732   2.894   6.729 -0.3574  0.1510 -1.5053
   15SAPS  H10S 1919   0.602   3.009   6.759 -0.4574  1.2963 -0.7356
   15SAPS  C211 1920   0.780   3.054   6.877  0.3011  0.5683  0.4881
   15SAPS  H11R 1921   0.773   3.163   6.887  0.5037  0.5745  0.5577
   15SAPS  C212 1922   0.837   2.985   6.976  0.1218 -0.0473  0.1385
   15SAPS  H12R 1923   0.877   3.038   7.064 -1.0152 -1.0677  1.3192
   15SAPS  C213 1924   0.842   2.840   6.989  0.0723 -0.0892  0.0509
   15SAPS  H13R 1925   0.793   2.787   6.905  0.8119 -0.5361 -0.1123
   15SAPS  H13S 1926   0.768   2.808   7.065 -0.0828 -1.8708 -0.7947
   15SAPS  C214 1927   0.979   2.783   7.021  0.7533  0.3574  0.0530
   15SAPS  H14R 1928   1.037   2.758   6.930 -0.0623  0.7241 -0.5783
   15SAPS  C215 1929   1.030   2.771   7.139 -0.7972 -0.4759 -0.5966
   15SAPS  H15R 1930   1.128   2.721   7.139 -0.8907 -0.6654 -0.1312
   15SAPS  C216 1931   0.973   2.805   7.277  0.5664 -0.2479  0.1363
   15SAPS  H16R 1932   0.867   2.836   7.269  0.6174  0.6208  2.2446
   15SAPS  H16S 1933   1.033   2.888   7.320  1.4749 -0.7388 -0.1518
   15SAPS  C217 1934   0.986   2.681   7.372 -0.3772  0.3860  1.0095
   15SAPS  H17R 1935   1.091   2.647   7.375 -0.4736  0.1583  2.4290
   15SAPS  H17S 1936   0.924   2.594   7.342  1.6585 -0.6822 -0.2791
   15SAPS  C218 1937   0.945   2.728   7.517 -0.2412  0.0180 -0.3809
   15SAPS  H18R 1938   0.834   2.739   7.526 -0.1003  1.6164 -0.2400
   15SAPS  H18S 1939   0.995   2.825   7.537  0.2201 -0.5455  1.3019
   15SAPS  C219 1940   1.014   2.639   7.618 -0.6187  0.7103 -0.9335
   15SAPS  H19R 1941   1.121   2.666   7.605 -0.4049  0.0996 -0.4544
   15SAPS  H19S 1942   1.002   2.531   7.596 -0.2412  0.7605 -1.3934
   15SAPS  C220 1943   0.980   2.672   7.763  1.0055  0.3865  0.3464
   15SAPS  H20R 1944   0.881   2.626   7.787  1.6900 -1.1161  0.3899
   15SAPS  H20S 1945   0.961   2.781   7.771  0.4543  0.2011  1.8269
   15SAPS  H20T 1946   1.055   2.638   7.837  0.3489  1.1534  1.4006
   15SAPS   C33 1947   1.638   3.330   6.568 -0.2092  0.5831 -0.3413
   15SAPS   H3X 1948   1.723   3.373   6.509 -0.2072  1.6179  0.3891
   15SAPS   H3Y 1949   1.654   3.221   6.583  1.6448  0.9868  0.9759
   15SAPS   C34 1950   1.627   3.397   6.701  0.4570  0.6312 -0.3282
   15SAPS   H4X 1951   1.526   3.394   6.746  0.9143 -0.5216  0.6600
   15SAPS   H4Y 1952   1.649   3.504   6.678 -2.6369  1.1760 -1.1717
   15SAPS   C35 1953   1.724   3.327   6.811 -0.5710 -0.3172  0.2117
   15SAPS   H5X 1954   1.820   3.314   6.757 -0.4228  0.3560  0.3072
   15SAPS   H5Y 1955   1.682   3.227   6.838 -0.7123 -0.1146  0.7556
   15SAPS   C36 1956   1.740   3.418   6.931 -0.0504 -0.2249  0.3964
   15SAPS   H6X 1957   1.753   3.523   6.896 -0.0923 -0.5287 -0.5343
   15SAPS   H6Y 1958   1.835   3.389   6.980 -0.5080 -1.0666  0.8079
   15SAPS   C37 1959   1.613   3.420   7.018 -0.4214  0.7702 -0.1156
   15SAPS   H7X 1960   1.573   3.318   7.034 -0.9439  1.0404  0.3488
   15SAPS   H7Y 1961   1.538   3.476   6.958  0.3778  1.8994 -0.0988
   15SAPS   C38 1962   1.636   3.485   7.153 -0.0976 -0.3665  0.0295
   15SAPS   H8X 1963   1.696   3.577   7.134  0.1004 -0.2649  1.1091
   15SAPS   H8Y 1964   1.684   3.416   7.226  0.0934 -1.5492 -1.1744
   15SAPS   C39 1965   1.506   3.532   7.219 -0.0295 -0.7413 -0.6734
   15SAPS   H9X 1966   1.444   3.442   7.239 -0.5944 -0.2189 -0.0172
   15SAPS   H9Y 1967   1.436   3.599   7.163 -0.1361  1.6246  2.0698
   15SAPS  C310 1968   1.534   3.607   7.351  0.6133 -0.3291 -0.0736
   15SAPS  H10X 1969   1.567   3.711   7.327 -0.1439  0.1124  0.7510
   15SAPS  H10Y 1970   1.613   3.547   7.401  1.8767 -0.4947 -2.1560
   15SAPS  C311 1971   1.406   3.602   7.440 -0.4662 -0.2154  0.1486
   15SAPS  H11X 1972   1.376   3.496   7.459 -0.0841 -0.1816  0.9999
   15SAPS  H11Y 1973   1.327   3.653   7.381 -1.2176  1.2284  2.2743
   15SAPS  C312 1974   1.422   3.681   7.567 -0.5042 -0.6080 -0.8367
   15SAPS  H12X 1975   1.318   3.695   7.604 -0.1057  2.5857 -0.6005
   15SAPS  H12Y 1976   1.467   3.781   7.550  0.7765 -1.2473 -1.3098
   15SAPS  C313 1977   1.506   3.620   7.678  0.8209 -0.0207 -0.2476
   15SAPS  H13X 1978   1.608   3.606   7.635  0.3200 -2.5979 -0.7289
   15SAPS  H13Y 1979   1.468   3.519   7.705 -2.4917  0.5568 -2.1748
   15SAPS  C314 1980   1.525   3.717   7.799 -0.0551  0.5754 -0.3352
   15SAPS  H14X 1981   1.583   3.801   7.755  2.1379 -0.3252  0.6619
   15SAPS  H14Y 1982   1.590   3.664   7.873 -0.8816 -0.4731 -0.3267
   15SAPS  C315 1983   1.392   3.767   7.865 -0.2658  0.3102 -0.7568
   15SAPS  H15X 1984   1.335   3.680   7.906  0.4875  0.6267  1.0615
   15SAPS  H15Y 1985   1.338   3.829   7.790 -0.7395  0.0750 -0.6205
   15SAPS  C316 1986   1.417   3.856   7.990 -0.1647 -0.0788 -0.3220
   15SAPS  H16X 1987   1.502   3.925   7.969  0.0996  0.0113  0.9799
   15SAPS  H16Y 1988   1.439   3.802   8.084  0.3839  1.6398  0.5850
   15SAPS  C317 1989   1.306   3.945   8.026  0.5502 -1.0436 -0.0038
   15SAPS  H17X 1990   1.292   4.023   7.948  0.3450 -0.1067  0.9610
   15SAPS  H17Y 1991   1.334   4.002   8.117  1.2249 -1.7715  0.2512
   15SAPS  C318 1992   1.179   3.862   8.052 -0.1390  0.0486 -0.3415
   15SAPS  H18X 1993   1.097   3.917   8.103  1.2511  0.2442  1.8338
   15SAPS  H18Y 1994   1.209   3.777   8.117  0.3686 -0.3885 -1.1338
   15SAPS  H18Z 1995   1.141   3.813   7.960  0.4424 -1.3796  0.1542
   16SAPS     N 1996   2.354   5.386   6.332 -0.9892  0.4535  0.2113
   16SAPS   HN1 1997   2.283   5.387   6.408 -0.7797 -0.2755  0.4190
   16SAPS   HN2 1998   2.448   5.368   6.373 -0.0720  0.5206 -1.7571
   16SAPS   HN3 1999   2.359   5.482   6.293 -0.9760  0.6186  0.6206
   16SAPS   C12 2000   2.336   5.284   6.232 -0.7937  0.2457  0.3200
   16SAPS  H12A 2001   2.243   5.232   6.247 -0.2125 -1.4621 -1.5772
   16SAPS   C13 2002   2.344   5.329   6.089 -0.4028 -0.1228  0.4306
   16SAPS  O13A 2003   2.384   5.444   6.062  0.1244  0.3423  0.1576
   16SAPS  O13B 2004   2.306   5.244   5.998 -0.0859 -0.1616 -0.2761
   16SAPS   C11 2005   2.453   5.175   6.253  0.1369 -0.7501 -0.1259
   16SAPS  H11A 2006   2.553   5.219   6.234 -0.5143 -0.1351 -2.3467
   16SAPS  H11B 2007   2.430   5.102   6.173 -1.2531  2.2707 -2.7150
   16SAPS     P 2008   2.536   5.017   6.443 -0.0607 -0.0454 -0.2392
   16SAPS   O13 2009   2.536   4.901   6.351  0.1676 -0.4955  0.1269
   16SAPS   O14 2010   2.664   5.085   6.468  0.1373  0.4315  0.6609
   16SAPS   O12 2011   2.433   5.123   6.388  0.0567 -0.0082  0.3556
   16SAPS   O11 2012   2.474   4.983   6.585  0.3396 -0.4643  0.1764
   16SAPS    C1 2013   2.347   5.007   6.630 -0.2576 -0.7414  0.1211
   16SAPS    HA 2014   2.337   5.110   6.670 -0.6462 -0.0490 -1.6495
   16SAPS    HB 2015   2.279   4.990   6.544  1.0773 -0.9085 -0.9427
   16SAPS    C2 2016   2.312   4.908   6.742  0.9242 -0.2769 -0.4353
   16SAPS    HS 2017   2.202   4.914   6.756  0.8050 -2.8211  0.1566
   16SAPS   O21 2018   2.386   4.936   6.855  0.5717 -0.4807 -0.2529
   16SAPS   C21 2019   2.341   4.888   6.966  0.0805 -0.3179 -0.4248
   16SAPS   O22 2020   2.237   4.823   6.992  0.2018 -0.4008 -0.2592
   16SAPS   C22 2021   2.441   4.933   7.088  0.3614  0.8432 -0.7741
   16SAPS   H2R 2022   2.477   4.844   7.144  0.3239  0.9593 -0.5634
   16SAPS   H2S 2023   2.526   4.982   7.034  1.2831  0.1489  0.0071
   16SAPS    C3 2024   2.332   4.760   6.696 -0.1211 -0.8455 -0.0076
   16SAPS    HX 2025   2.442   4.750   6.690  0.1224  0.9554  0.6210
   16SAPS    HY 2026   2.284   4.759   6.596  1.5844 -1.0930 -0.8508
   16SAPS   O31 2027   2.263   4.661   6.771 -0.1865  0.2875  0.3254
   16SAPS   C31 2028   2.335   4.569   6.840  0.6496 -0.1717 -0.0450
   16SAPS   O32 2029   2.456   4.568   6.838  0.0056  0.2576 -0.4748
   16SAPS   C32 2030   2.249   4.454   6.903  0.7166 -0.2332  0.4119
   16SAPS   H2X 2031   2.317   4.367   6.915  1.9927  0.7881  0.8278
   16SAPS   H2Y 2032   2.169   4.428   6.830  1.3113  2.1268 -1.2231
   16SAPS   C23 2033   2.398   5.047   7.188  0.3001  0.1853  0.6239
   16SAPS   H3R 2034   2.334   5.120   7.133 -4.0016 -2.8467  1.0694
   16SAPS   H3S 2035   2.483   5.109   7.223 -0.7871  1.9015  0.3999
   16SAPS   C24 2036   2.316   5.008   7.308 -0.2547 -0.1467 -0.4009
   16SAPS   H4R 2037   2.250   4.924   7.278  0.6306 -0.5129 -1.4306
   16SAPS   H4S 2038   2.258   5.096   7.341 -0.2993 -0.5633  0.6596
   16SAPS   C25 2039   2.408   4.971   7.425  0.0544 -0.2917  0.1997
   16SAPS   H5R 2040   2.479   4.889   7.409 -0.2356 -0.2466 -1.4978
   16SAPS   C26 2041   2.404   5.028   7.547 -0.6404  0.1860  0.8042
   16SAPS   H6R 2042   2.471   4.989   7.625  0.0058 -0.1395  0.1090
   16SAPS   C27 2043   2.311   5.136   7.601 -0.4420 -0.0987 -0.1336
   16SAPS   H7R 2044   2.261   5.194   7.520 -0.7728 -1.3730 -0.8704
   16SAPS   H7S 2045   2.369   5.216   7.653  0.5571  0.0521 -1.4093
   16SAPS   C28 2046   2.200   5.080   7.682 -0.1536 -0.2918 -0.4172
   16SAPS   H8R 2047   2.129   5.012   7.632 -1.8465  1.1262 -0.0531
   16SAPS   C29 2048   2.159   5.117   7.807  0.4338 -0.3428  0.2508
   16SAPS   H9R 2049   2.089   5.053   7.863 -0.9327  0.3955 -0.5648
   16SAPS  C210 2050   2.231   5.226   7.888  0.0381 -0.1564 -0.2569
   16SAPS  H10R 2051   2.186   5.322   7.858  1.8599  0.5148 -0.9498
   16SAPS  H10S 2052   2.341   5.225   7.872  0.0087  0.6995 -0.5504
   16SAPS  C211 2053   2.196   5.211   8.034  0.1789  0.3183  0.0323
   16SAPS  H11R 2054   2.137   5.121   8.056  0.2940  0.7673  2.4981
   16SAPS  C212 2055   2.255   5.283   8.132 -0.0476 -0.1851 -0.0321
   16SAPS  H12R 2056   2.223   5.274   8.236 -1.6221  2.1209 -0.2417
   16SAPS  C213 2057   2.353   5.397   8.099 -0.2125  0.2358 -0.2950
   16SAPS  H13R 2058   2.305   5.456   8.018 -0.7140 -0.1724 -0.3003
   16SAPS  H13S 2059   2.444   5.348   8.057 -1.8586 -2.6791 -0.7106
   16SAPS  C214 2060   2.373   5.493   8.210  0.1569  0.5213 -0.0654
   16SAPS  H14R 2061   2.314   5.586   8.206 -1.3179 -0.3702  0.1030
   16SAPS  C215 2062   2.464   5.481   8.308 -0.0464 -0.5511  0.3037
   16SAPS  H15R 2063   2.462   5.570   8.372 -0.5935 -0.4160  0.0978
   16SAPS  C216 2064   2.569   5.374   8.335  0.1878 -0.3024  0.5211
   16SAPS  H16R 2065   2.665   5.425   8.358  0.1051  0.6799 -1.1352
   16SAPS  H16S 2066   2.576   5.306   8.248 -1.6800  1.3224 -1.0080
   16SAPS  C217 2067   2.542   5.297   8.467  0.5520 -0.4414 -0.0698
   16SAPS  H17R 2068   2.443   5.252   8.443  0.4201 -0.7768  1.0640
   16SAPS  H17S 2069   2.534   5.368   8.551  0.6224 -0.2800 -0.1981
   16SAPS  C218 2070   2.633   5.183   8.505  0.2232  0.0212 -0.1324
   16SAPS  H18R 2071   2.614   5.161   8.613  1.1951  2.6175  0.6295
   16SAPS  H18S 2072   2.736   5.223   8.496  0.9055 -1.4142  0.7523
   16SAPS  C219 2073   2.615   5.057   8.423  0.4035  0.1128  1.0618
   16SAPS  H19R 2074   2.580   5.093   8.324  1.5123  2.7640  1.5492
   16SAPS  H19S 2075   2.545   4.991   8.478  0.8735 -0.1721  1.3299
   16SAPS  C220 2076   2.745   4.985   8.391  0.8185 -0.3336  0.3501
   16SAPS  H20R 2077   2.800   4.970   8.487  0.6206  0.5476  0.6056
   16SAPS  H20S 2078   2.811   5.046   8.326 -0.8179  0.1612 -0.9016
   16SAPS  H20T 2079   2.727   4.887   8.342  0.6255 -0.4254  0.6023
   16SAPS   C33 2080   2.169   4.499   7.028 -0.5970  0.8783  0.2586
   16SAPS   H3X 2081   2.098   4.414   7.037  1.4073 -1.1414 -1.7402
   16SAPS   H3Y 2082   2.115   4.594   7.009 -1.0434  1.2782  3.1443
   16SAPS   C34 2083   2.256   4.517   7.147  0.2753  0.5119 -0.6616
   16SAPS   H4X 2084   2.335   4.594   7.138  0.4716  0.6083  1.5279
   16SAPS   H4Y 2085   2.303   4.421   7.178  0.3840  1.5439  2.7113
   16SAPS   C35 2086   2.163   4.545   7.268  0.4620  0.5099  0.1029
   16SAPS   H5X 2087   2.109   4.451   7.291 -0.7248  1.0728 -0.3304
   16SAPS   H5Y 2088   2.099   4.629   7.232 -1.4777 -0.5034  1.0812
   16SAPS   C36 2089   2.230   4.587   7.395 -0.0419 -0.8123 -0.6751
   16SAPS   H6X 2090   2.296   4.674   7.379 -1.4856  0.2800 -0.9147
   16SAPS   H6Y 2091   2.290   4.508   7.445 -0.6211 -1.3122 -0.7654
   16SAPS   C37 2092   2.136   4.623   7.513  0.1918  0.0596 -0.6529
   16SAPS   H7X 2093   2.054   4.548   7.511 -3.5089  3.6347  1.1841
   16SAPS   H7Y 2094   2.089   4.723   7.501  1.1604  0.7574  1.0235
   16SAPS   C38 2095   2.211   4.622   7.648 -0.5522 -0.4512  0.2543
   16SAPS   H8X 2096   2.308   4.674   7.627 -0.4336 -1.3847 -1.6757
   16SAPS   H8Y 2097   2.247   4.522   7.681  0.5570 -0.4921 -0.9900
   16SAPS   C39 2098   2.147   4.669   7.779  0.5570 -0.1765 -0.1419
   16SAPS   H9X 2099   2.072   4.596   7.815  2.0725 -0.6736  2.2151
   16SAPS   H9Y 2100   2.095   4.767   7.773  0.2294 -0.2173  1.4370
   16SAPS  C310 2101   2.241   4.702   7.898  0.8411 -0.0137  0.1781
   16SAPS  H10X 2102   2.316   4.779   7.869  0.6315  0.0342 -0.2450
   16SAPS  H10Y 2103   2.288   4.607   7.934 -0.6767 -1.4180 -1.3851
   16SAPS  C311 2104   2.167   4.772   8.009  0.2916  0.1448  0.1451
   16SAPS  H11X 2105   2.082   4.704   8.031  0.0880  0.3231 -0.0729
   16SAPS  H11Y 2106   2.121   4.866   7.969 -0.0082  0.5372  1.3793
   16SAPS  C312 2107   2.240   4.807   8.137  0.0396 -0.0698  0.3618
   16SAPS  H12X 2108   2.318   4.883   8.113  0.5428  0.6394  3.8221
   16SAPS  H12Y 2109   2.287   4.711   8.165 -0.8778 -1.2811 -1.9728
   16SAPS  C313 2110   2.153   4.882   8.237  0.3403  0.2325  0.0589
   16SAPS  H13X 2111   2.047   4.850   8.242 -0.0825  1.5765  0.1642
   16SAPS  H13Y 2112   2.149   4.986   8.198 -0.4679 -0.3640 -1.5184
   16SAPS  C314 2113   2.209   4.879   8.381 -0.1835  0.1579 -0.0159
   16SAPS  H14X 2114   2.320   4.885   8.380 -0.1637 -0.1877  0.0297
   16SAPS  H14Y 2115   2.177   4.786   8.432  0.5011  1.0488  2.1468
   16SAPS  C315 2116   2.147   4.995   8.463 -0.4328 -0.2728 -0.4502
   16SAPS  H15X 2117   2.035   4.994   8.461 -0.4146 -0.3157 -1.6429
   16SAPS  H15Y 2118   2.170   5.089   8.410 -2.2209 -0.4424 -1.6102
   16SAPS  C316 2119   2.206   5.006   8.598 -0.0174 -0.0668 -0.5046
   16SAPS  H16X 2120   2.316   5.010   8.589 -0.1222  3.0609 -1.4818
   16SAPS  H16Y 2121   2.194   4.913   8.658 -1.1972  0.8140  0.6866
   16SAPS  C317 2122   2.176   5.132   8.678  0.4218  0.6001 -0.2398
   16SAPS  H17X 2123   2.068   5.145   8.701  0.2873  0.5161 -0.7903
   16SAPS  H17Y 2124   2.201   5.218   8.612 -4.4739 -0.8235 -4.7000
   16SAPS  C318 2125   2.259   5.139   8.811 -0.2175 -0.5232  0.4526
   16SAPS  H18X 2126   2.226   5.233   8.862 -0.4785 -1.1539  1.4692
   16SAPS  H18Y 2127   2.368   5.129   8.791 -1.0099 -3.6467 -3.3901
   16SAPS  H18Z 2128   2.227   5.065   8.887 -1.9681  0.1716  0.4551
   17SAPC     N 2129   0.343   1.093  10.366 -0.0654 -0.3720 -0.3452
   17SAPC   C12 2130   0.412   0.975  10.291 -0.4289 -0.3107 -0.0402
   17SAPC  H12A 2131   0.439   0.888  10.349 -1.4324 -0.6130 -0.0117
   17SAPC  H12B 2132   0.497   1.020  10.242 -0.6451  0.9845  0.7374
   17SAPC   C13 2133   0.442   1.178  10.439  0.4224 -0.2537  0.2644
   17SAPC  H13A 2134   0.507   1.220  10.364 -1.8480 -0.3909 -1.8680
   17SAPC  H13B 2135   0.389   1.254  10.494 -0.4315 -0.8853  0.3340
   17SAPC  H13C 2136   0.491   1.117  10.514  0.5665  2.4944  2.5732
   17SAPC   C14 2137   0.270   1.180  10.269  0.7359 -0.0869  0.0588
   17SAPC  H14A 2138   0.331   1.207  10.185  2.5137 -0.1846  1.2637
   17SAPC  H14B 2139   0.180   1.134  10.231  0.8185 -0.6728  0.5671
   17SAPC  H14C 2140   0.237   1.269  10.322  0.5746 -0.3101  0.3399
   17SAPC   C15 2141   0.242   1.038  10.461 -0.5745  0.1882 -0.4000
   17SAPC  H15A 2142   0.287   0.969  10.531 -0.6046  0.3813 -0.1896
   17SAPC  H15B 2143   0.189   1.118  10.510 -2.0838 -0.3961 -1.0403
   17SAPC  H15C 2144   0.177   0.987  10.392  0.0827 -0.2970 -0.6728
   17SAPC   C11 2145   0.318   0.900  10.183  0.2093 -0.4777  0.3741
   17SAPC  H11A 2146   0.386   0.839  10.119  0.3985 -0.0778  0.1937
   17SAPC  H11B 2147   0.263   0.975  10.123 -0.4865  0.0906  1.6788
   17SAPC     P 2148   0.277   0.678  10.300 -0.2866 -0.1378 -0.3103
   17SAPC   O13 2149   0.422   0.682  10.334 -0.6965 -0.2458  0.3645
   17SAPC   O14 2150   0.179   0.617  10.396 -0.2531 -0.2541  0.3542
   17SAPC   O12 2151   0.225   0.824  10.252 -0.2631  1.0658 -0.8509
   17SAPC   O11 2152   0.283   0.596  10.165 -0.3495 -0.9161 -0.0912
   17SAPC    C1 2153   0.173   0.595  10.081  0.0720 -0.6086  0.1343
   17SAPC    HA 2154   0.081   0.541  10.113 -0.6168 -0.1577 -1.0286
   17SAPC    HB 2155   0.144   0.700  10.057  4.7850  1.0500  0.7626
   17SAPC    C2 2156   0.219   0.528   9.950 -0.5633  0.5233 -0.4028
   17SAPC    HS 2157   0.130   0.519   9.885 -0.5282  2.1466 -0.7071
   17SAPC   O21 2158   0.280   0.398   9.978 -0.4512  0.1611 -0.5830
   17SAPC   C21 2159   0.210   0.297  10.018  0.5311 -0.0632  0.4825
   17SAPC   O22 2160   0.090   0.291  10.027 -0.3681 -0.4033  0.3549
   17SAPC   C22 2161   0.294   0.183  10.039  0.0874 -0.4797  0.7308
   17SAPC   H2R 2162   0.401   0.207  10.023  0.3640 -1.9112  0.2532
   17SAPC   H2S 2163   0.283   0.153  10.145  0.1061 -0.9615  0.5981
   17SAPC    C3 2164   0.318   0.622   9.870 -0.4249 -0.3408 -0.2129
   17SAPC    HX 2165   0.415   0.615   9.924  0.3822  2.8076 -1.0788
   17SAPC    HY 2166   0.281   0.726   9.876 -1.7354 -0.7449 -0.8409
   17SAPC   O31 2167   0.335   0.578   9.736  0.2707 -0.3428 -0.2356
   17SAPC   C31 2168   0.230   0.600   9.651 -0.4416  0.2379  0.0228
   17SAPC   O32 2169   0.123   0.645   9.683 -0.1621  0.1662 -0.0007
   17SAPC   C32 2170   0.263   0.553   9.509 -1.3472  0.5149  0.6554
   17SAPC   H2X 2171   0.369   0.582   9.494 -0.1778 -2.8444  1.5315
   17SAPC   H2Y 2172   0.192   0.598   9.435 -0.6356 -1.5150 -1.3838
   17SAPC   C23 2173   0.262   0.066   9.943 -0.4826  0.1834 -0.2426
   17SAPC   H3R 2174   0.156   0.041   9.967  0.0878 -0.3570  1.9481
   17SAPC   H3S 2175   0.308  -0.031   9.970  2.3660  0.5396 -3.1922
   17SAPC   C24 2176   0.290   0.094   9.794  0.2181 -0.4928  0.6168
   17SAPC   H4R 2177   0.288   0.203   9.772 -0.9599  0.0078  2.8506
   17SAPC   H4S 2178   0.207   0.055   9.731 -0.3223  2.3758 -0.6003
   17SAPC   C25 2179   0.421   0.036   9.744 -0.1577  1.0903 -0.2820
   17SAPC   H5R 2180   0.512   0.045   9.806 -0.6872 -1.8647  1.0941
   17SAPC   C26 2181   0.444  -0.057   9.643  0.1214  0.6305  0.0750
   17SAPC   H6R 2182   0.547  -0.091   9.628  0.3802  2.1045 -1.8047
   17SAPC   C27 2183   0.345  -0.118   9.549 -0.4200 -0.1397  0.5918
   17SAPC   H7R 2184   0.242  -0.078   9.563 -0.1635  0.2070  1.5898
   17SAPC   H7S 2185   0.334  -0.224   9.580 -0.8343 -0.5018 -0.7439
   17SAPC   C28 2186   0.385  -0.115   9.400 -0.1108  1.0736 -0.2471
   17SAPC   H8R 2187   0.333  -0.045   9.333  1.3263  1.3098 -1.1720
   17SAPC   C29 2188   0.479  -0.204   9.353 -0.1794  0.8974  0.3742
   17SAPC   H9R 2189   0.489  -0.203   9.243 -0.4537 -0.5565  0.3224
   17SAPC  C210 2190   0.555  -0.301   9.436 -0.2851  0.0478 -0.2330
   17SAPC  H10R 2191   0.547  -0.403   9.392  1.5061  0.3740 -1.4356
   17SAPC  H10S 2192   0.514  -0.311   9.538 -1.8949  1.1837 -0.7423
   17SAPC  C211 2193   0.704  -0.254   9.432  0.5546  0.4204  0.7038
   17SAPC  H11R 2194   0.732  -0.183   9.353 -0.5744 -0.1579 -0.2602
   17SAPC  C212 2195   0.800  -0.285   9.517 -0.6091  0.1033  0.4959
   17SAPC  H12R 2196   0.898  -0.248   9.486  0.8675 -3.1896  0.7991
   17SAPC  C213 2197   0.787  -0.383   9.641  0.1753 -0.7237  0.9268
   17SAPC  H13R 2198   0.688  -0.432   9.634 -0.0598 -0.0869 -0.7286
   17SAPC  H13S 2199   0.798  -0.323   9.734  1.8735  1.0923 -0.3522
   17SAPC  C214 2200   0.910  -0.478   9.642 -0.4139 -0.1415 -0.3386
   17SAPC  H14R 2201   0.986  -0.455   9.718 -0.0083 -1.0275 -0.4676
   17SAPC  C215 2202   0.929  -0.587   9.562 -0.0706 -0.2569 -0.2690
   17SAPC  H15R 2203   1.022  -0.642   9.583 -0.6548 -0.8474  0.8281
   17SAPC  C216 2204   0.826  -0.631   9.455 -0.7014  0.2568 -0.8153
   17SAPC  H16R 2205   0.730  -0.576   9.465 -0.8553  0.1255 -1.5380
   17SAPC  H16S 2206   0.815  -0.741   9.473 -1.5911  0.4812  0.1137
   17SAPC  C217 2207   0.864  -0.617   9.307  0.4184 -0.2486  0.9692
   17SAPC  H17R 2208   0.966  -0.661   9.299  0.1162 -0.9393  0.8602
   17SAPC  H17S 2209   0.863  -0.513   9.267 -0.5826 -0.4167  0.5393
   17SAPC  C218 2210   0.756  -0.702   9.224 -0.4638 -0.9580  0.0122
   17SAPC  H18R 2211   0.662  -0.644   9.207  1.4315  1.4620 -3.4553
   17SAPC  H18S 2212   0.726  -0.789   9.286 -0.1803 -0.0570  1.4690
   17SAPC  C219 2213   0.812  -0.740   9.083 -0.4562 -0.0670 -0.1054
   17SAPC  H19R 2214   0.908  -0.792   9.103 -0.0255  1.1376  1.1075
   17SAPC  H19S 2215   0.828  -0.644   9.031 -0.5154 -0.7215 -1.3801
   17SAPC  C220 2216   0.725  -0.826   9.001  0.1691  0.5723  0.0332
   17SAPC  H20R 2217   0.760  -0.929   9.019 -1.8471 -0.6195 -2.2820
   17SAPC  H20S 2218   0.749  -0.800   8.896 -0.1210  0.3482 -0.0903
   17SAPC  H20T 2219   0.618  -0.827   9.030  0.0296 -0.1236 -0.4752
   17SAPC   C33 2220   0.240   0.401   9.503 -0.0362 -0.3580 -0.2717
   17SAPC   H3X 2221   0.136   0.372   9.530  0.1598 -0.9635 -0.1318
   17SAPC   H3Y 2222   0.303   0.360   9.585  1.6783 -0.4674 -1.5907
   17SAPC   C34 2223   0.286   0.342   9.369 -0.1223 -0.5078 -0.0398
   17SAPC   H4X 2224   0.299   0.233   9.389  0.3574 -0.2718  0.9755
   17SAPC   H4Y 2225   0.375   0.392   9.326 -0.9215  0.4971 -0.5580
   17SAPC   C35 2226   0.177   0.350   9.257 -0.5183 -0.0030 -0.1691
   17SAPC   H5X 2227   0.146   0.457   9.253  1.1320  0.5408  0.4133
   17SAPC   H5Y 2228   0.087   0.293   9.286 -1.8337  1.5518 -1.0109
   17SAPC   C36 2229   0.234   0.305   9.119  1.0344  0.1796  0.4415
   17SAPC   H6X 2230   0.286   0.209   9.140 -1.2596 -1.1320  0.4364
   17SAPC   H6Y 2231   0.310   0.376   9.081  0.9026  0.6826  1.0975
   17SAPC   C37 2232   0.131   0.301   9.007  0.1736  0.3903 -0.0807
   17SAPC   H7X 2233   0.074   0.396   9.004  1.2828  1.0362 -1.8874
   17SAPC   H7Y 2234   0.047   0.237   9.043 -0.6717  1.3270 -0.3623
   17SAPC   C38 2235   0.202   0.253   8.881  0.7985  0.1466  0.5264
   17SAPC   H8X 2236   0.262   0.162   8.906  0.7387  0.4233  1.7384
   17SAPC   H8Y 2237   0.281   0.322   8.845 -0.2773  1.2226  0.1804
   17SAPC   C39 2238   0.099   0.222   8.767 -0.2040 -0.1429 -0.2560
   17SAPC   H9X 2239   0.021   0.301   8.761 -0.1605 -0.2376 -4.3715
   17SAPC   H9Y 2240   0.038   0.136   8.800  0.3877  0.5793  3.1062
   17SAPC  C310 2241   0.152   0.198   8.631 -0.1570 -0.2616  0.3668
   17SAPC  H10X 2242   0.238   0.129   8.626 -1.1073 -1.3975 -0.9816
   17SAPC  H10Y 2243   0.178   0.300   8.593 -0.9064 -0.0279  0.4549
   17SAPC  C311 2244   0.033   0.152   8.534  0.3842  0.0820  0.1329
   17SAPC  H11X 2245  -0.013   0.245   8.492  0.1720 -0.3592 -0.6326
   17SAPC  H11Y 2246  -0.049   0.102   8.589 -2.1489  0.3122 -3.1290
   17SAPC  C312 2247   0.070   0.059   8.419  0.0474 -0.0922  0.1463
   17SAPC  H12X 2248  -0.009   0.055   8.341  0.2595 -1.5458 -0.0297
   17SAPC  H12Y 2249   0.087  -0.042   8.461  0.4169 -0.1776 -0.1988
   17SAPC  C313 2250   0.191   0.111   8.337 -0.1389 -0.2863 -0.4837
   17SAPC  H13X 2251   0.273   0.152   8.401  1.6674 -2.0262 -1.5740
   17SAPC  H13Y 2252   0.159   0.195   8.273  1.1793  2.3207  2.0398
   17SAPC  C314 2253   0.257   0.005   8.243  0.0937 -0.2121  0.3207
   17SAPC  H14X 2254   0.328   0.046   8.168 -0.0685 -0.0403  0.2609
   17SAPC  H14Y 2255   0.172  -0.038   8.186  1.0832  0.1176 -1.4915
   17SAPC  C315 2256   0.334  -0.101   8.325  0.3488  0.1024 -0.5217
   17SAPC  H15X 2257   0.254  -0.153   8.382 -0.3840  2.0158  0.2802
   17SAPC  H15Y 2258   0.399  -0.049   8.397 -1.7048 -0.3624  1.8185
   17SAPC  C316 2259   0.414  -0.203   8.244  1.1496 -0.8771  0.4047
   17SAPC  H16X 2260   0.453  -0.279   8.315  1.9298 -0.2271  0.6727
   17SAPC  H16Y 2261   0.494  -0.152   8.186 -0.2204 -0.6700 -1.4019
   17SAPC  C317 2262   0.332  -0.282   8.146  1.2350 -0.8525  0.0205
   17SAPC  H17X 2263   0.314  -0.209   8.064 -0.7068  0.1582  1.2894
   17SAPC  H17Y 2264   0.238  -0.310   8.197  0.4771 -0.7058 -1.2460
   17SAPC  C318 2265   0.401  -0.401   8.096 -0.1060 -0.3092 -0.0481
   17SAPC  H18X 2266   0.504  -0.379   8.059  0.6879 -1.8459  1.1784
   17SAPC  H18Y 2267   0.405  -0.475   8.178 -2.0984  0.8082  1.1350
   17SAPC  H18Z 2268   0.349  -0.439   8.005 -2.5523  1.3214  0.5621
   18SAPC     N 2269   1.093   0.421  10.745 -0.4018  0.7858 -0.2427
   18SAPC   C12 2270   1.146   0.564  10.757  0.3840 -0.0476  0.8173
   18SAPC  H12A 2271   1.184   0.584  10.658  1.1426 -1.9405  0.6808
   18SAPC  H12B 2272   1.240   0.561  10.811  1.3414 -0.5763 -0.7885
   18SAPC   C13 2273   1.022   0.388  10.883  0.5918 -0.3446 -0.5529
   18SAPC  H13A 2274   1.086   0.398  10.969 -0.5688 -0.0165  0.3017
   18SAPC  H13B 2275   0.938   0.446  10.915  0.9425 -0.7188  1.1136
   18SAPC  H13C 2276   0.975   0.290  10.883  0.3829 -0.2439 -0.6122
   18SAPC   C14 2277   0.989   0.388  10.643 -0.3955 -0.3459  0.0168
   18SAPC  H14A 2278   0.891   0.428  10.663 -0.4917 -1.1280  1.1925
   18SAPC  H14B 2279   1.025   0.440  10.556 -1.7327  0.5423 -0.0296
   18SAPC  H14C 2280   0.993   0.284  10.613  1.0630 -0.2239 -0.2821
   18SAPC   C15 2281   1.207   0.331  10.731 -0.0156  0.1830 -0.1022
   18SAPC  H15A 2282   1.169   0.232  10.708 -1.8384  0.8052  0.0050
   18SAPC  H15B 2283   1.277   0.360  10.654 -0.5892  0.6538 -0.4557
   18SAPC  H15C 2284   1.259   0.330  10.825 -0.4571 -0.8678  0.1378
   18SAPC   C11 2285   1.041   0.667  10.809  0.5275 -0.4893  0.3328
   18SAPC  H11A 2286   1.101   0.760  10.819 -0.0979  0.0716 -0.9172
   18SAPC  H11B 2287   1.008   0.642  10.912  1.3834 -0.7234  0.5620
   18SAPC     P 2288   0.922   0.760  10.600 -0.1267 -0.0213 -0.2119
   18SAPC   O13 2289   0.790   0.753  10.532 -0.4777  0.1423 -0.7023
   18SAPC   O14 2290   0.967   0.900  10.625  0.4950  0.2170 -0.2454
   18SAPC   O12 2291   0.918   0.681  10.738  0.1933  0.0042 -0.4817
   18SAPC   O11 2292   1.029   0.683  10.514  0.0095 -0.9085  0.4623
   18SAPC    C1 2293   0.981   0.634  10.389  0.4121 -0.2760 -0.2136
   18SAPC    HA 2294   0.897   0.564  10.410  0.4508 -0.2670 -0.0281
   18SAPC    HB 2295   0.952   0.716  10.319  2.7267  0.7555 -0.0543
   18SAPC    C2 2296   1.099   0.557  10.320 -0.8514 -0.3973 -0.2728
   18SAPC    HS 2297   1.070   0.562  10.213  0.7612  1.2283 -0.6799
   18SAPC   O21 2298   1.105   0.424  10.376 -0.1804  0.3391  0.4746
   18SAPC   C21 2299   1.149   0.333  10.289  0.5450  0.0975  0.7199
   18SAPC   O22 2300   1.183   0.355  10.174 -0.3059  0.5616 -0.4948
   18SAPC   C22 2301   1.160   0.201  10.369 -0.1963 -0.4081  0.1241
   18SAPC   H2R 2302   1.253   0.209  10.429  1.7018  1.7833 -2.8038
   18SAPC   H2S 2303   1.073   0.188  10.436 -0.9771 -1.9821 -1.1322
   18SAPC    C3 2304   1.232   0.630  10.337 -0.1671 -0.1020 -0.3524
   18SAPC    HX 2305   1.251   0.651  10.444 -2.0573  0.9356 -0.1949
   18SAPC    HY 2306   1.212   0.731  10.296  0.9503 -0.7250 -2.5817
   18SAPC   O31 2307   1.345   0.557  10.289  0.7935 -0.3348 -0.0211
   18SAPC   C31 2308   1.398   0.584  10.173  0.4006 -0.8265  0.3591
   18SAPC   O32 2309   1.358   0.670  10.098  0.2482 -0.2554  0.7338
   18SAPC   C32 2310   1.530   0.505  10.147  0.1977  0.3472  0.1127
   18SAPC   H2X 2311   1.485   0.404  10.137 -1.0638  0.9248 -0.2902
   18SAPC   H2Y 2312   1.601   0.528  10.229  1.2066  2.3668 -1.2296
   18SAPC   C23 2313   1.171   0.075  10.272  0.0986  0.4664  1.2977
   18SAPC   H3R 2314   1.261   0.088  10.208 -0.6694  0.9193  0.2874
   18SAPC   H3S 2315   1.073   0.067  10.222 -0.1423 -3.1128  2.0993
   18SAPC   C24 2316   1.201  -0.065  10.346 -0.7124  0.0371 -0.6568
   18SAPC   H4R 2317   1.290  -0.047  10.410 -0.1901 -0.9603 -1.0997
   18SAPC   H4S 2318   1.243  -0.139  10.276  1.4070 -0.7407  1.3016
   18SAPC   C25 2319   1.092  -0.123  10.425  0.0349  0.4502 -0.3598
   18SAPC   H5R 2320   1.046  -0.057  10.500 -3.9192 -1.3632 -0.8942
   18SAPC   C26 2321   1.032  -0.241  10.412 -0.0824  0.2461 -0.3519
   18SAPC   H6R 2322   0.938  -0.258  10.466 -0.1983  0.9211 -0.3341
   18SAPC   C27 2323   1.066  -0.352  10.311 -0.0535  0.2290  0.2733
   18SAPC   H7R 2324   1.031  -0.454  10.338 -0.7822  0.4143  0.0658
   18SAPC   H7S 2325   1.176  -0.353  10.302  0.2016  0.0048  2.8093
   18SAPC   C28 2326   1.003  -0.305  10.184 -0.2107 -0.0284  0.0022
   18SAPC   H8R 2327   0.905  -0.255  10.194 -0.2860 -0.3989  1.2481
   18SAPC   C29 2328   1.045  -0.324  10.057  0.3725 -0.3919 -0.2030
   18SAPC   H9R 2329   0.975  -0.283   9.983  0.5416  1.7352  0.7309
   18SAPC  C210 2330   1.179  -0.377  10.005 -0.3555 -1.0004  0.4711
   18SAPC  H10R 2331   1.162  -0.438   9.914  1.8998 -1.7626  0.5153
   18SAPC  H10S 2332   1.212  -0.449  10.083  0.2291 -1.0417  0.1928
   18SAPC  C211 2333   1.281  -0.267   9.977 -0.4552 -0.6318 -0.1285
   18SAPC  H11R 2334   1.258  -0.166  10.012  1.8519  0.2612 -1.0215
   18SAPC  C212 2335   1.383  -0.275   9.888  0.6747 -0.1341 -0.5062
   18SAPC  H12R 2336   1.443  -0.183   9.881  0.4363  0.1340  0.7510
   18SAPC  C213 2337   1.428  -0.381   9.799  0.1963 -0.3626 -0.5289
   18SAPC  H13R 2338   1.337  -0.430   9.759 -1.0070  2.0468 -0.9142
   18SAPC  H13S 2339   1.480  -0.452   9.868 -0.3074 -0.4528 -0.2390
   18SAPC  C214 2340   1.519  -0.353   9.689 -0.1553  0.9844 -0.1818
   18SAPC  H14R 2341   1.622  -0.324   9.713 -0.8466  2.0685  1.6715
   18SAPC  C215 2342   1.484  -0.364   9.561  0.0878 -0.4706  0.8138
   18SAPC  H15R 2343   1.560  -0.344   9.484  0.4842  3.0765  1.9529
   18SAPC  C216 2344   1.354  -0.417   9.505  0.2301  1.2201  0.2533
   18SAPC  H16R 2345   1.260  -0.372   9.545 -1.6146 -0.1688 -2.2163
   18SAPC  H16S 2346   1.362  -0.527   9.518 -2.2806  0.8416 -0.8659
   18SAPC  C217 2347   1.342  -0.405   9.352 -0.1344  0.8254  1.2473
   18SAPC  H17R 2348   1.338  -0.297   9.328 -0.1854  1.1227  2.5552
   18SAPC  H17S 2349   1.243  -0.454   9.337  0.7982 -0.7727 -0.0235
   18SAPC  C218 2350   1.444  -0.481   9.261 -0.4777 -0.4809 -0.0865
   18SAPC  H18R 2351   1.454  -0.591   9.270 -0.2209 -0.3429  1.6165
   18SAPC  H18S 2352   1.547  -0.444   9.277 -0.4305 -1.7013  2.9775
   18SAPC  C219 2353   1.404  -0.457   9.111  0.0543 -0.4342  0.6671
   18SAPC  H19R 2354   1.388  -0.348   9.093 -0.1017 -0.4684  0.6034
   18SAPC  H19S 2355   1.307  -0.509   9.097  0.4711 -1.4455  1.3942
   18SAPC  C220 2356   1.495  -0.512   9.003 -0.2403  0.7377  0.2081
   18SAPC  H20R 2357   1.467  -0.485   8.899 -0.8934  2.5382  0.8086
   18SAPC  H20S 2358   1.483  -0.621   9.020  0.6938  0.9110  2.2727
   18SAPC  H20T 2359   1.599  -0.485   9.031  0.6936 -1.6430 -0.7654
   18SAPC   C33 2360   1.593   0.549  10.018 -0.8288 -0.4838  0.4282
   18SAPC   H3X 2361   1.695   0.508  10.005 -0.8828 -0.6703  0.5970
   18SAPC   H3Y 2362   1.602   0.660  10.014  1.5933 -0.5873  1.3173
   18SAPC   C34 2363   1.521   0.516   9.887 -0.0853  0.4192 -0.3468
   18SAPC   H4X 2364   1.416   0.549   9.879 -0.3847  0.6140  3.0115
   18SAPC   H4Y 2365   1.513   0.407   9.868 -2.6123  0.3800  0.6229
   18SAPC   C35 2366   1.603   0.560   9.767  0.7837 -0.8781  0.4306
   18SAPC   H5X 2367   1.711   0.550   9.793  1.2626  1.7622 -0.2346
   18SAPC   H5Y 2368   1.595   0.669   9.744  0.7102 -0.9238  0.2391
   18SAPC   C36 2369   1.554   0.477   9.648  0.0249  0.5794 -0.0027
   18SAPC   H6X 2370   1.445   0.457   9.644  0.6727 -3.4574 -1.8039
   18SAPC   H6Y 2371   1.597   0.376   9.666 -1.2271 -0.3044 -1.6470
   18SAPC   C37 2372   1.608   0.538   9.517 -0.5789  0.4730 -0.1767
   18SAPC   H7X 2373   1.719   0.541   9.517 -0.4865 -0.7685  1.6115
   18SAPC   H7Y 2374   1.563   0.639   9.510 -1.6333  0.1706  1.4356
   18SAPC   C38 2375   1.567   0.456   9.395  0.3054  0.6555  0.4928
   18SAPC   H8X 2376   1.460   0.481   9.374 -0.2815 -1.1064  1.1856
   18SAPC   H8Y 2377   1.570   0.345   9.404 -0.3591  0.5248 -0.6580
   18SAPC   C39 2378   1.658   0.481   9.272 -0.3958  0.1180  0.1299
   18SAPC   H9X 2379   1.763   0.454   9.295  0.4813  1.5018 -1.9221
   18SAPC   H9Y 2380   1.656   0.589   9.246  1.5658 -0.1108 -1.2058
   18SAPC  C310 2381   1.611   0.417   9.141 -0.4199  0.2503 -0.2879
   18SAPC  H10X 2382   1.505   0.383   9.144 -0.9187  1.7638  0.3106
   18SAPC  H10Y 2383   1.666   0.325   9.113 -0.7099  0.5002 -1.8055
   18SAPC  C311 2384   1.614   0.524   9.032 -0.1421 -0.7522 -0.1582
   18SAPC  H11X 2385   1.720   0.559   9.036 -0.4184  0.4874 -2.1974
   18SAPC  H11Y 2386   1.547   0.610   9.053  0.2577 -0.5531  0.3275
   18SAPC  C312 2387   1.577   0.488   8.892 -0.3397  0.1374 -0.2028
   18SAPC  H12X 2388   1.469   0.465   8.881 -0.3222 -0.9919  1.6528
   18SAPC  H12Y 2389   1.628   0.394   8.861  2.1466  1.8190 -1.5804
   18SAPC  C313 2390   1.621   0.587   8.786  0.1488 -0.5381 -0.0742
   18SAPC  H13X 2391   1.732   0.582   8.784  0.1054 -1.6355 -0.4814
   18SAPC  H13Y 2392   1.589   0.690   8.814  1.3756  0.0568 -0.7880
   18SAPC  C314 2393   1.569   0.555   8.643  0.3090  0.8071 -0.2239
   18SAPC  H14X 2394   1.630   0.609   8.568  0.7475 -2.8209 -2.7276
   18SAPC  H14Y 2395   1.462   0.584   8.638  0.3756  0.9570 -0.8497
   18SAPC  C315 2396   1.574   0.406   8.612  0.5721 -0.0578  0.0047
   18SAPC  H15X 2397   1.499   0.344   8.667  0.4326  0.2435  0.1575
   18SAPC  H15Y 2398   1.676   0.366   8.631  1.2432  1.7425  0.3896
   18SAPC  C316 2399   1.552   0.391   8.457  0.3392  0.0707 -1.1386
   18SAPC  H16X 2400   1.610   0.475   8.412 -0.7207  3.0614  2.5747
   18SAPC  H16Y 2401   1.444   0.417   8.443  0.6514  3.3845  1.3681
   18SAPC  C317 2402   1.565   0.248   8.402  0.1130 -0.5051 -0.6997
   18SAPC  H17X 2403   1.486   0.183   8.445 -0.0644  0.5446  0.6266
   18SAPC  H17Y 2404   1.662   0.202   8.427  0.4591 -0.7467 -2.3735
   18SAPC  C318 2405   1.546   0.246   8.252  0.3475  0.0918  0.9505
   18SAPC  H18X 2406   1.445   0.237   8.206  1.4051  0.3968 -1.6615
   18SAPC  H18Y 2407   1.595   0.153   8.217  0.8784 -0.2492  2.5203
   18SAPC  H18Z 2408   1.602   0.330   8.205 -0.8699 -0.1669 -1.1119
   19SAPC     N 2409   0.528   3.312  10.578 -0.5172 -0.1536 -0.2551
   19SAPC   C12 2410   0.418   3.280  10.480  0.3428 -0.0007 -0.3342
   19SAPC  H12A 2411   0.462   3.200  10.421  1.8254  0.4396  0.1197
   19SAPC  H12B 2412   0.397   3.360  10.410 -0.0934  0.5428  0.4169
   19SAPC   C13 2413   0.578   3.194  10.639 -0.3234  0.4725 -0.4820
   19SAPC  H13A 2414   0.495   3.134  10.673  0.4445  0.4830  1.5410
   19SAPC  H13B 2415   0.635   3.139  10.566 -1.7273 -1.0047 -0.5238
   19SAPC  H13C 2416   0.639   3.213  10.726 -2.1394 -0.6780  1.1233
   19SAPC   C14 2417   0.643   3.385  10.507  0.2453  0.3318  0.5348
   19SAPC  H14A 2418   0.619   3.488  10.487 -0.0644 -0.3107 -2.9043
   19SAPC  H14B 2419   0.738   3.383  10.559  0.2353  0.8546  0.5791
   19SAPC  H14C 2420   0.653   3.334  10.413 -0.9787 -2.3953  1.7721
   19SAPC   C15 2421   0.487   3.407  10.694 -0.1226  0.8857 -0.1599
   19SAPC  H15A 2422   0.427   3.352  10.764 -1.2416 -0.8371 -2.3574
   19SAPC  H15B 2423   0.576   3.431  10.751  0.6053 -0.2808 -0.7614
   19SAPC  H15C 2424   0.429   3.491  10.659 -1.3176  0.7386  1.3991
   19SAPC   C11 2425   0.281   3.223  10.535  0.8909 -1.0828  0.5191
   19SAPC  H11A 2426   0.203   3.225  10.456  0.7348 -0.0994  0.6874
   19SAPC  H11B 2427   0.249   3.307  10.601 -1.9689 -0.7441 -1.1390
   19SAPC     P 2428   0.334   2.963  10.524  0.5677  0.0577 -0.1876
   19SAPC   O13 2429   0.441   2.889  10.595 -0.0647 -0.6887 -0.5020
   19SAPC   O14 2430   0.205   2.890  10.505 -0.7895  0.3594 -0.4392
   19SAPC   O12 2431   0.296   3.098  10.597 -0.1301 -0.2580  0.2382
   19SAPC   O11 2432   0.390   3.003  10.384  0.8662 -0.0207 -0.2982
   19SAPC    C1 2433   0.364   2.903  10.275 -0.3767  0.1958  0.1709
   19SAPC    HA 2434   0.465   2.898  10.229 -0.1900 -2.5210  0.7377
   19SAPC    HB 2435   0.341   2.800  10.308 -1.3197  0.8265  1.5933
   19SAPC    C2 2436   0.254   2.953  10.183 -0.4980 -0.3669  0.0723
   19SAPC    HS 2437   0.167   2.934  10.249  0.0820 -1.5889  0.5164
   19SAPC   O21 2438   0.257   2.877  10.059 -0.1066  0.4477  0.7044
   19SAPC   C21 2439   0.133   2.862  10.010  0.4330 -0.3622  0.6875
   19SAPC   O22 2440   0.032   2.898  10.067  0.1534  0.2303 -0.2798
   19SAPC   C22 2441   0.144   2.779   9.882 -0.0185 -0.4531 -0.3199
   19SAPC   H2R 2442   0.084   2.836   9.808 -2.9567 -0.1939  2.0697
   19SAPC   H2S 2443   0.248   2.759   9.850 -0.8099 -4.5969 -0.7993
   19SAPC    C3 2444   0.257   3.112  10.157 -0.3490  0.1852  0.4434
   19SAPC    HX 2445   0.259   3.166  10.254 -2.5513 -1.0229  1.2321
   19SAPC    HY 2446   0.169   3.151  10.102  0.7525  0.5287 -1.1455
   19SAPC   O31 2447   0.382   3.152  10.088  1.2301  0.3724 -0.5960
   19SAPC   C31 2448   0.369   3.151   9.963  0.6090  0.2725  0.5432
   19SAPC   O32 2449   0.261   3.133   9.903  0.3490  1.1579 -0.2035
   19SAPC   C32 2450   0.498   3.181   9.898  0.1159 -0.7908  0.5734
   19SAPC   H2X 2451   0.576   3.109   9.933  0.3164 -0.9230 -0.1189
   19SAPC   H2Y 2452   0.534   3.280   9.934  0.1297 -0.0054 -1.4595
   19SAPC   C23 2453   0.070   2.644   9.894 -0.6938  0.0916 -0.6584
   19SAPC   H3R 2454  -0.037   2.667   9.914 -0.3135  1.1825  0.2055
   19SAPC   H3S 2455   0.111   2.599   9.987 -3.1017  0.0093  0.4398
   19SAPC   C24 2456   0.095   2.557   9.777  0.1873  0.4178  0.2908
   19SAPC   H4R 2457   0.067   2.457   9.816 -1.5518  1.1098  0.8993
   19SAPC   H4S 2458   0.201   2.561   9.743 -0.0027  0.0902 -0.3574
   19SAPC   C25 2459   0.014   2.606   9.661  0.6485 -0.3001  0.7280
   19SAPC   H5R 2460  -0.094   2.615   9.680  0.4767 -0.5040 -0.1046
   19SAPC   C26 2461   0.055   2.660   9.544 -0.1589  0.2081 -0.2530
   19SAPC   H6R 2462  -0.023   2.686   9.471 -1.3232 -0.9299  0.5206
   19SAPC   C27 2463   0.196   2.678   9.505  0.1006  0.1360 -0.2358
   19SAPC   H7R 2464   0.244   2.580   9.483 -1.0898 -0.8463  1.2945
   19SAPC   H7S 2465   0.244   2.730   9.591 -0.8024  1.9057 -0.7493
   19SAPC   C28 2466   0.205   2.768   9.392  0.8337 -0.4737  0.7918
   19SAPC   H8R 2467   0.214   2.876   9.410  0.2386 -0.3005  0.0977
   19SAPC   C29 2468   0.207   2.730   9.263  0.7045 -0.1347 -0.2455
   19SAPC   H9R 2469   0.202   2.803   9.181 -2.7401 -0.1166 -0.1689
   19SAPC  C210 2470   0.186   2.590   9.211  0.1692 -0.3836  0.4490
   19SAPC  H10R 2471   0.170   2.517   9.293  1.8837 -0.8300  0.4319
   19SAPC  H10S 2472   0.283   2.558   9.167  0.2025  1.1217 -0.6288
   19SAPC  C211 2473   0.083   2.581   9.092 -0.1424 -0.0376 -0.1262
   19SAPC  H11R 2474  -0.018   2.545   9.117  0.3385 -1.6138 -0.3535
   19SAPC  C212 2475   0.112   2.629   8.968 -0.0162  0.2916 -0.1297
   19SAPC  H12R 2476   0.031   2.614   8.896  0.9083  0.9941 -1.3689
   19SAPC  C213 2477   0.238   2.694   8.904 -0.1916 -0.3702  0.1430
   19SAPC  H13R 2478   0.259   2.657   8.801 -0.3571 -2.1648  0.7264
   19SAPC  H13S 2479   0.329   2.659   8.957 -0.7562 -1.5063  0.3976
   19SAPC  C214 2480   0.217   2.847   8.900 -0.2177  0.0213 -0.1337
   19SAPC  H14R 2481   0.227   2.899   8.997 -0.9881  0.8472 -0.4890
   19SAPC  C215 2482   0.177   2.910   8.788 -0.5106  0.1594 -0.5822
   19SAPC  H15R 2483   0.151   3.016   8.800 -1.0563 -0.1980  2.0332
   19SAPC  C216 2484   0.166   2.849   8.650  0.2587  0.4698  0.2685
   19SAPC  H16R 2485   0.107   2.912   8.580  0.9710 -1.6333 -2.3832
   19SAPC  H16S 2486   0.102   2.758   8.651 -1.7570  1.8190  1.1794
   19SAPC  C217 2487   0.300   2.836   8.577 -0.0960  0.2122  0.1460
   19SAPC  H17R 2488   0.363   2.776   8.647 -0.1925  0.4399  0.4308
   19SAPC  H17S 2489   0.333   2.942   8.579  1.1047 -0.1453  1.4185
   19SAPC  C218 2490   0.290   2.769   8.437  0.8697  0.2975 -0.2711
   19SAPC  H18R 2491   0.385   2.787   8.383  0.1880 -2.0407 -2.4381
   19SAPC  H18S 2492   0.196   2.808   8.392  2.5290  1.8543 -2.6561
   19SAPC  C219 2493   0.272   2.619   8.453  0.1339  0.3578 -0.0610
   19SAPC  H19R 2494   0.194   2.607   8.531  0.6907  1.5512  0.7070
   19SAPC  H19S 2495   0.362   2.576   8.502 -1.1851 -1.5714  0.8367
   19SAPC  C220 2496   0.241   2.541   8.324  0.4742  0.6015 -0.3352
   19SAPC  H20R 2497   0.324   2.546   8.250 -0.9086  2.6679 -1.8533
   19SAPC  H20S 2498   0.148   2.586   8.283  0.2324  1.5440  1.1831
   19SAPC  H20T 2499   0.219   2.436   8.351 -2.0438  1.2790  0.5422
   19SAPC   C33 2500   0.491   3.186   9.749  0.1029  0.0169 -0.4410
   19SAPC   H3X 2501   0.590   3.219   9.712  0.1211  0.1530 -0.2735
   19SAPC   H3Y 2502   0.410   3.250   9.707 -0.2889 -0.4290 -0.3740
   19SAPC   C34 2503   0.473   3.047   9.686  0.2408  0.8860 -0.0678
   19SAPC   H4X 2504   0.374   3.009   9.717  0.8513  1.8989  3.5731
   19SAPC   H4Y 2505   0.545   2.977   9.733 -1.2536 -0.1779  0.7329
   19SAPC   C35 2506   0.479   3.028   9.533  0.6726  1.0028  0.5399
   19SAPC   H5X 2507   0.442   2.926   9.510  1.0023  0.8759  0.5543
   19SAPC   H5Y 2508   0.584   3.024   9.497 -0.3817  0.0309 -2.8028
   19SAPC   C36 2509   0.392   3.138   9.467  0.6008 -0.1512  0.1345
   19SAPC   H6X 2510   0.436   3.238   9.489 -0.3734  0.3104 -0.0038
   19SAPC   H6Y 2511   0.293   3.133   9.516 -0.1099 -1.4720 -1.3899
   19SAPC   C37 2512   0.366   3.105   9.321  0.1742 -0.5859 -0.5518
   19SAPC   H7X 2513   0.277   3.165   9.295  0.3549  0.2411  0.6898
   19SAPC   H7Y 2514   0.343   2.996   9.315  1.5759 -0.8733 -1.3679
   19SAPC   C38 2515   0.483   3.128   9.226  0.1964 -0.3070 -0.1989
   19SAPC   H8X 2516   0.568   3.066   9.261  1.0586 -0.1675 -1.9300
   19SAPC   H8Y 2517   0.520   3.233   9.221 -0.1286 -0.1195  1.0186
   19SAPC   C39 2518   0.455   3.082   9.082 -0.0975  0.2290 -0.4234
   19SAPC   H9X 2519   0.366   3.137   9.043 -0.0645  0.9419  0.4760
   19SAPC   H9Y 2520   0.438   2.973   9.097  0.0332  0.1194 -1.0592
   19SAPC  C310 2521   0.573   3.090   8.983 -0.4966  0.0293  1.1763
   19SAPC  H10X 2522   0.645   3.008   9.005 -1.4185 -1.4669 -1.1099
   19SAPC  H10Y 2523   0.609   3.195   8.991 -1.2922  0.1959  3.1698
   19SAPC  C311 2524   0.526   3.091   8.834 -0.0670  0.3787  0.0608
   19SAPC  H11X 2525   0.454   3.175   8.821  0.7042  1.4930  2.4324
   19SAPC  H11Y 2526   0.473   2.994   8.822 -0.4515  0.6187 -0.2052
   19SAPC  C312 2527   0.647   3.095   8.743  0.0835 -0.3568 -0.2108
   19SAPC  H12X 2528   0.717   3.013   8.773  2.2311  1.4267 -0.0709
   19SAPC  H12Y 2529   0.709   3.186   8.747  0.4020 -0.3599 -2.8939
   19SAPC  C313 2530   0.603   3.056   8.603 -0.4724  0.0325  0.0886
   19SAPC  H13X 2531   0.538   3.136   8.562 -0.2417  0.5923  0.7899
   19SAPC  H13Y 2532   0.546   2.961   8.603 -0.1449 -0.1651 -0.6485
   19SAPC  C314 2533   0.715   3.044   8.504 -0.3114  0.1163  0.2769
   19SAPC  H14X 2534   0.798   2.990   8.554 -0.4185 -0.5914 -0.2837
   19SAPC  H14Y 2535   0.752   3.147   8.486 -3.5168  1.5054  0.9584
   19SAPC  C315 2536   0.669   2.977   8.370  0.1569  0.2891 -0.5358
   19SAPC  H15X 2537   0.614   3.046   8.303 -1.3596 -1.0969 -0.8058
   19SAPC  H15Y 2538   0.591   2.902   8.397 -0.8305  2.3400  2.8724
   19SAPC  C316 2539   0.791   2.913   8.303 -0.7114 -0.1022  0.2040
   19SAPC  H16X 2540   0.851   2.846   8.367  1.9018  1.6640 -0.2315
   19SAPC  H16Y 2541   0.857   3.001   8.286 -2.0216  0.5617 -1.8998
   19SAPC  C317 2542   0.760   2.850   8.172  0.0454  0.2841  0.5436
   19SAPC  H17X 2543   0.715   2.927   8.106  1.6237 -0.2207 -1.1970
   19SAPC  H17Y 2544   0.689   2.766   8.184 -1.6867  1.2575 -2.0689
   19SAPC  C318 2545   0.877   2.802   8.088 -0.0048  1.3236 -0.2496
   19SAPC  H18X 2546   0.847   2.771   7.986 -0.3488 -0.5897  0.3875
   19SAPC  H18Y 2547   0.932   2.715   8.131  2.6190  2.1425 -1.6891
   19SAPC  H18Z 2548   0.957   2.880   8.081  0.3227  0.8288 -3.6596
   20SAPC     N 2549   6.324   4.541  11.036  0.1090  0.1153  0.1920
   20SAPC   C12 2550   6.327   4.612  10.905 -0.2738 -0.2283  0.4726
   20SAPC  H12A 2551   6.424   4.657  10.886 -1.3164  2.4696  1.1426
   20SAPC  H12B 2552   6.257   4.693  10.911  0.0965  0.3565 -2.0453
   20SAPC   C13 2553   6.397   4.625  11.138  0.0190 -0.5356  0.7527
   20SAPC  H13A 2554   6.501   4.650  11.122  0.4276 -0.8771  2.6001
   20SAPC  H13B 2555   6.349   4.720  11.158 -3.4804 -1.8232 -0.8604
   20SAPC  H13C 2556   6.389   4.582  11.237 -0.3554  2.3291  2.0784
   20SAPC   C14 2557   6.180   4.529  11.083  0.0981  0.0627  0.4856
   20SAPC  H14A 2558   6.132   4.486  10.996 -0.4600 -1.3905  1.4689
   20SAPC  H14B 2559   6.148   4.450  11.150 -3.1825 -0.2628 -1.2656
   20SAPC  H14C 2560   6.137   4.621  11.118 -0.4334  0.3390 -0.8289
   20SAPC   C15 2561   6.390   4.412  11.033  0.0581 -0.2868 -0.4335
   20SAPC  H15A 2562   6.345   4.335  10.973  1.0582 -1.4592  0.2781
   20SAPC  H15B 2563   6.489   4.431  10.994 -0.9103  1.3279 -2.3293
   20SAPC  H15C 2564   6.384   4.368  11.131  1.3720 -1.0310 -0.6707
   20SAPC   C11 2565   6.287   4.529  10.776  0.1393  0.0738 -0.7050
   20SAPC  H11A 2566   6.367   4.455  10.758  0.8908  0.8354 -0.5772
   20SAPC  H11B 2567   6.286   4.608  10.697 -0.0967 -0.3908 -1.1720
   20SAPC     P 2568   6.028   4.560  10.723  0.4297 -0.0300 -0.1477
   20SAPC   O13 2569   5.925   4.569  10.828  0.6658  0.6486 -0.2981
   20SAPC   O14 2570   6.075   4.688  10.664  0.0843 -0.1347 -0.3954
   20SAPC   O12 2571   6.151   4.476  10.789  0.2436 -0.8888  0.4570
   20SAPC   O11 2572   5.964   4.463  10.614 -0.0262 -0.1055  0.3356
   20SAPC    C1 2573   6.046   4.374  10.538 -0.3058  0.1305 -0.4386
   20SAPC    HA 2574   6.109   4.309  10.603  0.4359  0.6321 -0.6455
   20SAPC    HB 2575   5.988   4.306  10.473  0.9215 -1.5801  0.1658
   20SAPC    C2 2576   6.146   4.447  10.442 -0.1022 -0.2715  1.1001
   20SAPC    HS 2577   6.213   4.522  10.487  1.9684 -1.0497 -0.5319
   20SAPC   O21 2578   6.071   4.497  10.326 -0.4500 -0.6219 -0.1893
   20SAPC   C21 2579   6.077   4.628  10.301 -0.2102  0.1925 -0.3541
   20SAPC   O22 2580   6.164   4.705  10.333  0.5053  1.0361 -0.0621
   20SAPC   C22 2581   5.949   4.666  10.216 -0.5272  0.0106 -0.1727
   20SAPC   H2R 2582   5.922   4.584  10.146 -1.2961  0.6893 -0.6927
   20SAPC   H2S 2583   5.865   4.681  10.287  0.1492 -2.5526  1.3011
   20SAPC    C3 2584   6.238   4.340  10.374 -0.6378 -0.1084  0.0537
   20SAPC    HX 2585   6.302   4.303  10.457 -0.9562  1.6283  1.1273
   20SAPC    HY 2586   6.311   4.384  10.303 -1.0591 -1.2864 -1.1350
   20SAPC   O31 2587   6.175   4.228  10.309  0.1401 -0.5306 -0.5299
   20SAPC   C31 2588   6.154   4.245  10.177 -0.1535 -1.0443  0.8149
   20SAPC   O32 2589   6.212   4.326  10.106  0.0734  0.1599 -0.4298
   20SAPC   C32 2590   6.071   4.134  10.126  0.0433 -0.4679 -0.0403
   20SAPC   H2X 2591   5.998   4.109  10.206  2.1392 -1.1534  1.7541
   20SAPC   H2Y 2592   6.145   4.052  10.117  2.2450  1.3963  0.2342
   20SAPC   C23 2593   5.979   4.800  10.144  0.0812 -0.0090  0.0285
   20SAPC   H3R 2594   6.020   4.878  10.211 -0.9784 -0.8614  1.7478
   20SAPC   H3S 2595   5.882   4.834  10.100  0.1268 -0.7026 -0.6217
   20SAPC   C24 2596   6.083   4.784  10.027 -0.0684  0.0035  1.1087
   20SAPC   H4R 2597   6.180   4.760  10.074  0.1120  1.7514  1.7041
   20SAPC   H4S 2598   6.101   4.889   9.996  0.5318 -0.4864 -0.3041
   20SAPC   C25 2599   6.060   4.699   9.907  0.7639 -0.5263 -0.3715
   20SAPC   H5R 2600   6.063   4.592   9.928  1.3357 -0.5824 -0.7170
   20SAPC   C26 2601   6.018   4.724   9.779 -0.4021 -0.1386  0.4049
   20SAPC   H6R 2602   6.005   4.638   9.712  0.2657  0.2992 -0.3044
   20SAPC   C27 2603   5.975   4.854   9.728 -0.4667 -0.2306  0.5857
   20SAPC   H7R 2604   5.937   4.928   9.802 -2.4120 -2.9098  2.4793
   20SAPC   H7S 2605   5.884   4.846   9.663  0.2359  0.1818 -0.4805
   20SAPC   C28 2606   6.069   4.920   9.628  0.5944 -0.2822 -1.1769
   20SAPC   H8R 2607   6.144   4.987   9.670  0.5937 -0.3787 -1.0224
   20SAPC   C29 2608   6.075   4.913   9.496 -0.1100 -0.9472 -0.1063
   20SAPC   H9R 2609   6.149   4.974   9.442 -0.7263  0.1513  0.2556
   20SAPC  C210 2610   5.993   4.821   9.406  0.6299 -0.1681 -0.3781
   20SAPC  H10R 2611   5.941   4.882   9.329  0.4396 -1.6052 -1.4296
   20SAPC  H10S 2612   5.911   4.762   9.453  0.0426  0.1814 -0.9452
   20SAPC  C211 2613   6.074   4.724   9.324  0.7181 -0.4106 -0.4214
   20SAPC  H11R 2614   6.183   4.734   9.325  1.0757 -3.3951 -1.2679
   20SAPC  C212 2615   6.011   4.633   9.249 -0.1935 -0.3406 -0.5526
   20SAPC  H12R 2616   6.078   4.572   9.186  1.3084 -1.9183  2.3523
   20SAPC  C213 2617   5.855   4.625   9.229  0.3907  0.2019  0.4787
   20SAPC  H13R 2618   5.822   4.706   9.161  2.7044  0.7692 -0.0540
   20SAPC  H13S 2619   5.795   4.643   9.320  1.3902  0.8927  1.0122
   20SAPC  C214 2620   5.822   4.492   9.179 -0.0651 -0.1183 -0.2934
   20SAPC  H14R 2621   5.802   4.486   9.071  1.0399 -0.1353 -0.5022
   20SAPC  C215 2622   5.799   4.382   9.260 -0.3595 -0.8812  0.7848
   20SAPC  H15R 2623   5.777   4.285   9.213 -1.2924 -1.1768  1.7910
   20SAPC  C216 2624   5.808   4.367   9.419  0.3814 -0.6685  0.7195
   20SAPC  H16R 2625   5.703   4.364   9.456 -0.0798  1.1788 -0.2991
   20SAPC  H16S 2626   5.842   4.464   9.461 -0.7620 -0.4692  1.2371
   20SAPC  C217 2627   5.896   4.251   9.463 -0.4569  0.3397 -0.1595
   20SAPC  H17R 2628   5.871   4.166   9.396  0.4744  0.7285 -1.0314
   20SAPC  H17S 2629   5.858   4.234   9.566  2.7503 -0.1136  1.0570
   20SAPC  C218 2630   6.044   4.282   9.453  0.3164 -0.1744 -0.5167
   20SAPC  H18R 2631   6.054   4.375   9.513  1.3798  1.5926 -3.2831
   20SAPC  H18S 2632   6.069   4.295   9.346  2.9143  1.3438  0.1737
   20SAPC  C219 2633   6.126   4.168   9.517  0.1320 -0.2546  0.6821
   20SAPC  H19R 2634   6.152   4.111   9.426  0.4978  1.6617 -0.4678
   20SAPC  H19S 2635   6.065   4.122   9.598 -0.6849  1.9062  1.3661
   20SAPC  C220 2636   6.255   4.208   9.580 -0.5324 -0.1055  0.0303
   20SAPC  H20R 2637   6.336   4.228   9.507  0.1625 -2.5846  0.0384
   20SAPC  H20S 2638   6.293   4.118   9.634 -0.0072 -0.1805 -0.4557
   20SAPC  H20T 2639   6.231   4.288   9.654  0.2103 -0.8722  1.1261
   20SAPC   C33 2640   5.998   4.177   9.999  0.9760 -1.2054 -0.0138
   20SAPC   H3X 2641   5.946   4.090   9.954  0.1876 -0.7589  0.0279
   20SAPC   H3Y 2642   6.071   4.211   9.922  1.2125 -1.6976 -0.0073
   20SAPC   C34 2643   5.898   4.289  10.010  0.1066 -0.4109  0.3149
   20SAPC   H4X 2644   5.938   4.375  10.068 -1.4288  0.1943  0.5480
   20SAPC   H4Y 2645   5.815   4.244  10.069  0.9703 -0.3321  1.6407
   20SAPC   C35 2646   5.827   4.338   9.884  0.7158 -0.5833  0.2196
   20SAPC   H5X 2647   5.770   4.252   9.844  1.5283 -1.2628  0.4978
   20SAPC   H5Y 2648   5.895   4.383   9.808 -1.0918 -1.5419 -2.0694
   20SAPC   C36 2649   5.728   4.455   9.924  0.5590 -0.0669 -0.0468
   20SAPC   H6X 2650   5.798   4.536   9.954  0.1646  0.1638  0.2739
   20SAPC   H6Y 2651   5.654   4.429  10.003 -0.4560  0.4614 -0.7946
   20SAPC   C37 2652   5.644   4.502   9.802  0.0122  0.3514  0.0274
   20SAPC   H7X 2653   5.562   4.433   9.773  0.8608 -1.9845  2.6984
   20SAPC   H7Y 2654   5.712   4.522   9.717 -1.1947  0.7912 -0.8618
   20SAPC   C38 2655   5.569   4.638   9.832 -0.4171 -0.7679 -0.4319
   20SAPC   H8X 2656   5.645   4.709   9.871  1.4676 -2.7059 -0.4484
   20SAPC   H8Y 2657   5.494   4.624   9.913 -0.5005  1.9228  0.0694
   20SAPC   C39 2658   5.513   4.704   9.712 -0.0120 -0.3400  0.1717
   20SAPC   H9X 2659   5.583   4.723   9.628 -2.4620  1.6635 -1.5859
   20SAPC   H9Y 2660   5.484   4.806   9.743 -1.6694 -0.4947 -0.7441
   20SAPC  C310 2661   5.387   4.636   9.653 -0.0223 -0.3531 -0.0031
   20SAPC  H10X 2662   5.297   4.658   9.715 -0.1069 -0.8688  0.0639
   20SAPC  H10Y 2663   5.395   4.525   9.656 -2.2683 -0.7151 -3.2266
   20SAPC  C311 2664   5.373   4.663   9.504 -0.6684  0.2564  0.2176
   20SAPC  H11X 2665   5.449   4.617   9.437 -0.6518  0.3888  0.1460
   20SAPC  H11Y 2666   5.391   4.771   9.489  0.5171  0.1527  0.7675
   20SAPC  C312 2667   5.239   4.627   9.440  0.0314  0.9180  0.3535
   20SAPC  H12X 2668   5.149   4.673   9.488 -1.6550  1.2290 -2.8521
   20SAPC  H12Y 2669   5.215   4.519   9.445 -2.6022  1.3495 -1.1050
   20SAPC  C313 2670   5.235   4.655   9.290  0.4641 -0.2458 -0.4633
   20SAPC  H13X 2671   5.314   4.593   9.243  1.0500  0.1293  0.0048
   20SAPC  H13Y 2672   5.264   4.761   9.273  0.1235  0.0212  0.5337
   20SAPC  C314 2673   5.099   4.623   9.230  0.2618  0.0485  0.2242
   20SAPC  H14X 2674   5.011   4.640   9.296 -0.4862  0.3773 -0.8344
   20SAPC  H14Y 2675   5.093   4.513   9.217 -0.0519  0.0872  0.0333
   20SAPC  C315 2676   5.077   4.688   9.098 -0.1501 -0.1414 -0.7682
   20SAPC  H15X 2677   5.003   4.638   9.032 -0.4429 -2.4920  1.2229
   20SAPC  H15Y 2678   5.173   4.694   9.043  0.1481 -2.7178 -0.6204
   20SAPC  C316 2679   5.028   4.827   9.110  0.5109  0.9913  0.3120
   20SAPC  H16X 2680   5.105   4.887   9.164  1.0956 -0.6866  1.4402
   20SAPC  H16Y 2681   4.938   4.824   9.174  1.9789  0.5938  2.4777
   20SAPC  C317 2682   4.997   4.904   8.979 -0.0851  0.3970  0.6428
   20SAPC  H17X 2683   4.926   4.834   8.930  1.0452 -2.0968  2.3482
   20SAPC  H17Y 2684   5.095   4.905   8.927 -0.4105 -0.3629 -0.0099
   20SAPC  C318 2685   4.944   5.046   8.999  0.0138  0.8400 -0.4049
   20SAPC  H18X 2686   5.012   5.087   9.077 -2.3273 -0.0226  2.2418
   20SAPC  H18Y 2687   4.847   5.035   9.050  0.9083 -0.2586  1.1455
   20SAPC  H18Z 2688   4.930   5.116   8.914 -0.7103 -1.6115 -2.4521
   21SAPC     N 2689   6.601   3.758  10.709  0.3345 -0.5368 -0.0319
   21SAPC   C12 2690   6.719   3.762  10.612 -0.6180  0.1815 -0.4373
   21SAPC  H12A 2691   6.739   3.661  10.578 -1.1955 -0.2629  0.4969
   21SAPC  H12B 2692   6.803   3.804  10.666  0.5798 -1.2235 -1.1457
   21SAPC   C13 2693   6.482   3.712  10.631  0.0364  0.3777 -0.3246
   21SAPC  H13A 2694   6.507   3.617  10.587  1.4777  1.2216 -1.4100
   21SAPC  H13B 2695   6.391   3.704  10.689  0.5501  0.9885  0.5792
   21SAPC  H13C 2696   6.453   3.781  10.553 -1.0748 -0.1768 -0.4267
   21SAPC   C14 2697   6.620   3.656  10.814  0.4205 -0.6582 -0.3658
   21SAPC  H14A 2698   6.685   3.699  10.889  0.0309 -0.2848 -0.2349
   21SAPC  H14B 2699   6.520   3.629  10.845  0.3737 -2.0545 -1.6269
   21SAPC  H14C 2700   6.666   3.563  10.786  1.3798 -0.6039  0.9313
   21SAPC   C15 2701   6.576   3.887  10.773 -0.7031 -0.2045 -0.0156
   21SAPC  H15A 2702   6.537   3.961  10.705  1.1187  0.0621 -0.8288
   21SAPC  H15B 2703   6.492   3.868  10.837 -0.1525 -0.2385  0.7037
   21SAPC  H15C 2704   6.659   3.930  10.828 -1.4335  3.1142 -1.2796
   21SAPC   C11 2705   6.719   3.851  10.483 -0.6884 -0.3882  0.1801
   21SAPC  H11A 2706   6.642   3.823  10.408 -0.7239 -1.2591  0.5274
   21SAPC  H11B 2707   6.812   3.824  10.429  0.2571  0.6979  1.1896
   21SAPC     P 2708   6.852   4.053  10.575 -0.1679 -0.2239  0.1062
   21SAPC   O13 2709   6.825   4.163  10.670  0.8183  0.2857  1.0163
   21SAPC   O14 2710   6.940   3.942  10.622  0.1699 -0.3218 -0.1851
   21SAPC   O12 2711   6.714   3.988  10.530 -0.1019 -0.2452  0.3431
   21SAPC   O11 2712   6.907   4.114  10.439 -0.6601 -0.1017 -0.1297
   21SAPC    C1 2713   6.804   4.131  10.340  0.2339 -0.5387  0.0518
   21SAPC    HA 2714   6.861   4.135  10.245 -1.1095 -0.4812 -0.7762
   21SAPC    HB 2715   6.723   4.056  10.324 -1.6937  1.6574 -1.2128
   21SAPC    C2 2716   6.717   4.265  10.338  0.3581 -0.0595 -0.7826
   21SAPC    HS 2717   6.626   4.240  10.396  1.1851 -1.3488  0.0160
   21SAPC   O21 2718   6.689   4.304  10.201 -0.0163  0.3321  0.3958
   21SAPC   C21 2719   6.599   4.233  10.143  0.5845 -0.4903 -0.5925
   21SAPC   O22 2720   6.516   4.159  10.193  0.1079  0.7821  0.4382
   21SAPC   C22 2721   6.598   4.264   9.995 -0.3046 -0.0218 -0.2927
   21SAPC   H2R 2722   6.518   4.338   9.973 -0.0514  0.2457 -0.3080
   21SAPC   H2S 2723   6.699   4.304   9.975  0.9953 -1.5236  2.7357
   21SAPC    C3 2724   6.790   4.383  10.404 -0.1709 -0.9568  0.1179
   21SAPC    HX 2725   6.889   4.384  10.354  1.1259 -0.5482  2.5262
   21SAPC    HY 2726   6.795   4.358  10.513 -0.4851  0.0728  0.3712
   21SAPC   O31 2727   6.724   4.509  10.378  0.3773 -0.7171 -0.1041
   21SAPC   C31 2728   6.607   4.521  10.429  0.2224 -0.0079 -0.1689
   21SAPC   O32 2729   6.556   4.438  10.511 -0.5523 -0.8721  0.4328
   21SAPC   C32 2730   6.541   4.657  10.396  0.4992 -0.7875  0.1542
   21SAPC   H2X 2731   6.619   4.736  10.402  0.3588 -0.7912  3.3810
   21SAPC   H2Y 2732   6.479   4.671  10.486  1.8509 -1.4797  1.2303
   21SAPC   C23 2733   6.596   4.129   9.931  0.9330  0.1501  0.0626
   21SAPC   H3R 2734   6.503   4.073   9.956 -0.3863  3.2422  2.7470
   21SAPC   H3S 2735   6.676   4.064   9.973 -0.6180 -0.9701  1.4260
   21SAPC   C24 2736   6.595   4.137   9.782  0.2710 -0.7753 -1.2282
   21SAPC   H4R 2737   6.510   4.202   9.752 -1.4690 -2.1356  0.5060
   21SAPC   H4S 2738   6.572   4.043   9.729 -0.6013  0.4558 -3.1453
   21SAPC   C25 2739   6.727   4.178   9.723  0.7074  0.3563 -0.1317
   21SAPC   H5R 2740   6.813   4.145   9.784  0.6299 -1.1363 -0.7858
   21SAPC   C26 2741   6.746   4.223   9.595  0.3907 -0.5296  0.1412
   21SAPC   H6R 2742   6.839   4.275   9.568 -1.5768  2.3798 -1.6074
   21SAPC   C27 2743   6.632   4.233   9.491  0.1397  0.7774 -0.0491
   21SAPC   H7R 2744   6.658   4.315   9.421 -0.5260  0.0770 -1.1478
   21SAPC   H7S 2745   6.531   4.252   9.533 -1.4760 -0.6497 -2.9957
   21SAPC   C28 2746   6.625   4.105   9.418 -0.3470  0.0851 -0.0417
   21SAPC   H8R 2747   6.580   4.015   9.463 -2.4826  0.5606 -1.0951
   21SAPC   C29 2748   6.667   4.087   9.290 -0.1762 -0.5367  0.3737
   21SAPC   H9R 2749   6.673   3.986   9.247  2.3903 -0.1393 -0.4237
   21SAPC  C210 2750   6.721   4.184   9.182 -0.0651 -0.3512  0.0861
   21SAPC  H10R 2751   6.825   4.162   9.149  0.2664  0.8927  0.2776
   21SAPC  H10S 2752   6.741   4.280   9.233  4.0211  0.4355 -2.5295
   21SAPC  C211 2753   6.624   4.192   9.063 -0.5055 -0.0285 -0.7529
   21SAPC  H11R 2754   6.520   4.200   9.099 -0.5860  1.9612 -1.3367
   21SAPC  C212 2755   6.657   4.184   8.938  0.4538 -0.4547  0.1617
   21SAPC  H12R 2756   6.576   4.187   8.864 -0.6760 -0.2148  1.3891
   21SAPC  C213 2757   6.800   4.174   8.893 -0.8943  0.3248  0.1218
   21SAPC  H13R 2758   6.865   4.239   8.955  0.0322  0.5201 -1.0136
   21SAPC  H13S 2759   6.799   4.232   8.798 -0.3894  0.9038  0.4645
   21SAPC  C214 2760   6.858   4.038   8.872  0.2890  0.6433 -0.8384
   21SAPC  H14R 2761   6.881   3.991   8.969 -1.1164  0.8075 -0.3926
   21SAPC  C215 2762   6.866   3.961   8.767  0.7013  0.3980 -0.1784
   21SAPC  H15R 2763   6.908   3.859   8.777  0.8633  0.6327  1.9978
   21SAPC  C216 2764   6.805   4.003   8.636  0.4431  0.7167  0.3013
   21SAPC  H16R 2765   6.885   4.017   8.560  0.5572 -1.5602 -0.0784
   21SAPC  H16S 2766   6.753   4.101   8.639 -1.7870 -0.4309  2.0590
   21SAPC  C217 2767   6.710   3.899   8.574  0.3245 -0.8041  0.4490
   21SAPC  H17R 2768   6.601   3.922   8.578  0.2152 -1.3552  0.7716
   21SAPC  H17S 2769   6.691   3.812   8.640 -2.5415 -1.5368 -1.1365
   21SAPC  C218 2770   6.755   3.851   8.436  0.0180 -0.3011 -0.1847
   21SAPC  H18R 2771   6.860   3.815   8.435  0.5050  0.7915  2.4057
   21SAPC  H18S 2772   6.764   3.944   8.376 -0.6753 -0.6361 -0.8303
   21SAPC  C219 2773   6.657   3.745   8.378  0.3516 -1.1576 -0.3000
   21SAPC  H19R 2774   6.556   3.791   8.392  1.2187  0.2335  1.7933
   21SAPC  H19S 2775   6.644   3.655   8.441 -2.9574 -1.3146 -1.0068
   21SAPC  C220 2776   6.683   3.714   8.230  0.2965 -0.3177 -0.4745
   21SAPC  H20R 2777   6.607   3.647   8.184  1.3642 -2.4058  0.6255
   21SAPC  H20S 2778   6.786   3.674   8.225  1.8163  3.2549 -0.6911
   21SAPC  H20T 2779   6.682   3.808   8.172 -1.7615 -0.2746 -0.4411
   21SAPC   C33 2780   6.461   4.680  10.263 -0.2643 -0.1044 -1.2980
   21SAPC   H3X 2781   6.409   4.778  10.262  1.2069  0.6934 -1.3108
   21SAPC   H3Y 2782   6.387   4.598  10.272  0.0739 -0.3317 -0.5179
   21SAPC   C34 2783   6.541   4.680  10.130  0.7601  0.0094  0.8050
   21SAPC   H4X 2784   6.604   4.589  10.133  1.8424  0.7650  1.4818
   21SAPC   H4Y 2785   6.608   4.766  10.112 -1.1646  1.0879 -1.9658
   21SAPC   C35 2786   6.439   4.668  10.007 -0.6506 -0.0169 -0.2623
   21SAPC   H5X 2787   6.369   4.754   9.997 -1.4171 -0.5095  0.6387
   21SAPC   H5Y 2788   6.372   4.583  10.034 -2.3818  1.2527 -0.3463
   21SAPC   C36 2789   6.512   4.650   9.870 -0.1997  0.3368  0.6817
   21SAPC   H6X 2790   6.562   4.552   9.879  0.9869  0.4924 -2.8185
   21SAPC   H6Y 2791   6.584   4.733   9.857 -0.9487  0.9819  0.5300
   21SAPC   C37 2792   6.420   4.654   9.748 -0.2866 -0.6609  0.4854
   21SAPC   H7X 2793   6.355   4.744   9.757  1.0934  0.3877  0.2073
   21SAPC   H7Y 2794   6.346   4.571   9.758 -1.2677  0.0966 -0.3140
   21SAPC   C38 2795   6.487   4.642   9.611 -0.0327  0.1160  0.1152
   21SAPC   H8X 2796   6.565   4.563   9.618  1.4938  1.5624  0.2061
   21SAPC   H8Y 2797   6.540   4.738   9.591  1.0538 -0.3673  0.5707
   21SAPC   C39 2798   6.389   4.615   9.500 -0.1135 -0.2644 -0.1658
   21SAPC   H9X 2799   6.304   4.686   9.514  0.5029  0.5322 -0.3832
   21SAPC   H9Y 2800   6.349   4.512   9.504 -0.0961 -0.2654 -0.0315
   21SAPC  C310 2801   6.438   4.622   9.350 -0.1091  0.1434 -0.0540
   21SAPC  H10X 2802   6.549   4.617   9.349 -0.1024 -0.2092  1.0935
   21SAPC  H10Y 2803   6.410   4.725   9.321  0.7304  0.4838  0.2926
   21SAPC  C311 2804   6.375   4.524   9.256  0.3239 -0.1182  0.7793
   21SAPC  H11X 2805   6.270   4.509   9.291  0.4766  0.1844  1.3713
   21SAPC  H11Y 2806   6.436   4.431   9.266 -0.6966 -1.0135 -0.7880
   21SAPC  C312 2807   6.370   4.571   9.112 -0.0582  0.5110 -0.3674
   21SAPC  H12X 2808   6.477   4.571   9.082  0.3621 -1.2896  0.9779
   21SAPC  H12Y 2809   6.322   4.672   9.112  0.7320  0.9658  2.1852
   21SAPC  C313 2810   6.303   4.458   9.028 -1.1808  0.7659 -0.1293
   21SAPC  H13X 2811   6.199   4.443   9.064 -0.7923 -0.0596  0.6917
   21SAPC  H13Y 2812   6.360   4.368   9.060 -1.5781  0.6301  0.2191
   21SAPC  C314 2813   6.320   4.483   8.882 -0.1375 -0.9762  0.0315
   21SAPC  H14X 2814   6.260   4.403   8.832 -2.1196  0.4016  0.1072
   21SAPC  H14Y 2815   6.429   4.477   8.860  0.0802  2.4857 -0.3425
   21SAPC  C315 2816   6.294   4.621   8.831 -0.5174 -0.0447  0.2846
   21SAPC  H15X 2817   6.336   4.706   8.889 -1.5574 -0.1857  1.2912
   21SAPC  H15Y 2818   6.183   4.626   8.843 -0.7020 -0.2169 -1.1781
   21SAPC  C316 2819   6.344   4.632   8.688  0.2415  0.3598  0.2004
   21SAPC  H16X 2820   6.325   4.737   8.655 -2.8798 -0.0964  0.2907
   21SAPC  H16Y 2821   6.301   4.561   8.615 -1.8721  2.3706 -0.6407
   21SAPC  C317 2822   6.502   4.612   8.670  0.1144 -0.3063  0.5679
   21SAPC  H17X 2823   6.530   4.506   8.690  2.6056 -0.6346 -3.4613
   21SAPC  H17Y 2824   6.552   4.686   8.736  0.6523  1.5508 -1.7672
   21SAPC  C318 2825   6.545   4.655   8.531 -0.2967  0.1556  0.8866
   21SAPC  H18X 2826   6.509   4.587   8.451  0.8563 -0.9815  1.2956
   21SAPC  H18Y 2827   6.656   4.654   8.524 -0.3170 -0.4646  0.6172
   21SAPC  H18Z 2828   6.508   4.756   8.504  1.1372  0.1388 -1.4031
   22SAPC     N 2829   5.688   1.471  10.882 -0.8101  0.3199 -0.6541
   22SAPC   C12 2830   5.692   1.622  10.898  0.4866 -0.0442 -0.0936
   22SAPC  H12A 2831   5.758   1.670  10.827 -0.4379 -0.7716 -1.5107
   22SAPC  H12B 2832   5.734   1.640  10.995  2.2518  0.5891 -0.9293
   22SAPC   C13 2833   5.820   1.424  10.894 -0.8034  0.2318 -0.2950
   22SAPC  H13A 2834   5.891   1.469  10.827  1.8735 -1.1100  1.4516
   22SAPC  H13B 2835   5.864   1.457  10.987 -0.8086  1.3076 -0.6612
   22SAPC  H13C 2836   5.821   1.319  10.869 -0.4836  0.2076 -0.1849
   22SAPC   C14 2837   5.588   1.411  10.981 -1.1422  0.5642 -0.1277
   22SAPC  H14A 2838   5.570   1.306  10.963 -0.5290  0.5843 -0.9177
   22SAPC  H14B 2839   5.621   1.424  11.083  1.6057 -0.8666 -0.7516
   22SAPC  H14C 2840   5.494   1.460  10.961 -1.8449 -0.3327  0.8833
   22SAPC   C15 2841   5.645   1.438  10.741  0.1484 -0.5470 -0.2182
   22SAPC  H15A 2842   5.717   1.485  10.675  2.2493 -3.0477  0.1187
   22SAPC  H15B 2843   5.629   1.331  10.730 -1.2018 -0.5081  1.0665
   22SAPC  H15C 2844   5.548   1.483  10.725  0.0257 -1.6410 -3.0649
   22SAPC   C11 2845   5.554   1.702  10.888 -0.5092 -1.0060  0.0634
   22SAPC  H11A 2846   5.576   1.792  10.949  1.5216 -1.0354 -0.5451
   22SAPC  H11B 2847   5.469   1.647  10.934  1.4394 -3.6674  0.7385
   22SAPC     P 2848   5.407   1.719  10.671 -0.0384  0.0217  0.4161
   22SAPC   O13 2849   5.365   1.580  10.659 -0.0920 -0.3931 -0.4413
   22SAPC   O14 2850   5.316   1.816  10.727  0.6312 -0.2803 -0.2060
   22SAPC   O12 2851   5.536   1.732  10.752 -0.0462 -0.1005 -0.6862
   22SAPC   O11 2852   5.465   1.768  10.537 -0.0411  0.0761 -0.1798
   22SAPC    C1 2853   5.545   1.681  10.456 -0.4473 -0.4262  0.1081
   22SAPC    HA 2854   5.654   1.696  10.468 -0.3090 -0.9486 -0.4666
   22SAPC    HB 2855   5.534   1.573  10.476  1.1252 -0.7234 -0.5357
   22SAPC    C2 2856   5.529   1.702  10.306 -0.4656  0.8986  0.2406
   22SAPC    HS 2857   5.552   1.808  10.282  0.0705  1.0740  1.4262
   22SAPC   O21 2858   5.389   1.669  10.270 -0.3949 -0.2755  0.2207
   22SAPC   C21 2859   5.342   1.729  10.159 -0.2261  0.8164 -0.7315
   22SAPC   O22 2860   5.404   1.799  10.083 -1.0717 -0.4226  0.4200
   22SAPC   C22 2861   5.197   1.706  10.147 -0.3535 -0.0680 -0.1680
   22SAPC   H2R 2862   5.170   1.669  10.248  0.9642  0.3260  0.3520
   22SAPC   H2S 2863   5.157   1.807  10.123  2.1936  1.1388  0.3321
   22SAPC    C3 2864   5.629   1.605  10.223  0.5011  0.2022 -0.0187
   22SAPC    HX 2865   5.622   1.503  10.266  0.7324  0.2578  0.1540
   22SAPC    HY 2866   5.732   1.636  10.251  1.7915 -2.7697 -1.0769
   22SAPC   O31 2867   5.611   1.590  10.078  0.7511  0.3628 -0.1424
   22SAPC   C31 2868   5.666   1.689  10.014 -0.0383 -0.7626 -0.2995
   22SAPC   O32 2869   5.722   1.789  10.061 -0.0726 -0.0106 -0.7171
   22SAPC   C32 2870   5.667   1.667   9.869  0.5618 -0.2265  0.4476
   22SAPC   H2X 2871   5.564   1.679   9.829  1.2376  2.3140 -0.7353
   22SAPC   H2Y 2872   5.695   1.560   9.855  0.7910 -0.2725  1.2501
   22SAPC   C23 2873   5.161   1.602  10.033 -0.3599 -0.2058  0.5017
   22SAPC   H3R 2874   5.058   1.567  10.054  0.0837 -1.6352  0.4395
   22SAPC   H3S 2875   5.236   1.521  10.049 -0.6801 -1.1215 -2.2204
   22SAPC   C24 2876   5.176   1.670   9.893  0.0107 -0.1734  0.0743
   22SAPC   H4R 2877   5.283   1.689   9.874  0.9349 -3.2171  1.5745
   22SAPC   H4S 2878   5.124   1.768   9.903  0.7634  0.0787  1.8028
   22SAPC   C25 2879   5.110   1.588   9.788 -0.3447  0.4485  0.4896
   22SAPC   H5R 2880   5.008   1.551   9.808 -0.2527  1.0304  2.2165
   22SAPC   C26 2881   5.168   1.548   9.674  0.2870 -0.4410 -0.0100
   22SAPC   H6R 2882   5.100   1.484   9.617 -0.8889  0.3231  0.5062
   22SAPC   C27 2883   5.302   1.579   9.615  0.1432 -0.4540  0.1773
   22SAPC   H7R 2884   5.325   1.498   9.543 -0.3195 -1.5431  1.2277
   22SAPC   H7S 2885   5.381   1.594   9.691 -0.7849 -1.0078  1.2782
   22SAPC   C28 2886   5.285   1.715   9.552  0.9075  0.6058 -0.4325
   22SAPC   H8R 2887   5.223   1.786   9.609 -1.7311 -1.1077 -0.9963
   22SAPC   C29 2888   5.334   1.757   9.431  0.5091  0.1817 -1.0482
   22SAPC   H9R 2889   5.305   1.857   9.396 -0.5861  0.0162 -0.6741
   22SAPC  C210 2890   5.409   1.673   9.328 -0.2711  0.3245  1.2222
   22SAPC  H10R 2891   5.373   1.568   9.324 -0.9084  0.5823 -0.4676
   22SAPC  H10S 2892   5.512   1.666   9.369  0.4386 -1.3072 -0.7297
   22SAPC  C211 2893   5.407   1.727   9.194  0.2214 -0.4612  0.3415
   22SAPC  H11R 2894   5.354   1.823   9.187  1.8433  0.4802  0.4173
   22SAPC  C212 2895   5.445   1.671   9.080  0.2511 -0.2829 -0.1460
   22SAPC  H12R 2896   5.400   1.709   8.988  1.3596  1.1554 -0.1375
   22SAPC  C213 2897   5.500   1.530   9.069  0.4226 -0.3953 -0.3089
   22SAPC  H13R 2898   5.417   1.460   9.047 -0.2911 -0.4257  2.1781
   22SAPC  H13S 2899   5.534   1.495   9.169 -1.0633 -2.4512 -0.4681
   22SAPC  C214 2900   5.613   1.510   8.970  0.2325  0.1963 -0.0401
   22SAPC  H14R 2901   5.696   1.576   8.999 -0.8079  1.8600 -0.7241
   22SAPC  C215 2902   5.625   1.411   8.882  0.3045  0.3523  0.1705
   22SAPC  H15R 2903   5.716   1.402   8.820 -0.3848 -0.7450 -0.7202
   22SAPC  C216 2904   5.522   1.304   8.844 -0.2470  0.0923 -0.2555
   22SAPC  H16R 2905   5.463   1.280   8.935  1.5286 -1.0783  0.6385
   22SAPC  H16S 2906   5.572   1.208   8.823  1.3695  0.8886 -0.1722
   22SAPC  C217 2907   5.418   1.343   8.743 -0.0422  0.1453  0.3764
   22SAPC  H17R 2908   5.385   1.447   8.760 -2.5275 -0.0425 -2.3303
   22SAPC  H17S 2909   5.330   1.276   8.751  1.9684 -2.9223 -1.2071
   22SAPC  C218 2910   5.451   1.340   8.594 -0.2731  0.2754  0.3331
   22SAPC  H18R 2911   5.560   1.352   8.580 -0.4551  0.3671 -1.2074
   22SAPC  H18S 2912   5.395   1.419   8.539 -1.5050  0.8864  2.3745
   22SAPC  C219 2913   5.418   1.208   8.525 -0.0996  0.4530  0.3055
   22SAPC  H19R 2914   5.312   1.177   8.537  0.2522 -0.0519  2.3630
   22SAPC  H19S 2915   5.471   1.131   8.584 -0.3934 -0.6118 -0.7972
   22SAPC  C220 2916   5.446   1.214   8.373  0.1383  0.8067 -0.0660
   22SAPC  H20R 2917   5.415   1.126   8.312  1.5806 -0.6464  1.1902
   22SAPC  H20S 2918   5.554   1.222   8.348 -0.2357  0.3196 -2.0573
   22SAPC  H20T 2919   5.386   1.298   8.334 -0.4004  0.6440  0.4017
   22SAPC   C33 2920   5.753   1.770   9.787 -0.3739  0.8044  0.4067
   22SAPC   H3X 2921   5.861   1.745   9.796 -0.7920 -2.0035 -1.0922
   22SAPC   H3Y 2922   5.747   1.878   9.810  1.4482  1.0741 -0.2413
   22SAPC   C34 2923   5.712   1.769   9.645 -0.0301  0.3783 -0.2482
   22SAPC   H4X 2924   5.613   1.820   9.645  1.3060  3.1538  1.1549
   22SAPC   H4Y 2925   5.701   1.667   9.603 -0.3107 -0.1549  1.0548
   22SAPC   C35 2926   5.812   1.853   9.565 -0.0008 -0.1579  0.4955
   22SAPC   H5X 2927   5.911   1.815   9.598  0.6978  1.7348  0.7518
   22SAPC   H5Y 2928   5.806   1.960   9.597 -0.7515 -0.9296  3.2683
   22SAPC   C36 2929   5.782   1.832   9.421  0.1433 -0.0216 -0.2738
   22SAPC   H6X 2930   5.675   1.850   9.397 -0.3962 -0.7717  1.4065
   22SAPC   H6Y 2931   5.796   1.726   9.390 -0.6840 -0.1300 -0.3076
   22SAPC   C37 2932   5.869   1.927   9.336 -0.4181 -0.2248 -0.8070
   22SAPC   H7X 2933   5.976   1.919   9.366 -0.0351 -0.0619 -2.0703
   22SAPC   H7Y 2934   5.840   2.033   9.350  0.7510  0.2775 -1.9580
   22SAPC   C38 2935   5.849   1.890   9.188  0.1650 -0.0848  0.3880
   22SAPC   H8X 2936   5.824   1.783   9.170 -0.2713  0.0190  0.3506
   22SAPC   H8Y 2937   5.944   1.904   9.132 -0.5386 -0.6137 -0.9723
   22SAPC   C39 2938   5.734   1.955   9.108  0.4331 -0.4499 -0.2577
   22SAPC   H9X 2939   5.748   2.065   9.111 -2.3104 -0.0541  0.6980
   22SAPC   H9Y 2940   5.637   1.939   9.160  0.8227  1.0719  1.0358
   22SAPC  C310 2941   5.732   1.905   8.961 -0.3245  0.1895  0.1567
   22SAPC  H10X 2942   5.706   1.797   8.954  0.5555  0.0637 -1.7984
   22SAPC  H10Y 2943   5.834   1.900   8.917 -0.3752 -2.2412  0.1763
   22SAPC  C311 2944   5.642   1.993   8.876 -0.0166  0.6233 -0.2976
   22SAPC  H11X 2945   5.678   2.097   8.886 -1.8240  1.0641  2.5675
   22SAPC  H11Y 2946   5.540   1.976   8.916 -0.1598 -0.5236 -1.0956
   22SAPC  C312 2947   5.658   1.947   8.733  1.1144 -0.2356 -0.1347
   22SAPC  H12X 2948   5.622   1.841   8.734  3.2330 -1.0321  2.7584
   22SAPC  H12Y 2949   5.765   1.944   8.705  1.0458 -1.7108 -0.3570
   22SAPC  C313 2950   5.571   2.017   8.635 -0.2582  0.0121 -0.2668
   22SAPC  H13X 2951   5.592   2.124   8.617 -0.6209 -0.3559 -3.5644
   22SAPC  H13Y 2952   5.464   2.006   8.665 -0.6395  0.5823 -1.3479
   22SAPC  C314 2953   5.595   1.962   8.495 -1.0332  0.2599 -0.0276
   22SAPC  H14X 2954   5.620   1.854   8.501  1.0567  0.6599 -0.6072
   22SAPC  H14Y 2955   5.686   2.005   8.446 -1.7726 -0.9481 -2.6568
   22SAPC  C315 2956   5.475   1.975   8.404  0.4832 -0.3135 -0.6257
   22SAPC  H15X 2957   5.463   2.081   8.372 -1.1730  0.4321  2.1103
   22SAPC  H15Y 2958   5.378   1.956   8.455 -0.6987  0.8692 -2.3028
   22SAPC  C316 2959   5.478   1.891   8.278 -0.1659 -0.3357  0.4636
   22SAPC  H16X 2960   5.585   1.891   8.250  0.8691  0.2954  3.9028
   22SAPC  H16Y 2961   5.421   1.946   8.200 -0.8517 -2.1618 -0.3757
   22SAPC  C317 2962   5.424   1.748   8.296 -0.5429 -0.9275  0.5288
   22SAPC  H17X 2963   5.315   1.736   8.312 -0.6303 -0.8584 -0.0169
   22SAPC  H17Y 2964   5.471   1.712   8.390  0.8122  0.7737  0.5430
   22SAPC  C318 2965   5.476   1.663   8.178  0.5364 -0.8046  0.2355
   22SAPC  H18X 2966   5.447   1.696   8.076 -0.0107  0.6845  0.8418
   22SAPC  H18Y 2967   5.447   1.556   8.190  1.1425 -0.9448  0.5272
   22SAPC  H18Z 2968   5.587   1.662   8.182  0.5294 -2.2000  0.6615
   23SAPC     N 2969   0.689   4.514  10.498  0.8162 -0.3275 -0.0123
   23SAPC   C12 2970   0.770   4.389  10.452 -0.3891 -0.0726  0.4439
   23SAPC  H12A 2971   0.698   4.309  10.442 -0.5495  0.3034 -1.9757
   23SAPC  H12B 2972   0.834   4.363  10.535 -0.5024  1.4982  1.0672
   23SAPC   C13 2973   0.780   4.624  10.521  0.2794 -0.3266 -0.2414
   23SAPC  H13A 2974   0.829   4.619  10.617 -0.0205  0.8000 -0.0045
   23SAPC  H13B 2975   0.855   4.628  10.444 -0.4526 -0.4227 -0.9806
   23SAPC  H13C 2976   0.722   4.715  10.511 -0.1078 -0.5379  0.0363
   23SAPC   C14 2977   0.583   4.560  10.393 -0.7659  0.9683  0.2668
   23SAPC  H14A 2978   0.508   4.487  10.370  0.4507  0.5578 -2.8834
   23SAPC  H14B 2979   0.535   4.653  10.420  2.1226  3.1018 -1.3675
   23SAPC  H14C 2980   0.633   4.569  10.298 -1.3827  1.1246 -0.0459
   23SAPC   C15 2981   0.608   4.498  10.624  0.3958  0.0777 -0.0177
   23SAPC  H15A 2982   0.564   4.595  10.643  2.0545  1.3020 -1.9950
   23SAPC  H15B 2983   0.520   4.436  10.611  0.5217 -0.0093 -0.4709
   23SAPC  H15C 2984   0.665   4.463  10.709 -3.4179 -1.3388  2.2197
   23SAPC   C11 2985   0.860   4.392  10.318  0.4039 -0.6562  0.4755
   23SAPC  H11A 2986   0.793   4.393  10.230  1.1437  0.0543 -0.0929
   23SAPC  H11B 2987   0.903   4.291  10.302  0.1986 -0.4842 -1.3240
   23SAPC     P 2988   1.080   4.486  10.432 -0.1847  0.2811  0.1777
   23SAPC   O13 2989   1.090   4.615  10.499  0.1172 -0.6288 -0.2430
   23SAPC   O14 2990   1.058   4.375  10.528  0.2763 -0.6161 -0.9473
   23SAPC   O12 2991   0.968   4.492  10.319 -0.1756  0.0385  0.6609
   23SAPC   O11 2992   1.219   4.446  10.354  0.1212 -0.3672  0.0760
   23SAPC    C1 2993   1.286   4.554  10.287  1.2856 -0.3605 -0.2912
   23SAPC    HA 2994   1.239   4.655  10.288  0.4105 -0.7657  0.3127
   23SAPC    HB 2995   1.386   4.555  10.335  1.2024 -0.7388 -0.1075
   23SAPC    C2 2996   1.322   4.522  10.136 -0.2106 -0.0411  0.3830
   23SAPC    HS 2997   1.328   4.621  10.084  2.7527  1.0725  2.5467
   23SAPC   O21 2998   1.237   4.426  10.075  0.5586  0.6492  0.1733
   23SAPC   C21 2999   1.109   4.469  10.057  0.1632  0.1295 -0.1663
   23SAPC   O22 3000   1.075   4.582  10.070  0.3393 -0.6630 -0.1960
   23SAPC   C22 3001   1.031   4.352  10.002  0.5812  0.3310 -0.3782
   23SAPC   H2R 3002   1.099   4.298   9.933 -1.6580 -1.3472 -1.4156
   23SAPC   H2S 3003   1.006   4.280  10.083 -1.3778  1.0983 -0.2424
   23SAPC    C3 3004   1.467   4.458  10.126  0.6080  0.3086  0.5177
   23SAPC    HX 3005   1.479   4.363  10.182  1.3063 -2.2268 -3.5748
   23SAPC    HY 3006   1.544   4.531  10.161  0.3784  1.7445 -1.7502
   23SAPC   O31 3007   1.505   4.444   9.988 -0.2663 -0.2968 -0.0976
   23SAPC   C31 3008   1.494   4.325   9.929  0.4609 -0.2392 -1.3045
   23SAPC   O32 3009   1.439   4.229   9.981 -0.3917  0.4016 -0.2087
   23SAPC   C32 3010   1.548   4.323   9.792 -0.2833  0.3753  0.0947
   23SAPC   H2X 3011   1.585   4.218   9.783 -1.0987 -0.1193  2.0786
   23SAPC   H2Y 3012   1.636   4.390   9.788 -0.9559  1.2589 -0.3416
   23SAPC   C23 3013   0.901   4.405   9.930  0.3977 -0.6945 -0.2041
   23SAPC   H3R 3014   0.937   4.448   9.834 -1.8190 -0.2291 -0.8721
   23SAPC   H3S 3015   0.862   4.493   9.984  1.6753 -0.4433  0.3347
   23SAPC   C24 3016   0.789   4.316   9.898 -0.1626  0.1397  0.0151
   23SAPC   H4R 3017   0.710   4.382   9.856 -0.9351 -1.3327 -0.9161
   23SAPC   H4S 3018   0.749   4.277   9.994  2.2331 -1.3453  0.5111
   23SAPC   C25 3019   0.838   4.211   9.805  0.3322 -0.6295  0.0748
   23SAPC   H5R 3020   0.933   4.166   9.838  0.3603  0.1466  1.0710
   23SAPC   C26 3021   0.795   4.188   9.682  0.5221  0.2259  0.1983
   23SAPC   H6R 3022   0.858   4.134   9.609 -0.1384 -0.6090  0.2366
   23SAPC   C27 3023   0.684   4.260   9.613 -0.2451 -0.3807  0.0124
   23SAPC   H7R 3024   0.626   4.336   9.671 -1.9520 -0.5365 -1.4031
   23SAPC   H7S 3025   0.604   4.186   9.590  0.2348 -0.9834  0.2472
   23SAPC   C28 3026   0.741   4.324   9.488  0.5076 -0.1893 -0.6579
   23SAPC   H8R 3027   0.796   4.416   9.512 -1.6513  1.0412 -0.1448
   23SAPC   C29 3028   0.748   4.261   9.366  0.0818 -0.7246  0.5132
   23SAPC   H9R 3029   0.779   4.327   9.284  0.9617 -1.1942  0.4594
   23SAPC  C210 3030   0.697   4.129   9.322 -0.0280 -0.8915 -0.4055
   23SAPC  H10R 3031   0.615   4.147   9.249 -1.0008 -0.4862  0.7511
   23SAPC  H10S 3032   0.636   4.078   9.400 -0.7186  1.3597  0.5931
   23SAPC  C211 3033   0.794   4.028   9.263 -0.1002  0.2952 -0.3399
   23SAPC  H11R 3034   0.843   3.975   9.346 -0.6200 -0.0989 -0.2826
   23SAPC  C212 3035   0.827   4.008   9.133  1.1389  0.5494  0.4425
   23SAPC  H12R 3036   0.901   3.933   9.105  1.1704  1.5640 -2.5161
   23SAPC  C213 3037   0.759   4.070   9.010 -0.4782 -0.4912 -0.2029
   23SAPC  H13R 3038   0.668   4.129   9.035  0.8302  1.5268  0.0101
   23SAPC  H13S 3039   0.737   3.989   8.938 -1.7972 -0.0825 -0.2875
   23SAPC  C214 3040   0.853   4.173   8.952 -0.1329 -0.0555 -0.1917
   23SAPC  H14R 3041   0.918   4.221   9.026  0.0841 -0.5351 -0.0678
   23SAPC  C215 3042   0.870   4.218   8.824  0.1520  0.5868  0.5401
   23SAPC  H15R 3043   0.915   4.318   8.814  0.1590  0.3661 -2.5434
   23SAPC  C216 3044   0.789   4.169   8.709 -0.3617 -0.0965  0.3767
   23SAPC  H16R 3045   0.714   4.250   8.694  0.3073  0.9930  2.3945
   23SAPC  H16S 3046   0.733   4.078   8.740 -0.0095 -0.3352  0.3175
   23SAPC  C217 3047   0.880   4.141   8.592  0.1020 -0.3754  0.1704
   23SAPC  H17R 3048   0.963   4.073   8.621  1.7745  1.3801 -0.2403
   23SAPC  H17S 3049   0.927   4.239   8.568 -0.0319 -0.5216 -0.7254
   23SAPC  C218 3050   0.808   4.101   8.467  0.4559  0.4973 -0.3223
   23SAPC  H18R 3051   0.734   4.177   8.436  0.1009 -0.0319 -0.8096
   23SAPC  H18S 3052   0.754   4.006   8.489  1.3374  0.0318 -0.1043
   23SAPC  C219 3053   0.893   4.089   8.341 -0.3612 -0.6281  0.0514
   23SAPC  H19R 3054   0.967   4.008   8.350 -1.6113 -1.9250 -0.8389
   23SAPC  H19S 3055   0.945   4.186   8.327 -2.7747  1.1409  2.3147
   23SAPC  C220 3056   0.804   4.050   8.224 -0.6309  0.0444 -0.7301
   23SAPC  H20R 3057   0.763   3.947   8.231 -0.8376  0.0497 -1.7741
   23SAPC  H20S 3058   0.855   4.063   8.126  0.9088 -1.0831 -0.1261
   23SAPC  H20T 3059   0.719   4.122   8.229  0.7516  1.6944  0.1288
   23SAPC   C33 3060   1.447   4.360   9.683 -0.2297 -0.6105  0.3468
   23SAPC   H3X 3061   1.496   4.417   9.602 -3.0148  0.2230 -0.8728
   23SAPC   H3Y 3062   1.381   4.429   9.740  2.0740  1.6599  0.4461
   23SAPC   C34 3063   1.358   4.245   9.629 -0.1426  0.4569  0.1247
   23SAPC   H4X 3064   1.335   4.176   9.713 -2.2068  0.7353 -0.1450
   23SAPC   H4Y 3065   1.414   4.192   9.549 -0.1419  2.5021 -1.3367
   23SAPC   C35 3066   1.229   4.295   9.561 -0.5529 -0.3664  0.1100
   23SAPC   H5X 3067   1.258   4.393   9.517  0.8518 -1.3315 -1.1884
   23SAPC   H5Y 3068   1.141   4.293   9.629 -1.6822  3.8148 -0.9476
   23SAPC   C36 3069   1.196   4.217   9.436 -0.0488  0.6467  0.4582
   23SAPC   H6X 3070   1.087   4.234   9.429 -0.3492  0.3751  3.2204
   23SAPC   H6Y 3071   1.212   4.107   9.437  0.3873  0.6972  1.6162
   23SAPC   C37 3072   1.259   4.274   9.304 -0.3027  0.9477  0.2891
   23SAPC   H7X 3073   1.370   4.276   9.305 -0.1588 -2.4276  0.1105
   23SAPC   H7Y 3074   1.234   4.383   9.306 -1.1131  0.7541  1.4448
   23SAPC   C38 3075   1.207   4.204   9.178  0.1751 -0.0739 -0.7960
   23SAPC   H8X 3076   1.102   4.238   9.179  0.1163 -0.2638 -0.3150
   23SAPC   H8Y 3077   1.217   4.094   9.190 -0.1887 -0.0414 -0.1800
   23SAPC   C39 3078   1.272   4.274   9.054  0.2419 -0.0422  0.0529
   23SAPC   H9X 3079   1.378   4.240   9.051 -0.1573 -1.3017 -2.0730
   23SAPC   H9Y 3080   1.266   4.385   9.058 -0.2577 -0.1126  2.4532
   23SAPC  C310 3081   1.213   4.224   8.920  0.0991 -0.5162 -0.3985
   23SAPC  H10X 3082   1.116   4.274   8.904  0.7993  1.2781  0.6863
   23SAPC  H10Y 3083   1.193   4.116   8.935  0.0700 -0.5579 -0.7257
   23SAPC  C311 3084   1.306   4.250   8.802  0.6936  0.8211 -0.4999
   23SAPC  H11X 3085   1.403   4.198   8.814  0.0097 -0.2135  0.8410
   23SAPC  H11Y 3086   1.309   4.361   8.808  0.0323  0.8378 -0.4036
   23SAPC  C312 3087   1.247   4.212   8.669  0.5767  0.1408  0.4309
   23SAPC  H12X 3088   1.165   4.285   8.653 -0.2529 -0.6731  0.8627
   23SAPC  H12Y 3089   1.193   4.115   8.680  0.4050 -0.0307 -1.5522
   23SAPC  C313 3090   1.348   4.202   8.555 -0.3764  0.4163 -0.0078
   23SAPC  H13X 3091   1.437   4.141   8.580  0.1544  0.5718 -1.4382
   23SAPC  H13Y 3092   1.391   4.305   8.563  1.9785 -0.5965  1.7033
   23SAPC  C314 3093   1.284   4.158   8.420 -0.3781 -0.4711 -0.2649
   23SAPC  H14X 3094   1.366   4.150   8.345 -0.1060 -2.0648  0.1600
   23SAPC  H14Y 3095   1.210   4.232   8.383 -0.3264 -0.0997  0.3509
   23SAPC  C315 3096   1.224   4.012   8.434  0.0530  0.8946 -0.3270
   23SAPC  H15X 3097   1.194   3.993   8.329  0.9853  0.3985 -0.5113
   23SAPC  H15Y 3098   1.136   4.023   8.500  0.9039  0.4488  0.9323
   23SAPC  C316 3099   1.321   3.898   8.478 -0.3720 -0.3366  0.1858
   23SAPC  H16X 3100   1.343   3.908   8.587 -1.8747 -0.0587  0.4943
   23SAPC  H16Y 3101   1.416   3.913   8.423  0.0826  2.1075  1.5066
   23SAPC  C317 3102   1.266   3.761   8.446 -0.0230  0.1175 -0.4005
   23SAPC  H17X 3103   1.208   3.775   8.352  1.0069 -2.2439 -1.4785
   23SAPC  H17Y 3104   1.199   3.737   8.532 -0.6310 -2.8022 -1.5778
   23SAPC  C318 3105   1.371   3.657   8.413 -0.5427  0.6068  0.3761
   23SAPC  H18X 3106   1.437   3.646   8.502 -2.2464  1.1746  1.7759
   23SAPC  H18Y 3107   1.440   3.675   8.328  0.9883  0.3076  1.5121
   23SAPC  H18Z 3108   1.320   3.561   8.390 -0.4699  0.5954  0.2588
   24SAPC     N 3109   3.711   3.118  11.182  0.1836 -0.4765 -0.4987
   24SAPC   C12 3110   3.788   3.053  11.078 -0.0599 -0.2159 -0.4019
   24SAPC  H12A 3111   3.745   2.956  11.059  0.0098 -0.5651  1.1248
   24SAPC  H12B 3112   3.884   3.026  11.119 -0.7638 -1.0580  0.7437
   24SAPC   C13 3113   3.573   3.143  11.143  0.1890 -0.1044  0.3015
   24SAPC  H13A 3114   3.516   3.143  11.235 -1.0434 -0.1092 -0.4390
   24SAPC  H13B 3115   3.555   3.236  11.092  2.7082 -0.8956 -2.2984
   24SAPC  H13C 3116   3.523   3.060  11.095 -0.2262  1.7793 -2.7861
   24SAPC   C14 3117   3.699   3.038  11.314 -0.4156 -0.2526 -0.1495
   24SAPC  H14A 3118   3.656   3.101  11.389  0.0037 -0.6403  0.4235
   24SAPC  H14B 3119   3.636   2.950  11.310 -0.2981 -0.4726  2.0298
   24SAPC  H14C 3120   3.798   3.000  11.337 -0.7981 -1.5556 -0.5627
   24SAPC   C15 3121   3.783   3.246  11.225  0.1384 -0.0516  0.4145
   24SAPC  H15A 3122   3.802   3.300  11.134  0.4897  1.0728  1.1271
   24SAPC  H15B 3123   3.715   3.308  11.283 -0.7507 -1.3024  0.7471
   24SAPC  H15C 3124   3.879   3.224  11.270  0.2943  0.2613  0.2349
   24SAPC   C11 3125   3.817   3.133  10.943  0.6522  0.7092 -0.6052
   24SAPC  H11A 3126   3.723   3.173  10.900 -0.5774 -2.4692 -1.0912
   24SAPC  H11B 3127   3.840   3.047  10.877  0.2062 -0.1247  0.3086
   24SAPC     P 3128   4.048   3.227  10.870  0.3861 -0.2039 -0.7653
   24SAPC   O13 3129   4.106   3.361  10.874 -0.6484 -0.1926  0.1402
   24SAPC   O14 3130   4.136   3.119  10.913 -0.1811 -0.3130  0.3534
   24SAPC   O12 3131   3.918   3.226  10.961  0.0622 -0.0263  0.7544
   24SAPC   O11 3132   3.997   3.202  10.723  0.4652 -0.2522 -0.6306
   24SAPC    C1 3133   3.892   3.277  10.663  0.2829 -0.4536 -0.3213
   24SAPC    HA 3134   3.798   3.219  10.668 -0.6525  1.0213 -0.0922
   24SAPC    HB 3135   3.878   3.378  10.708 -1.3293 -0.4671 -0.7378
   24SAPC    C2 3136   3.921   3.292  10.509 -0.2926 -0.3278 -0.6048
   24SAPC    HS 3137   3.831   3.341  10.464 -0.2093  1.8955  1.4375
   24SAPC   O21 3138   3.950   3.163  10.456  0.0348  0.2393  0.1309
   24SAPC   C21 3139   3.845   3.083  10.418  0.0190 -0.1159 -0.4511
   24SAPC   O22 3140   3.731   3.098  10.452  0.4366 -0.0019 -0.2454
   24SAPC   C22 3141   3.892   2.982  10.323 -0.0454 -0.3250  0.1276
   24SAPC   H2R 3142   3.986   2.944  10.368  0.5559  3.0632  2.0798
   24SAPC   H2S 3143   3.815   2.903  10.315 -0.8013  0.2354  1.5237
   24SAPC    C3 3144   4.041   3.387  10.485  0.1977  1.2669  0.1512
   24SAPC    HX 3145   4.130   3.341  10.535  1.6360  0.4137 -2.9305
   24SAPC    HY 3146   4.020   3.491  10.519 -2.4985  1.4759 -1.8879
   24SAPC   O31 3147   4.069   3.382  10.344  0.1111 -0.1422  0.3034
   24SAPC   C31 3148   4.192   3.376  10.305 -1.2336 -0.2382 -0.1495
   24SAPC   O32 3149   4.293   3.381  10.371  0.0955  0.4179  0.0048
   24SAPC   C32 3150   4.187   3.359  10.152  0.4311  0.6493  0.6201
   24SAPC   H2X 3151   4.229   3.442  10.092 -2.5292  0.6036 -1.7255
   24SAPC   H2Y 3152   4.081   3.347  10.121  0.9370  1.3702 -1.5484
   24SAPC   C23 3153   3.926   3.036  10.180 -0.0308  0.0754  0.1578
   24SAPC   H3R 3154   3.993   3.125  10.187 -0.9128  0.7305  0.4993
   24SAPC   H3S 3155   3.831   3.080  10.144 -0.0131 -1.3022 -1.6942
   24SAPC   C24 3156   3.997   2.936  10.088 -0.0146 -1.2091  0.4961
   24SAPC   H4R 3157   4.079   2.894  10.150  0.7072 -0.8058 -0.1788
   24SAPC   H4S 3158   4.039   2.998  10.006 -3.5707  1.3722  0.3836
   24SAPC   C25 3159   3.915   2.826  10.033 -0.0588 -0.3165  0.2931
   24SAPC   H5R 3160   3.850   2.782  10.110  0.9782  1.1389  2.0783
   24SAPC   C26 3161   3.911   2.800   9.898  0.5116 -0.1606 -0.3700
   24SAPC   H6R 3162   3.853   2.710   9.871  0.4722 -0.8866  1.9740
   24SAPC   C27 3163   3.990   2.863   9.788  0.2942  0.2933 -0.7128
   24SAPC   H7R 3164   4.017   2.785   9.714  0.8181 -0.3270  0.1100
   24SAPC   H7S 3165   4.085   2.901   9.830  0.0043  0.9936 -0.6776
   24SAPC   C28 3166   3.936   2.978   9.707 -0.6710 -0.0857 -0.3485
   24SAPC   H8R 3167   3.853   3.035   9.750  1.1697  0.1928  3.2142
   24SAPC   C29 3168   3.987   3.015   9.594 -0.5797  0.0533  0.2296
   24SAPC   H9R 3169   3.942   3.102   9.544 -0.1778  1.9391  2.9177
   24SAPC  C210 3170   4.101   2.953   9.513 -0.6248  0.1610  0.2111
   24SAPC  H10R 3171   4.048   2.891   9.438 -0.6912  0.5596 -0.0739
   24SAPC  H10S 3172   4.160   2.879   9.570 -2.2692 -0.0260  1.7944
   24SAPC  C211 3173   4.187   3.066   9.452  0.4059 -0.0439  0.6308
   24SAPC  H11R 3174   4.183   3.168   9.492  1.7918  1.4031 -2.5655
   24SAPC  C212 3175   4.263   3.045   9.341 -0.5348 -0.0445  0.2835
   24SAPC  H12R 3176   4.328   3.124   9.303 -0.1109 -1.5215 -2.3147
   24SAPC  C213 3177   4.267   2.920   9.261 -0.1449  0.1862 -0.1239
   24SAPC  H13R 3178   4.239   2.832   9.323  0.0598 -1.1475 -1.8344
   24SAPC  H13S 3179   4.374   2.899   9.237 -0.4884 -1.3733 -0.4327
   24SAPC  C214 3180   4.195   2.917   9.127 -0.2978  0.4133 -0.1830
   24SAPC  H14R 3181   4.224   2.996   9.056  0.2909  0.1429 -0.2484
   24SAPC  C215 3182   4.111   2.824   9.078 -0.8823 -0.0298  0.4108
   24SAPC  H15R 3183   4.070   2.840   8.978 -1.3054 -3.9350 -0.1850
   24SAPC  C216 3184   4.061   2.697   9.138  0.4214  0.0980  0.0381
   24SAPC  H16R 3185   4.120   2.660   9.225 -0.2524  2.4674  1.6226
   24SAPC  H16S 3186   4.059   2.619   9.060 -3.0174  0.3716 -0.2905
   24SAPC  C217 3187   3.916   2.723   9.180 -0.3742  0.0644 -0.3446
   24SAPC  H17R 3188   3.843   2.766   9.108 -0.6964 -0.6743 -0.4698
   24SAPC  H17S 3189   3.919   2.799   9.261 -0.3276 -1.0647  0.7426
   24SAPC  C218 3190   3.865   2.595   9.245 -0.8456  0.6933  0.1131
   24SAPC  H18R 3191   3.948   2.551   9.305 -0.1140  1.7496 -0.0875
   24SAPC  H18S 3192   3.842   2.524   9.162  1.2621 -0.6379  0.5629
   24SAPC  C219 3193   3.744   2.609   9.345  0.2998 -0.2767  0.6081
   24SAPC  H19R 3194   3.683   2.518   9.366 -0.0961 -0.3842 -0.9003
   24SAPC  H19S 3195   3.669   2.668   9.289  1.6831 -0.2397 -1.3317
   24SAPC  C220 3196   3.791   2.655   9.476 -0.4809  0.3983 -0.1359
   24SAPC  H20R 3197   3.866   2.587   9.522  0.0974  0.2060 -1.3223
   24SAPC  H20S 3198   3.722   2.645   9.563  0.4371  1.2036  0.7061
   24SAPC  H20T 3199   3.845   2.751   9.472  2.6849 -1.2586 -0.4951
   24SAPC   C33 3200   4.264   3.230  10.111  0.5735 -0.1987 -0.0091
   24SAPC   H3X 3201   4.219   3.144  10.165  1.8465 -0.4290  0.7233
   24SAPC   H3Y 3202   4.369   3.244  10.144  0.9423  1.7865 -1.7564
   24SAPC   C34 3203   4.260   3.205   9.955  0.1897 -0.0827 -0.0896
   24SAPC   H4X 3204   4.157   3.209   9.914  1.1163  0.1200 -2.5354
   24SAPC   H4Y 3205   4.288   3.099   9.940  1.3071  0.0998  0.5151
   24SAPC   C35 3206   4.349   3.303   9.878  0.2509  0.3298 -0.3028
   24SAPC   H5X 3207   4.451   3.309   9.922  0.6599 -0.9476 -1.0290
   24SAPC   H5Y 3208   4.312   3.408   9.882  1.3061  0.7476 -0.9532
   24SAPC   C36 3209   4.360   3.269   9.734 -0.2138  0.0797  0.4960
   24SAPC   H6X 3210   4.261   3.266   9.686  0.6156 -1.6562 -1.2245
   24SAPC   H6Y 3211   4.391   3.162   9.730  0.8015  0.2285  2.6364
   24SAPC   C37 3212   4.458   3.365   9.660 -0.7662  0.3765 -0.0059
   24SAPC   H7X 3213   4.561   3.376   9.701 -0.7462  1.6030 -0.3554
   24SAPC   H7Y 3214   4.421   3.468   9.674 -1.1980  0.5124 -1.8624
   24SAPC   C38 3215   4.458   3.345   9.505  0.7368  0.1373  0.1573
   24SAPC   H8X 3216   4.357   3.306   9.481  0.6008  0.8265 -0.4259
   24SAPC   H8Y 3217   4.531   3.264   9.487 -0.8138 -1.9515  2.4934
   24SAPC   C39 3218   4.499   3.472   9.422 -0.3397 -0.6488 -0.2585
   24SAPC   H9X 3219   4.586   3.452   9.355 -0.2142  1.0330 -0.6507
   24SAPC   H9Y 3220   4.524   3.550   9.497 -3.2853  0.0644  0.1071
   24SAPC  C310 3221   4.385   3.526   9.325 -0.6347 -0.0667 -0.4927
   24SAPC  H10X 3222   4.328   3.592   9.394  2.5448  1.5236  0.8027
   24SAPC  H10Y 3223   4.324   3.438   9.294 -1.4205  0.7221 -1.2645
   24SAPC  C311 3224   4.431   3.613   9.210  0.7797  0.1116  0.2249
   24SAPC  H11X 3225   4.501   3.549   9.152  0.0609  0.1593 -0.7211
   24SAPC  H11Y 3226   4.478   3.701   9.259  0.5155  0.9883 -1.0539
   24SAPC  C312 3227   4.310   3.660   9.128 -0.5827  0.2949 -1.0540
   24SAPC  H12X 3228   4.322   3.771   9.122 -0.2302  0.2590 -1.0564
   24SAPC  H12Y 3229   4.215   3.638   9.181 -0.4651  1.7004 -0.1950
   24SAPC  C313 3230   4.304   3.606   8.988 -0.2406 -0.1513 -0.0938
   24SAPC  H13X 3231   4.201   3.618   8.950  0.0749 -1.3348 -1.4341
   24SAPC  H13Y 3232   4.335   3.499   8.987  1.8790  0.3785  1.3962
   24SAPC  C314 3233   4.399   3.673   8.890 -0.1171 -0.1827  0.5321
   24SAPC  H14X 3234   4.504   3.647   8.916 -0.0306 -0.3592  0.0098
   24SAPC  H14Y 3235   4.400   3.783   8.908  3.5170  0.3998 -2.1348
   24SAPC  C315 3236   4.361   3.637   8.752 -1.0674  0.4325 -0.2398
   24SAPC  H15X 3237   4.252   3.650   8.733 -1.3838  0.5881  1.4787
   24SAPC  H15Y 3238   4.375   3.528   8.743  0.2974  0.3513  2.0736
   24SAPC  C316 3239   4.451   3.715   8.655  1.0818 -0.1648  0.5702
   24SAPC  H16X 3240   4.430   3.687   8.550 -0.8255  1.2763  0.5171
   24SAPC  H16Y 3241   4.553   3.678   8.680  1.1669 -1.0441 -0.9529
   24SAPC  C317 3242   4.448   3.868   8.660  0.1904  0.0198 -0.5369
   24SAPC  H17X 3243   4.498   3.911   8.750  0.1500 -0.5750 -0.2249
   24SAPC  H17Y 3244   4.339   3.889   8.653 -0.1270 -1.7947 -1.7721
   24SAPC  C318 3245   4.532   3.925   8.547  0.1205 -0.3534 -0.1454
   24SAPC  H18X 3246   4.632   3.876   8.555  0.4488  0.4966  1.6810
   24SAPC  H18Y 3247   4.532   4.036   8.543 -0.9425 -0.2739  1.2737
   24SAPC  H18Z 3248   4.484   3.885   8.456 -2.4640  1.5030  0.2922
   25SAPC     N 3249   4.987   2.648   5.610  0.3351 -0.1417 -0.4463
   25SAPC   C12 3250   4.930   2.720   5.731  0.1320 -0.1929 -0.5570
   25SAPC  H12A 3251   4.834   2.677   5.754 -1.1988  1.7512 -2.1168
   25SAPC  H12B 3252   4.921   2.825   5.706  2.4251  0.2226  0.1613
   25SAPC   C13 3253   4.980   2.502   5.629 -0.5564 -0.5577 -0.9666
   25SAPC  H13A 3254   4.987   2.450   5.535 -2.1951  1.5607 -2.3284
   25SAPC  H13B 3255   5.057   2.463   5.695 -0.9748 -0.4230 -0.3873
   25SAPC  H13C 3256   4.887   2.470   5.674 -0.8506  0.4366 -0.8438
   25SAPC   C14 3257   4.915   2.696   5.483  0.3757 -0.1792 -0.3351
   25SAPC  H14A 3258   4.928   2.802   5.470  1.5362 -0.0262  1.6185
   25SAPC  H14B 3259   4.971   2.664   5.396  1.3745  0.8588 -0.0948
   25SAPC  H14C 3260   4.814   2.658   5.482  0.2197  0.2131  0.1860
   25SAPC   C15 3261   5.133   2.684   5.590 -0.3835  0.2988  0.0348
   25SAPC  H15A 3262   5.188   2.667   5.682 -0.1238  0.8187 -0.0198
   25SAPC  H15B 3263   5.177   2.624   5.511 -0.2735 -2.5867  2.1275
   25SAPC  H15C 3264   5.142   2.788   5.563 -0.5004 -0.0951 -1.6054
   25SAPC   C11 3265   5.007   2.711   5.863  0.0650 -0.7509 -0.3659
   25SAPC  H11A 3266   4.943   2.769   5.932 -0.8404 -2.1210 -0.0039
   25SAPC  H11B 3267   5.105   2.763   5.869 -0.8140  1.2501 -1.9809
   25SAPC     P 3268   4.991   2.521   6.042 -0.5341  0.3587  0.2033
   25SAPC   O13 3269   4.848   2.522   6.056 -0.4250  0.2753 -0.3246
   25SAPC   O14 3270   5.054   2.387   6.059 -0.4758  0.6822  0.7419
   25SAPC   O12 3271   5.041   2.579   5.903  0.6867  0.4442  0.1101
   25SAPC   O11 3272   5.050   2.613   6.161  0.2840 -0.3077 -0.6631
   25SAPC    C1 3273   5.186   2.651   6.157  0.0420 -0.1881 -0.3722
   25SAPC    HA 3274   5.221   2.674   6.054 -1.7148  0.5414 -0.8449
   25SAPC    HB 3275   5.181   2.752   6.203 -2.9474  0.3627 -1.6732
   25SAPC    C2 3276   5.276   2.558   6.252  0.0925 -0.1879  0.5000
   25SAPC    HS 3277   5.267   2.450   6.230 -2.3931 -0.0034  0.3026
   25SAPC   O21 3278   5.250   2.586   6.388 -0.0203 -0.0273 -0.8616
   25SAPC   C21 3279   5.265   2.482   6.472 -0.0613  0.1280 -0.3960
   25SAPC   O22 3280   5.306   2.373   6.436  0.2757  1.1108 -0.1327
   25SAPC   C22 3281   5.209   2.524   6.607  0.2517 -0.1702  0.2712
   25SAPC   H2R 3282   5.200   2.634   6.598  0.1451 -0.1135  0.9727
   25SAPC   H2S 3283   5.110   2.479   6.627 -0.5002  0.8608 -1.0176
   25SAPC    C3 3284   5.418   2.601   6.223 -0.3502  0.0878 -0.2626
   25SAPC    HX 3285   5.442   2.704   6.257  1.1936 -0.6848  1.1262
   25SAPC    HY 3286   5.428   2.610   6.113  1.4490 -1.0951 -0.2416
   25SAPC   O31 3287   5.515   2.500   6.276  0.0089  0.2254  0.2291
   25SAPC   C31 3288   5.537   2.410   6.186  0.5699  0.0963  0.2086
   25SAPC   O32 3289   5.488   2.401   6.074 -0.3765 -1.1585 -0.2703
   25SAPC   C32 3290   5.623   2.306   6.263 -0.1839  0.1664 -0.8714
   25SAPC   H2X 3291   5.640   2.221   6.193 -0.1342 -1.6188  1.2050
   25SAPC   H2Y 3292   5.545   2.264   6.330 -1.9422  0.0147 -2.9157
   25SAPC   C23 3293   5.304   2.477   6.725  0.8721  0.2495  0.5243
   25SAPC   H3R 3294   5.336   2.371   6.709 -0.6899 -0.1533 -0.0529
   25SAPC   H3S 3295   5.262   2.496   6.826  0.1942  0.5933  0.1811
   25SAPC   C24 3296   5.437   2.554   6.724 -0.2172  0.4851 -0.5351
   25SAPC   H4R 3297   5.412   2.660   6.747  0.0899  0.1939  1.2394
   25SAPC   H4S 3298   5.458   2.569   6.616  0.7278  0.7035 -0.3216
   25SAPC   C25 3299   5.558   2.497   6.797  0.2600 -0.7435 -0.3050
   25SAPC   H5R 3300   5.622   2.427   6.740  0.9406 -0.0978 -0.3468
   25SAPC   C26 3301   5.587   2.521   6.929 -0.4012  0.4402  0.1450
   25SAPC   H6R 3302   5.676   2.470   6.968  0.2866  0.3204 -1.4674
   25SAPC   C27 3303   5.508   2.605   7.024 -0.4181  0.1425  0.0086
   25SAPC   H7R 3304   5.450   2.683   6.970  0.9175 -0.9176 -3.1962
   25SAPC   H7S 3305   5.593   2.649   7.080  0.0676 -1.1577  0.3221
   25SAPC   C28 3306   5.416   2.510   7.103  0.3735 -0.7279 -0.4095
   25SAPC   H8R 3307   5.341   2.449   7.052 -2.0011  1.0129  0.7784
   25SAPC   C29 3308   5.413   2.510   7.239 -0.6736  0.4463  0.2359
   25SAPC   H9R 3309   5.348   2.432   7.282 -0.6242 -0.6960 -1.6375
   25SAPC  C210 3310   5.494   2.584   7.342  0.1162  0.0567 -0.4806
   25SAPC  H10R 3311   5.431   2.605   7.431  0.2747  1.7334 -0.7239
   25SAPC  H10S 3312   5.507   2.688   7.303 -3.5104  0.1447 -1.8117
   25SAPC  C211 3313   5.624   2.517   7.370  0.4801  0.1554 -0.6355
   25SAPC  H11R 3314   5.680   2.470   7.289  0.2321 -0.8728 -0.2264
   25SAPC  C212 3315   5.679   2.521   7.491 -0.0406  0.3237  0.1012
   25SAPC  H12R 3316   5.779   2.477   7.493 -0.3590 -0.5384 -1.3596
   25SAPC  C213 3317   5.625   2.565   7.623  0.1249  0.0474  0.4055
   25SAPC  H13R 3318   5.558   2.653   7.614  0.0379 -0.1241 -0.9727
   25SAPC  H13S 3319   5.715   2.597   7.678  0.5682  3.0464 -1.7952
   25SAPC  C214 3320   5.544   2.460   7.700  0.0785 -0.6835  0.2667
   25SAPC  H14R 3321   5.501   2.378   7.640 -3.5338  0.1290  1.4412
   25SAPC  C215 3322   5.515   2.469   7.831  0.4068  0.0444 -0.4602
   25SAPC  H15R 3323   5.444   2.395   7.873 -0.4085  2.2089  2.3193
   25SAPC  C216 3324   5.551   2.582   7.927 -0.7179  0.5972  0.0018
   25SAPC  H16R 3325   5.472   2.660   7.932 -2.7662 -1.4611  1.8838
   25SAPC  H16S 3326   5.648   2.622   7.890  0.6043 -1.2058  1.3227
   25SAPC  C217 3327   5.582   2.509   8.058 -0.2778  0.3864 -0.5964
   25SAPC  H17R 3328   5.638   2.584   8.119 -0.4459  0.9231 -1.0905
   25SAPC  H17S 3329   5.649   2.424   8.036  1.0033  1.1336  0.2613
   25SAPC  C218 3330   5.458   2.456   8.142 -0.0061  0.5670  0.0986
   25SAPC  H18R 3331   5.431   2.353   8.111 -0.4977  0.5239  0.6396
   25SAPC  H18S 3332   5.370   2.523   8.130 -0.4689  0.1130  0.8777
   25SAPC  C219 3333   5.481   2.462   8.295  0.0537  0.6491 -0.8160
   25SAPC  H19R 3334   5.402   2.426   8.364  1.6386  1.3939  1.5243
   25SAPC  H19S 3335   5.497   2.571   8.312 -3.9328  1.2567 -0.1401
   25SAPC  C220 3336   5.597   2.374   8.345 -0.1154  0.3924  0.8399
   25SAPC  H20R 3337   5.695   2.398   8.298 -1.1226  0.0229 -1.5465
   25SAPC  H20S 3338   5.591   2.264   8.331  2.7590  0.1614  0.8270
   25SAPC  H20T 3339   5.617   2.384   8.454 -0.7416  0.6921  0.9311
   25SAPC   C33 3340   5.754   2.350   6.321  0.3103  0.4741  0.7772
   25SAPC   H3X 3341   5.719   2.432   6.387 -3.3861 -0.8495  0.6765
   25SAPC   H3Y 3342   5.832   2.390   6.252  0.9196  0.8234  1.6513
   25SAPC   C34 3343   5.820   2.238   6.418  0.1191  0.1136  0.6320
   25SAPC   H4X 3344   5.921   2.277   6.439 -0.3906  0.2727  3.0065
   25SAPC   H4Y 3345   5.841   2.147   6.357 -1.9234  1.4423 -2.3237
   25SAPC   C35 3346   5.750   2.206   6.551 -0.2191 -0.2774 -0.3752
   25SAPC   H5X 3347   5.705   2.297   6.595  0.5713 -0.0669  0.0074
   25SAPC   H5Y 3348   5.833   2.161   6.608 -1.8171 -0.3376  2.0346
   25SAPC   C36 3349   5.632   2.100   6.551  0.1178  0.0471 -0.2539
   25SAPC   H6X 3350   5.681   2.001   6.560 -3.2542 -1.8086 -0.3756
   25SAPC   H6Y 3351   5.575   2.105   6.455  1.0902 -2.5888 -1.0547
   25SAPC   C37 3352   5.531   2.103   6.676 -0.9542  0.8874  0.8488
   25SAPC   H7X 3353   5.461   2.017   6.670  1.1954 -0.9792  1.2084
   25SAPC   H7Y 3354   5.472   2.194   6.654 -1.2661  0.4166 -0.3860
   25SAPC   C38 3355   5.604   2.129   6.809 -0.8152 -0.1823  0.0244
   25SAPC   H8X 3356   5.646   2.231   6.796 -0.3761 -0.2940  0.4974
   25SAPC   H8Y 3357   5.691   2.061   6.819 -1.7618 -1.1236  2.9270
   25SAPC   C39 3358   5.508   2.135   6.931  0.2311 -0.3294  0.1613
   25SAPC   H9X 3359   5.448   2.044   6.951 -0.0801 -0.3175 -0.6744
   25SAPC   H9Y 3360   5.430   2.213   6.925  0.0753 -0.5435 -0.8094
   25SAPC  C310 3361   5.580   2.158   7.066 -0.0450  0.6264 -0.5820
   25SAPC  H10X 3362   5.612   2.264   7.069  0.6061  0.4194  1.5632
   25SAPC  H10Y 3363   5.666   2.088   7.069 -0.5079 -0.0822 -2.5076
   25SAPC  C311 3364   5.480   2.151   7.194 -0.7838 -0.2729 -0.0738
   25SAPC  H11X 3365   5.387   2.211   7.196 -0.1405  0.7777 -0.2818
   25SAPC  H11Y 3366   5.545   2.193   7.274 -2.6474  0.0686  1.3108
   25SAPC  C312 3367   5.441   2.012   7.239  0.4655  0.7390 -0.5562
   25SAPC  H12X 3368   5.530   1.946   7.224 -0.1560  0.3218 -2.7529
   25SAPC  H12Y 3369   5.359   1.960   7.185 -1.6310  0.6462  2.5032
   25SAPC  C313 3370   5.386   2.012   7.391  0.2700  0.2546 -0.1745
   25SAPC  H13X 3371   5.279   2.040   7.386  0.2581  0.2180 -0.1259
   25SAPC  H13Y 3372   5.426   2.093   7.455 -0.8729 -1.1922  2.5103
   25SAPC  C314 3373   5.408   1.873   7.464 -0.0926 -0.0237  0.1425
   25SAPC  H14X 3374   5.517   1.868   7.484  0.2660  3.1291 -0.3903
   25SAPC  H14Y 3375   5.393   1.795   7.387 -0.8642  0.9772 -0.7623
   25SAPC  C315 3376   5.334   1.838   7.589 -0.5200  0.1032 -0.2926
   25SAPC  H15X 3377   5.359   1.732   7.614  0.6569  0.6181  0.8249
   25SAPC  H15Y 3378   5.226   1.840   7.562 -0.7337  1.2854  0.5794
   25SAPC  C316 3379   5.353   1.936   7.705 -0.2103 -0.4869  0.6847
   25SAPC  H16X 3380   5.285   1.913   7.790 -0.9466 -0.8420  0.0060
   25SAPC  H16Y 3381   5.325   2.035   7.662 -0.4354 -0.7056  0.3309
   25SAPC  C317 3382   5.493   1.936   7.755  0.0340 -0.5210 -0.0171
   25SAPC  H17X 3383   5.567   1.968   7.678  0.1972  1.4505  0.9000
   25SAPC  H17Y 3384   5.503   1.832   7.793 -0.3157 -0.3452  0.5621
   25SAPC  C318 3385   5.513   2.040   7.874  0.8462  0.0234 -0.6957
   25SAPC  H18X 3386   5.620   2.049   7.902  0.6733  1.5706 -0.4378
   25SAPC  H18Y 3387   5.452   2.007   7.961  1.8315 -3.3281 -1.1271
   25SAPC  H18Z 3388   5.478   2.141   7.845  0.1870  0.1699  0.5640
   26SAPC     N 3389   0.173   3.964   6.117  0.3317  0.2925  0.0616
   26SAPC   C12 3390   0.118   3.821   6.094  0.2666 -0.4002 -0.5340
   26SAPC  H12A 3391   0.190   3.755   6.140  0.8038  0.7930  0.3839
   26SAPC  H12B 3392   0.111   3.803   5.987  2.7507  1.3802 -1.0744
   26SAPC   C13 3393   0.074   4.070   6.087  0.5422 -0.0445  0.3082
   26SAPC  H13A 3394   0.117   4.169   6.094  1.7109 -0.4362 -0.8429
   26SAPC  H13B 3395   0.039   4.052   5.986  1.1940  0.0890  0.0534
   26SAPC  H13C 3396  -0.014   4.049   6.146 -2.3121  0.6726 -3.2805
   26SAPC   C14 3397   0.209   3.983   6.255 -1.1606  0.1572 -0.6164
   26SAPC  H14A 3398   0.254   4.081   6.267 -0.4547 -0.3519  1.1297
   26SAPC  H14B 3399   0.120   3.989   6.316 -2.4621  2.7605 -2.5733
   26SAPC  H14C 3400   0.276   3.907   6.291 -0.6328  0.3835 -1.1093
   26SAPC   C15 3401   0.291   4.001   6.038 -0.6916 -0.4496 -0.1886
   26SAPC  H15A 3402   0.260   4.025   5.937 -0.0901  2.9804  0.3390
   26SAPC  H15B 3403   0.336   4.087   6.085 -2.6926  1.0354 -0.8424
   26SAPC  H15C 3404   0.364   3.922   6.032 -1.3141 -1.0269 -0.2702
   26SAPC   C11 3405  -0.021   3.794   6.148  0.2121  0.1802  0.4265
   26SAPC  H11A 3406  -0.095   3.851   6.089 -1.4669 -0.2919  1.9806
   26SAPC  H11B 3407  -0.031   3.802   6.259  2.2152 -2.6052  0.9295
   26SAPC     P 3408   0.033   3.534   6.165 -0.0361 -0.2040  0.1117
   26SAPC   O13 3409  -0.001   3.417   6.081 -0.2003 -0.2551  0.0184
   26SAPC   O14 3410   0.178   3.561   6.174  0.4733  0.4203  0.5165
   26SAPC   O12 3411  -0.053   3.659   6.113 -0.1896  0.0087  0.2915
   26SAPC   O11 3412  -0.015   3.514   6.315  0.2767 -0.3634 -0.4081
   26SAPC    C1 3413  -0.148   3.521   6.363  0.0224  0.9608 -0.1544
   26SAPC    HA 3414  -0.217   3.518   6.276  0.2498 -0.1151 -0.3157
   26SAPC    HB 3415  -0.159   3.432   6.429 -0.0664  0.1614 -1.2290
   26SAPC    C2 3416  -0.177   3.638   6.463 -0.0639  0.3351  0.8641
   26SAPC    HS 3417  -0.147   3.736   6.420 -1.4577 -0.6699 -2.7510
   26SAPC   O21 3418  -0.114   3.605   6.590  0.3530  0.0963  0.1276
   26SAPC   C21 3419  -0.001   3.669   6.605 -0.3680 -0.4926  0.1617
   26SAPC   O22 3420   0.027   3.776   6.544  0.0710 -0.2880  0.1942
   26SAPC   C22 3421   0.082   3.611   6.728 -0.5296 -0.2291  0.5342
   26SAPC   H2R 3422   0.066   3.502   6.725  0.9792 -0.4511 -1.3586
   26SAPC   H2S 3423   0.190   3.637   6.722  0.1570 -2.9731 -0.0415
   26SAPC    C3 3424  -0.331   3.646   6.487  0.6146 -0.4935  0.1617
   26SAPC    HX 3425  -0.358   3.546   6.526  1.3611 -1.1236 -0.8712
   26SAPC    HY 3426  -0.379   3.662   6.388  0.7103  2.2371  0.4585
   26SAPC   O31 3427  -0.362   3.748   6.581  0.7285 -0.0234 -0.4437
   26SAPC   C31 3428  -0.417   3.858   6.536 -0.2779 -0.2255  0.8529
   26SAPC   O32 3429  -0.456   3.884   6.421  0.2284 -0.0946 -0.0630
   26SAPC   C32 3430  -0.449   3.951   6.649  0.1177  1.3145  0.3378
   26SAPC   H2X 3431  -0.499   3.898   6.733 -1.3333  1.2694 -0.5082
   26SAPC   H2Y 3432  -0.525   4.020   6.606  0.9054  1.1171 -1.4776
   26SAPC   C23 3433   0.018   3.674   6.852  0.0381  0.1588 -1.3030
   26SAPC   H3R 3434   0.018   3.595   6.930 -1.0227  2.1945  0.8811
   26SAPC   H3S 3435  -0.091   3.685   6.837 -0.4999 -0.8377  1.3410
   26SAPC   C24 3436   0.081   3.809   6.896 -0.9358  0.3249  0.1921
   26SAPC   H4R 3437   0.034   3.835   6.993  1.0754  2.3779  0.7183
   26SAPC   H4S 3438   0.046   3.884   6.821 -1.7967 -1.3307 -1.1197
   26SAPC   C25 3439   0.230   3.830   6.916  0.7421  0.4896 -0.5008
   26SAPC   H5R 3440   0.259   3.905   6.842 -0.6880  1.0136 -0.5598
   26SAPC   C26 3441   0.320   3.763   6.994 -0.3291 -0.2582  1.5311
   26SAPC   H6R 3442   0.428   3.779   6.982 -0.2156 -0.8205  1.7938
   26SAPC   C27 3443   0.281   3.651   7.089 -0.1989 -0.2729 -0.4575
   26SAPC   H7R 3444   0.251   3.557   7.036 -1.3179  0.7368 -1.6992
   26SAPC   H7S 3445   0.188   3.676   7.145 -0.2737  2.3081 -1.6171
   26SAPC   C28 3446   0.398   3.628   7.184 -0.2338  0.3488 -0.1056
   26SAPC   H8R 3447   0.495   3.614   7.135 -0.3271  1.7703 -0.7275
   26SAPC   C29 3448   0.399   3.627   7.318 -0.4473 -0.1835  0.0168
   26SAPC   H9R 3449   0.495   3.625   7.373  0.4706  2.3101 -1.3383
   26SAPC  C210 3450   0.283   3.656   7.407  0.1605 -0.1948 -0.2994
   26SAPC  H10R 3451   0.265   3.566   7.469 -3.3584  1.1707  0.8900
   26SAPC  H10S 3452   0.182   3.671   7.362  0.0448  2.6573  0.7412
   26SAPC  C211 3453   0.310   3.773   7.489  0.3202 -0.1929 -0.7087
   26SAPC  H11R 3454   0.300   3.869   7.436  1.1475  0.5561  0.4589
   26SAPC  C212 3455   0.312   3.776   7.625 -0.4275 -0.1273  0.8524
   26SAPC  H12R 3456   0.348   3.869   7.673 -0.2235 -0.1027  0.6584
   26SAPC  C213 3457   0.300   3.655   7.719 -0.5773  0.1289 -0.5386
   26SAPC  H13R 3458   0.250   3.570   7.667  0.7635 -1.6455  0.9561
   26SAPC  H13S 3459   0.232   3.680   7.803  1.0528 -1.6383  1.4071
   26SAPC  C214 3460   0.431   3.594   7.775 -0.0088 -0.0170 -0.3361
   26SAPC  H14R 3461   0.493   3.545   7.698  1.1071 -1.0715  1.1506
   26SAPC  C215 3462   0.474   3.605   7.898  0.0431 -0.1386  0.3374
   26SAPC  H15R 3463   0.570   3.556   7.921 -0.2641 -0.0138  2.0532
   26SAPC  C216 3464   0.405   3.671   8.016 -0.3318 -0.4489 -0.7450
   26SAPC  H16R 3465   0.411   3.602   8.103  1.0333 -0.2070 -0.6299
   26SAPC  H16S 3466   0.298   3.698   8.001 -0.2404  2.2812  2.4163
   26SAPC  C217 3467   0.480   3.800   8.046  0.3003  0.2794 -0.1163
   26SAPC  H17R 3468   0.589   3.787   8.058  0.4358 -1.6088 -2.6835
   26SAPC  H17S 3469   0.457   3.853   8.141  1.9579  2.2923 -0.7588
   26SAPC  C218 3470   0.466   3.913   7.942 -0.0266 -0.1803  0.0979
   26SAPC  H18R 3471   0.359   3.935   7.923  0.3088  1.2508 -0.2288
   26SAPC  H18S 3472   0.509   3.883   7.844  2.2658  0.2173  0.9116
   26SAPC  C219 3473   0.529   4.042   7.994 -0.4264 -0.4114 -0.1154
   26SAPC  H19R 3474   0.628   4.008   8.030 -0.6166 -0.0314  0.7892
   26SAPC  H19S 3475   0.470   4.076   8.082 -1.9901  0.1544 -1.3283
   26SAPC  C220 3476   0.547   4.160   7.892  0.4788 -0.3356  0.0654
   26SAPC  H20R 3477   0.600   4.132   7.798  0.1774  1.2370 -0.6067
   26SAPC  H20S 3478   0.606   4.242   7.938  1.7008 -0.6722 -0.8422
   26SAPC  H20T 3479   0.452   4.205   7.858  0.5628 -0.1828  0.0326
   26SAPC   C33 3480  -0.325   4.019   6.693  0.1415 -0.8386 -0.2355
   26SAPC   H3X 3481  -0.307   4.097   6.616 -0.8113 -1.6967 -1.3706
   26SAPC   H3Y 3482  -0.239   3.949   6.693  0.7059 -0.1653  0.7066
   26SAPC   C34 3483  -0.343   4.094   6.830  0.1375 -0.4008 -0.4871
   26SAPC   H4X 3484  -0.430   4.049   6.884  0.5859  0.1831  0.7478
   26SAPC   H4Y 3485  -0.368   4.202   6.819 -1.0347 -0.4994  0.8313
   26SAPC   C35 3486  -0.219   4.090   6.922  0.3485  0.5047 -0.5199
   26SAPC   H5X 3487  -0.143   4.153   6.870  1.6849  0.1155  0.8852
   26SAPC   H5Y 3488  -0.179   3.987   6.908  0.4771  0.5248 -0.2960
   26SAPC   C36 3489  -0.239   4.118   7.074 -0.1481 -0.2459 -0.0658
   26SAPC   H6X 3490  -0.331   4.071   7.115 -1.7234  2.1369 -0.6985
   26SAPC   H6Y 3491  -0.263   4.225   7.089 -0.3486 -0.1140 -1.1989
   26SAPC   C37 3492  -0.119   4.075   7.162 -0.1794 -0.0220 -0.7965
   26SAPC   H7X 3493  -0.029   4.130   7.128  1.2625  0.2256  2.9475
   26SAPC   H7Y 3494  -0.109   3.967   7.135 -2.6452 -0.8455  1.1948
   26SAPC   C38 3495  -0.134   4.101   7.312 -0.2474 -0.2863 -1.0884
   26SAPC   H8X 3496  -0.213   4.042   7.363  1.5665 -0.0846  2.2225
   26SAPC   H8Y 3497  -0.155   4.209   7.327 -0.7908 -0.5909  0.5388
   26SAPC   C39 3498  -0.006   4.080   7.392  0.2977  0.0461  0.5582
   26SAPC   H9X 3499   0.065   4.151   7.344 -1.8855  0.9965 -1.4736
   26SAPC   H9Y 3500   0.021   3.974   7.378 -0.2403 -0.1343  0.8351
   26SAPC  C310 3501  -0.021   4.138   7.536 -0.2349  0.1617  0.0919
   26SAPC  H10X 3502  -0.122   4.126   7.582 -0.3514 -1.5549 -0.5445
   26SAPC  H10Y 3503  -0.006   4.247   7.523 -0.8502  0.1456 -0.8240
   26SAPC  C311 3504   0.091   4.097   7.635  0.1762  0.6671 -0.5711
   26SAPC  H11X 3505   0.191   4.106   7.588  0.2513  1.6454 -0.2452
   26SAPC  H11Y 3506   0.084   3.993   7.673  0.0426  0.7825 -0.2744
   26SAPC  C312 3507   0.111   4.167   7.773 -0.5229  0.1108  0.4542
   26SAPC  H12X 3508   0.058   4.265   7.774  0.5786  0.7709  3.0403
   26SAPC  H12Y 3509   0.217   4.195   7.789  0.0154 -1.6405  0.1172
   26SAPC  C313 3510   0.063   4.087   7.898 -0.0557 -0.0904 -0.3107
   26SAPC  H13X 3511   0.140   4.008   7.912 -0.7996 -1.0431 -1.3934
   26SAPC  H13Y 3512  -0.037   4.039   7.890  1.0793 -2.8685  0.9516
   26SAPC  C314 3513   0.079   4.186   8.020  0.0914 -0.3501 -0.1858
   26SAPC  H14X 3514  -0.003   4.260   8.012  0.7009  0.2651 -0.9325
   26SAPC  H14Y 3515   0.180   4.234   8.017  0.1622 -0.5285 -0.8101
   26SAPC  C315 3516   0.061   4.121   8.159 -0.4704 -0.0556  0.2927
   26SAPC  H15X 3517   0.150   4.056   8.172  2.6810  3.4666 -1.5557
   26SAPC  H15Y 3518  -0.026   4.054   8.173 -0.1168 -0.4501  0.6106
   26SAPC  C316 3519   0.057   4.222   8.278 -0.2812 -0.3281 -0.5941
   26SAPC  H16X 3520   0.135   4.301   8.285 -0.8357  0.2606 -0.9089
   26SAPC  H16Y 3521   0.065   4.165   8.373  0.5477  0.3397 -0.2555
   26SAPC  C317 3522  -0.088   4.284   8.287 -0.3453  0.5232 -0.4160
   26SAPC  H17X 3523  -0.171   4.210   8.286 -0.9298  1.1489 -2.4422
   26SAPC  H17Y 3524  -0.099   4.346   8.195 -0.0182 -1.9473 -2.2119
   26SAPC  C318 3525  -0.111   4.374   8.414 -0.1414 -0.5680  0.2863
   26SAPC  H18X 3526  -0.208   4.423   8.391 -0.4009 -0.0874  2.2022
   26SAPC  H18Y 3527  -0.034   4.453   8.423 -1.8974  1.3022 -0.3990
   26SAPC  H18Z 3528  -0.115   4.301   8.498 -1.2755 -1.5904 -0.6190
   27SAPC     N 3529   3.767   3.251   6.509 -0.5286 -0.1439  0.1463
   27SAPC   C12 3530   3.802   3.103   6.492 -0.1165 -0.5810 -0.4827
   27SAPC  H12A 3531   3.838   3.087   6.392 -0.5719  0.2013 -0.7830
   27SAPC  H12B 3532   3.708   3.049   6.498 -0.8113  0.6750  0.6396
   27SAPC   C13 3533   3.856   3.331   6.413  0.2603  0.4116 -0.1822
   27SAPC  H13A 3534   3.810   3.426   6.390  2.1936  1.2252 -0.9225
   27SAPC  H13B 3535   3.948   3.358   6.464  1.2426 -2.4639 -0.2493
   27SAPC  H13C 3536   3.875   3.287   6.317  1.9816  0.2027  0.2252
   27SAPC   C14 3537   3.621   3.285   6.477 -0.4736  0.0340 -0.0495
   27SAPC  H14A 3538   3.597   3.274   6.372 -1.0469  2.5356 -0.2368
   27SAPC  H14B 3539   3.546   3.223   6.523  0.4126  0.5755  2.2516
   27SAPC  H14C 3540   3.602   3.384   6.515 -0.7905 -0.6577  1.6961
   27SAPC   C15 3541   3.787   3.295   6.651  0.0045 -0.3443 -0.6373
   27SAPC  H15A 3542   3.888   3.282   6.687  0.1552  3.0417  0.5265
   27SAPC  H15B 3543   3.768   3.400   6.666  0.3526 -0.6212  2.2473
   27SAPC  H15C 3544   3.724   3.237   6.717 -1.2325 -0.8219 -2.1746
   27SAPC   C11 3545   3.913   3.024   6.581  0.3548 -0.4729  0.5538
   27SAPC  H11A 3546   3.894   2.917   6.557  0.7090 -0.5229  0.4973
   27SAPC  H11B 3547   3.880   3.052   6.684  2.6202 -2.1586  1.8279
   27SAPC     P 3548   4.127   3.186   6.597 -0.1923  0.2952 -0.2178
   27SAPC   O13 3549   4.124   3.302   6.511  0.2190 -0.0205 -0.0470
   27SAPC   O14 3550   4.088   3.206   6.735  0.0685  0.2730 -0.5370
   27SAPC   O12 3551   4.039   3.071   6.535  0.5768  0.0793 -0.6359
   27SAPC   O11 3552   4.270   3.134   6.595  0.0614  0.8433  0.4098
   27SAPC    C1 3553   4.310   3.001   6.635  0.3239 -0.1820  0.5080
   27SAPC    HA 3554   4.253   2.920   6.585 -0.2630 -0.5042  1.6722
   27SAPC    HB 3555   4.417   2.981   6.615  0.2541 -0.3961  0.3519
   27SAPC    C2 3556   4.284   2.979   6.785 -0.3951  0.1435  1.1770
   27SAPC    HS 3557   4.175   2.996   6.796 -0.6232 -0.7016  0.3879
   27SAPC   O21 3558   4.365   3.076   6.859 -0.2170  0.3313  0.5689
   27SAPC   C21 3559   4.310   3.128   6.967 -0.3957  0.6549 -0.1182
   27SAPC   O22 3560   4.198   3.105   7.007  0.2245  0.4401  0.2691
   27SAPC   C22 3561   4.406   3.233   7.015 -0.5970  0.1059 -0.0386
   27SAPC   H2R 3562   4.505   3.183   7.008 -1.4079 -1.5914 -0.0509
   27SAPC   H2S 3563   4.423   3.312   6.938  3.1399 -1.6567 -1.2739
   27SAPC    C3 3564   4.318   2.833   6.834  0.0620  0.2172 -0.1446
   27SAPC    HX 3565   4.427   2.813   6.828  0.6180  3.2719 -2.8902
   27SAPC    HY 3566   4.282   2.755   6.763  0.3678 -0.7069  0.6789
   27SAPC   O31 3567   4.259   2.793   6.956  0.5977  0.2138 -0.1485
   27SAPC   C31 3568   4.331   2.813   7.067  0.7681  0.5742  0.2769
   27SAPC   O32 3569   4.426   2.885   7.076  0.1013  0.0019 -0.4876
   27SAPC   C32 3570   4.272   2.712   7.170  0.3110 -0.6032  0.0369
   27SAPC   H2X 3571   4.315   2.617   7.133  0.0420 -0.1164 -1.6311
   27SAPC   H2Y 3572   4.162   2.710   7.152  0.5023 -1.2743 -1.1479
   27SAPC   C23 3573   4.382   3.287   7.154  0.9824 -0.4252 -0.3999
   27SAPC   H3R 3574   4.283   3.339   7.152  0.1883 -1.8554  0.0543
   27SAPC   H3S 3575   4.449   3.372   7.176 -1.3434  1.9572 -1.9401
   27SAPC   C24 3576   4.380   3.188   7.269  0.0113 -0.0055  0.4842
   27SAPC   H4R 3577   4.318   3.097   7.250 -1.7818  0.8312  1.9513
   27SAPC   H4S 3578   4.335   3.237   7.358  1.4900 -0.3705  1.4672
   27SAPC   C25 3579   4.502   3.116   7.303  0.4565  0.6957  0.8349
   27SAPC   H5R 3580   4.534   3.046   7.225 -3.0674 -0.2769  0.0859
   27SAPC   C26 3581   4.584   3.131   7.411 -0.4775  0.2760  0.6637
   27SAPC   H6R 3582   4.675   3.069   7.426  0.7660  1.4970 -1.3288
   27SAPC   C27 3583   4.578   3.221   7.529  0.1525 -0.3089  0.1322
   27SAPC   H7R 3584   4.575   3.324   7.488 -0.7630 -0.2706  0.2810
   27SAPC   H7S 3585   4.674   3.215   7.585 -0.2354 -0.0303  0.8473
   27SAPC   C28 3586   4.467   3.209   7.631  0.0211 -0.5330  0.3375
   27SAPC   H8R 3587   4.380   3.153   7.593 -0.6109 -0.3152  1.4067
   27SAPC   C29 3588   4.460   3.270   7.757  0.4083  0.3452  0.3689
   27SAPC   H9R 3589   4.374   3.248   7.822  0.0034 -2.2233 -0.8901
   27SAPC  C210 3590   4.560   3.358   7.818 -0.1633  0.0286  0.3240
   27SAPC  H10R 3591   4.509   3.441   7.871 -2.9312 -0.4671 -1.3642
   27SAPC  H10S 3592   4.619   3.411   7.739 -1.0755 -1.4908 -1.4374
   27SAPC  C211 3593   4.642   3.283   7.918 -0.7356 -0.8256 -0.8507
   27SAPC  H11R 3594   4.719   3.217   7.876  0.9710  0.1298  0.6247
   27SAPC  C212 3595   4.632   3.281   8.051  0.3643  0.3108  0.2749
   27SAPC  H12R 3596   4.705   3.214   8.099 -0.5308  0.2766  1.6445
   27SAPC  C213 3597   4.532   3.350   8.143 -0.2912  0.4293 -0.3330
   27SAPC  H13R 3598   4.428   3.348   8.104 -0.1385  0.4205 -0.7515
   27SAPC  H13S 3599   4.559   3.457   8.139  1.8165 -0.0602 -0.2823
   27SAPC  C214 3600   4.534   3.305   8.287 -0.6257  0.5365 -0.0077
   27SAPC  H14R 3601   4.443   3.256   8.323 -0.7790  0.1667 -0.8594
   27SAPC  C215 3602   4.630   3.332   8.377 -0.5083 -0.7024 -0.0901
   27SAPC  H15R 3603   4.616   3.292   8.479  1.0281  0.5458  0.6563
   27SAPC  C216 3604   4.759   3.407   8.361 -0.3981  0.2290 -0.5529
   27SAPC  H16R 3605   4.789   3.417   8.254  0.8978 -0.8706 -0.3177
   27SAPC  H16S 3606   4.847   3.356   8.404  1.1106  1.5057 -2.0167
   27SAPC  C217 3607   4.740   3.552   8.423 -0.5519 -0.2244 -0.5381
   27SAPC  H17R 3608   4.728   3.553   8.533 -0.0262 -1.7063 -0.4355
   27SAPC  H17S 3609   4.644   3.589   8.381 -1.0055 -0.0887  0.5749
   27SAPC  C218 3610   4.841   3.656   8.371 -0.5190  0.7043 -0.1023
   27SAPC  H18R 3611   4.943   3.611   8.378 -1.2817 -1.4486 -1.5459
   27SAPC  H18S 3612   4.843   3.746   8.436  0.7503 -0.0870  1.0145
   27SAPC  C219 3613   4.816   3.707   8.228  0.0641  0.7615 -0.2778
   27SAPC  H19R 3614   4.706   3.725   8.223 -0.2092 -0.4935  0.6399
   27SAPC  H19S 3615   4.841   3.624   8.158  1.8194  0.7348  0.3359
   27SAPC  C220 3616   4.889   3.838   8.193  0.2760  0.3359 -0.5398
   27SAPC  H20R 3617   4.990   3.833   8.238 -0.6400  0.5126  1.6808
   27SAPC  H20S 3618   4.847   3.918   8.257 -0.4437  0.2868 -0.9325
   27SAPC  H20T 3619   4.889   3.878   8.089 -0.6037  0.5710 -0.4612
   27SAPC   C33 3620   4.309   2.732   7.324  0.7793  0.5079 -0.2159
   27SAPC   H3X 3621   4.326   2.839   7.350 -3.9378  1.0709  1.6007
   27SAPC   H3Y 3622   4.403   2.675   7.340 -0.2703 -1.9730 -2.1735
   27SAPC   C34 3623   4.196   2.693   7.421 -0.2748 -0.2727 -0.0053
   27SAPC   H4X 3624   4.170   2.588   7.397 -3.0495 -0.3915  2.8468
   27SAPC   H4Y 3625   4.102   2.750   7.403 -0.4787 -1.0581 -1.5542
   27SAPC   C35 3626   4.241   2.689   7.569  0.1477  0.6885 -0.1329
   27SAPC   H5X 3627   4.339   2.638   7.573 -0.5581 -0.7382 -0.0922
   27SAPC   H5Y 3628   4.167   2.632   7.630 -0.0832  0.8040 -0.3005
   27SAPC   C36 3629   4.260   2.818   7.644 -0.8019  0.0544 -0.0942
   27SAPC   H6X 3630   4.160   2.867   7.642 -1.3994 -0.8223  3.0228
   27SAPC   H6Y 3631   4.340   2.866   7.584  0.3816 -0.0711  1.3130
   27SAPC   C37 3632   4.311   2.789   7.790 -0.1807  0.0015 -0.3062
   27SAPC   H7X 3633   4.393   2.714   7.785 -0.1500 -0.1772  2.0212
   27SAPC   H7Y 3634   4.222   2.745   7.839 -0.9213  1.6313 -0.1292
   27SAPC   C38 3635   4.385   2.910   7.857 -0.5116 -0.5463  0.0748
   27SAPC   H8X 3636   4.369   3.003   7.798  4.1273  0.9457  0.7487
   27SAPC   H8Y 3637   4.496   2.905   7.844 -0.5822 -0.5901 -0.5427
   27SAPC   C39 3638   4.355   2.937   8.003 -0.2271 -0.2811 -0.6724
   27SAPC   H9X 3639   4.248   2.960   8.017  0.1783  0.2988  2.0805
   27SAPC   H9Y 3640   4.411   3.022   8.046  2.1402 -1.2671 -1.6342
   27SAPC  C310 3641   4.376   2.809   8.091 -0.2894  0.5793  0.1359
   27SAPC  H10X 3642   4.477   2.764   8.082 -0.9094 -1.2698  1.6938
   27SAPC  H10Y 3643   4.299   2.738   8.054 -0.3226  0.1505  0.9722
   27SAPC  C311 3644   4.342   2.836   8.242  0.4456  0.4669  0.6400
   27SAPC  H11X 3645   4.319   2.741   8.294  1.1660  0.6481  1.3072
   27SAPC  H11Y 3646   4.253   2.903   8.242  0.1848  0.1571 -1.0351
   27SAPC  C312 3647   4.454   2.905   8.321 -0.1704 -0.0754  0.3512
   27SAPC  H12X 3648   4.506   2.981   8.258  1.3801 -0.9541  0.5028
   27SAPC  H12Y 3649   4.533   2.828   8.339  0.0003  0.3842  1.6114
   27SAPC  C313 3650   4.409   2.951   8.453 -0.1695 -0.1678  0.1266
   27SAPC  H13X 3651   4.342   2.876   8.500  1.7986 -1.2820  1.3113
   27SAPC  H13Y 3652   4.353   3.047   8.446  1.0617  0.6102  0.5544
   27SAPC  C314 3653   4.523   2.979   8.551  0.6455  0.1014  0.4115
   27SAPC  H14X 3654   4.608   3.008   8.486  0.6929 -0.4184  0.2373
   27SAPC  H14Y 3655   4.565   2.888   8.600  0.5657 -1.0759 -1.6037
   27SAPC  C315 3656   4.492   3.080   8.660  0.3976 -0.1067  0.5084
   27SAPC  H15X 3657   4.406   3.040   8.717 -0.1667  2.2509  1.4270
   27SAPC  H15Y 3658   4.461   3.177   8.615 -0.3915  0.7289  2.7409
   27SAPC  C316 3659   4.606   3.106   8.756  0.8317  0.5310  0.5405
   27SAPC  H16X 3660   4.684   3.148   8.689  0.0459  0.9602 -0.1098
   27SAPC  H16Y 3661   4.633   3.005   8.796  0.0624  1.8520  4.9159
   27SAPC  C317 3662   4.579   3.201   8.875 -0.0645  0.5234 -0.1144
   27SAPC  H17X 3663   4.505   3.276   8.843 -0.6938 -0.5990 -1.3711
   27SAPC  H17Y 3664   4.670   3.257   8.907  2.0654 -3.5447  1.8657
   27SAPC  C318 3665   4.517   3.138   9.008 -0.3891  0.1094 -0.2826
   27SAPC  H18X 3666   4.418   3.093   8.986 -0.8201 -0.6162  2.7200
   27SAPC  H18Y 3667   4.512   3.221   9.081  2.1921 -1.0448  1.3442
   27SAPC  H18Z 3668   4.594   3.067   9.045  1.0243  1.0178 -1.3638
   28SAPC     N 3669   1.961   0.663   5.770 -0.0293  1.0618  0.6091
   28SAPC   C12 3670   1.850   0.622   5.863  0.5132  0.3018 -0.2635
   28SAPC  H12A 3671   1.797   0.531   5.841 -0.6785  0.1312  2.7868
   28SAPC  H12B 3672   1.779   0.704   5.871 -0.0625 -0.2088 -0.1036
   28SAPC   C13 3673   2.072   0.566   5.762  0.0772 -0.1509 -0.3424
   28SAPC  H13A 3674   2.039   0.471   5.722 -1.8722  0.2727  0.1774
   28SAPC  H13B 3675   2.158   0.604   5.709 -1.3029  2.8648 -0.5764
   28SAPC  H13C 3676   2.101   0.545   5.864  1.0850  0.3991 -0.4989
   28SAPC   C14 3677   1.905   0.684   5.632  0.4713 -0.3842 -0.0521
   28SAPC  H14A 3678   1.872   0.591   5.590 -0.5638 -0.6121  1.2120
   28SAPC  H14B 3679   1.826   0.757   5.637 -0.8401 -1.7047 -0.7574
   28SAPC  H14C 3680   1.977   0.718   5.558 -1.5257  1.5551 -1.2308
   28SAPC   C15 3681   2.028   0.794   5.818 -0.1692  0.4906  0.0541
   28SAPC  H15A 3682   1.956   0.874   5.826  1.6686  2.1379  1.1356
   28SAPC  H15B 3683   2.073   0.786   5.916  0.8021  1.6492 -0.2827
   28SAPC  H15C 3684   2.107   0.814   5.747 -0.2811 -1.1318 -0.5686
   28SAPC   C11 3685   1.891   0.612   6.012  0.2867 -1.1376  0.3007
   28SAPC  H11A 3686   1.799   0.589   6.070 -0.5138  2.4734  0.7127
   28SAPC  H11B 3687   1.913   0.716   6.042 -2.6132 -0.0865 -0.8830
   28SAPC     P 3688   2.003   0.424   6.144 -0.0339 -0.3532  0.1162
   28SAPC   O13 3689   1.875   0.354   6.140 -0.3667 -0.5217  0.3984
   28SAPC   O14 3690   2.120   0.343   6.111 -0.4104 -0.0085  0.0546
   28SAPC   O12 3691   2.004   0.534   6.035 -0.6633  0.3811 -0.6163
   28SAPC   O11 3692   2.026   0.498   6.280  0.3707  0.1336  0.0652
   28SAPC    C1 3693   2.148   0.572   6.300  0.6178 -0.6931  0.4202
   28SAPC    HA 3694   2.229   0.497   6.314  0.7790 -0.4403  0.8302
   28SAPC    HB 3695   2.187   0.624   6.210 -0.9640  0.9720  0.6451
   28SAPC    C2 3696   2.147   0.676   6.416 -0.2561  0.2143 -0.3517
   28SAPC    HS 3697   2.228   0.749   6.393  0.0559  0.0489  0.1988
   28SAPC   O21 3698   2.179   0.597   6.530 -0.3814  0.1899 -0.0447
   28SAPC   C21 3699   2.250   0.651   6.617 -0.1384 -0.0114  0.0943
   28SAPC   O22 3700   2.289   0.766   6.621 -0.0840 -0.0102  0.1151
   28SAPC   C22 3701   2.286   0.542   6.720 -0.3544 -0.1118 -0.1071
   28SAPC   H2R 3702   2.303   0.453   6.656 -3.3981 -0.3548 -0.7510
   28SAPC   H2S 3703   2.386   0.562   6.764  0.5269 -4.5661  0.3315
   28SAPC    C3 3704   2.021   0.753   6.426  0.0793 -0.2034  0.4014
   28SAPC    HX 3705   1.944   0.681   6.461  0.8444  0.0264  2.7183
   28SAPC    HY 3706   1.994   0.794   6.327  0.1450 -1.6435 -0.2433
   28SAPC   O31 3707   2.024   0.858   6.525  0.2809 -0.5182 -0.5992
   28SAPC   C31 3708   2.049   0.981   6.477  0.2541  0.1548  0.1564
   28SAPC   O32 3709   2.071   1.005   6.358  0.0803  0.0241  0.2511
   28SAPC   C32 3710   2.022   1.085   6.586 -0.3664 -0.1506 -0.1292
   28SAPC   H2X 3711   1.945   1.152   6.543  0.3027  1.2678  0.7926
   28SAPC   H2Y 3712   2.116   1.144   6.587 -1.3092  1.3845  1.0742
   28SAPC   C23 3713   2.173   0.520   6.825 -0.1539 -0.6882  0.0403
   28SAPC   H3R 3714   2.202   0.434   6.889  2.6432 -1.4986 -2.1136
   28SAPC   H3S 3715   2.079   0.483   6.778 -2.4293  0.1485  3.5776
   28SAPC   C24 3716   2.146   0.642   6.911 -0.3986  0.4618 -0.2164
   28SAPC   H4R 3717   2.244   0.681   6.944  0.3207 -1.4390  0.0389
   28SAPC   H4S 3718   2.090   0.718   6.852  0.4409 -1.1145 -3.2621
   28SAPC   C25 3719   2.059   0.612   7.029 -0.2812  0.2251  0.0040
   28SAPC   H5R 3720   1.979   0.539   7.008  0.4503 -0.1512 -1.6070
   28SAPC   C26 3721   2.058   0.671   7.145 -0.9324  0.3735  0.1009
   28SAPC   H6R 3722   1.984   0.657   7.225 -0.4036  0.0585  0.5459
   28SAPC   C27 3723   2.154   0.778   7.178 -0.3102 -0.1826 -0.7542
   28SAPC   H7R 3724   2.095   0.861   7.221  0.8365 -0.5104  1.6246
   28SAPC   H7S 3725   2.213   0.807   7.089  3.7906 -2.0302  1.0924
   28SAPC   C28 3726   2.257   0.743   7.285  0.1425  0.0119 -0.1841
   28SAPC   H8R 3727   2.329   0.663   7.258  1.0208  0.0402  1.9468
   28SAPC   C29 3728   2.252   0.788   7.418 -0.6140  0.2929  0.1927
   28SAPC   H9R 3729   2.324   0.754   7.494 -1.2536  1.6122  1.4361
   28SAPC  C210 3730   2.153   0.889   7.478 -0.0868 -0.1588  0.4350
   28SAPC  H10R 3731   2.132   0.848   7.579  2.2428  0.7788  1.3594
   28SAPC  H10S 3732   2.058   0.884   7.420  0.4191  2.9978 -0.8785
   28SAPC  C211 3733   2.195   1.036   7.463 -0.1612 -0.2546  1.1615
   28SAPC  H11R 3734   2.272   1.064   7.391 -1.9618  2.2451  0.0788
   28SAPC  C212 3735   2.142   1.129   7.546 -0.2146 -0.1683 -0.3875
   28SAPC  H12R 3736   2.164   1.235   7.531  0.9544 -0.1487  1.2526
   28SAPC  C213 3737   2.034   1.113   7.649 -0.2136 -0.7209  0.2466
   28SAPC  H13R 3738   2.092   1.094   7.742 -0.6744 -2.0003  0.2980
   28SAPC  H13S 3739   1.966   1.025   7.639 -1.5975  0.3886 -0.4484
   28SAPC  C214 3740   1.952   1.236   7.663  0.0356  0.7071  0.1873
   28SAPC  H14R 3741   1.942   1.292   7.569 -0.0735 -1.1610 -0.9558
   28SAPC  C215 3742   1.888   1.287   7.772 -0.7000 -0.3785  0.6463
   28SAPC  H15R 3743   1.826   1.377   7.764  0.5420  0.5906  1.4285
   28SAPC  C216 3744   1.893   1.223   7.906 -0.0847  0.3990  0.9333
   28SAPC  H16R 3745   1.996   1.242   7.942  0.4848 -0.1377 -0.3584
   28SAPC  H16S 3746   1.885   1.115   7.883 -0.7009  0.8893 -1.4974
   28SAPC  C217 3747   1.782   1.261   8.006 -0.1761 -0.5366 -0.4949
   28SAPC  H17R 3748   1.692   1.203   7.975  0.3004 -1.8687  0.5374
   28SAPC  H17S 3749   1.763   1.371   8.003  1.0557 -0.1837  1.8682
   28SAPC  C218 3750   1.818   1.225   8.154  0.3352  0.4161  0.0313
   28SAPC  H18R 3751   1.893   1.144   8.149  1.2794  1.1146  1.9368
   28SAPC  H18S 3752   1.731   1.186   8.212 -0.9084  1.5393 -1.0101
   28SAPC  C219 3753   1.889   1.343   8.233  0.0897 -0.9811 -0.0667
   28SAPC  H19R 3754   1.970   1.390   8.173  0.7576  0.2354  1.7295
   28SAPC  H19S 3755   1.947   1.288   8.310  0.5808 -0.3960 -0.0125
   28SAPC  C220 3756   1.797   1.436   8.302  0.0654  0.0469 -0.1460
   28SAPC  H20R 3757   1.845   1.533   8.326  0.0555  0.1419 -0.5020
   28SAPC  H20S 3758   1.750   1.397   8.395  2.5479 -0.3567  1.0195
   28SAPC  H20T 3759   1.712   1.439   8.230  0.0447 -1.9107 -0.2613
   28SAPC   C33 3760   1.977   1.036   6.725 -1.1301 -0.5061 -0.0108
   28SAPC   H3X 3761   2.009   0.931   6.740 -1.2703 -0.4475  0.7333
   28SAPC   H3Y 3762   1.867   1.023   6.732 -1.1549 -0.3316 -0.0643
   28SAPC   C34 3763   2.037   1.114   6.844  0.2876  0.2597  0.0179
   28SAPC   H4X 3764   2.024   1.223   6.827  3.7620  0.9742  1.1830
   28SAPC   H4Y 3765   2.147   1.104   6.846  0.3682  0.8157 -0.8492
   28SAPC   C35 3766   1.986   1.078   6.986  0.4213 -0.4035 -0.8926
   28SAPC   H5X 3767   1.986   0.969   7.009 -2.1308 -0.0462  1.3422
   28SAPC   H5Y 3768   1.879   1.105   6.994  0.8093  0.7671  1.4490
   28SAPC   C36 3769   2.047   1.157   7.105  0.3418 -0.6949 -0.3652
   28SAPC   H6X 3770   2.154   1.133   7.124  0.1196 -0.7341  0.9524
   28SAPC   H6Y 3771   1.991   1.130   7.197  0.3606  2.2631  0.6308
   28SAPC   C37 3772   2.046   1.306   7.084  0.2369 -0.2571 -0.3805
   28SAPC   H7X 3773   1.955   1.349   7.038  0.5385  2.0138  1.0267
   28SAPC   H7Y 3774   2.122   1.308   7.003 -2.3936 -1.3779 -3.0917
   28SAPC   C38 3775   2.081   1.381   7.210 -0.3160  0.3842  0.2623
   28SAPC   H8X 3776   2.147   1.469   7.193  1.5575 -1.4551 -3.0551
   28SAPC   H8Y 3777   2.145   1.314   7.271 -1.6460 -3.3374 -2.0852
   28SAPC   C39 3778   1.958   1.448   7.274  0.2838 -0.0634  0.4684
   28SAPC   H9X 3779   1.896   1.362   7.307 -1.2594 -0.0002 -2.0097
   28SAPC   H9Y 3780   1.897   1.511   7.206 -0.0000 -2.5426 -1.7323
   28SAPC  C310 3781   1.993   1.542   7.393 -0.0067  0.0783  0.1890
   28SAPC  H10X 3782   2.054   1.631   7.364 -1.4921  1.1441  0.2234
   28SAPC  H10Y 3783   2.062   1.484   7.458 -0.6382  0.7565  1.5095
   28SAPC  C311 3784   1.881   1.602   7.476  1.1904  0.3961 -0.6419
   28SAPC  H11X 3785   1.805   1.524   7.497  1.0121  1.0175  1.1210
   28SAPC  H11Y 3786   1.829   1.679   7.415 -1.3835  1.9717  3.2000
   28SAPC  C312 3787   1.938   1.664   7.603  0.4834 -0.1119 -0.2083
   28SAPC  H12X 3788   2.001   1.751   7.574  1.2748 -0.6153 -0.0262
   28SAPC  H12Y 3789   2.003   1.601   7.667  0.4388  0.2620  0.2147
   28SAPC  C313 3790   1.822   1.721   7.683  0.0178 -0.1898 -0.3766
   28SAPC  H13X 3791   1.772   1.802   7.626 -0.0964 -0.6009 -0.8707
   28SAPC  H13Y 3792   1.874   1.778   7.763 -1.6404  1.6816 -0.5637
   28SAPC  C314 3793   1.716   1.627   7.739 -0.1505  0.2766 -0.7708
   28SAPC  H14X 3794   1.771   1.586   7.826  0.6651  2.5186 -0.1552
   28SAPC  H14Y 3795   1.692   1.553   7.660 -0.7130 -0.0337 -0.3182
   28SAPC  C315 3796   1.592   1.696   7.794 -0.0006 -0.0477  0.0427
   28SAPC  H15X 3797   1.512   1.620   7.796 -1.1658  1.1447  1.6053
   28SAPC  H15Y 3798   1.573   1.777   7.720  0.3073  1.0704  1.1420
   28SAPC  C316 3799   1.621   1.749   7.926 -0.2967 -0.1096 -0.5262
   28SAPC  H16X 3800   1.709   1.816   7.920 -0.3838  0.1387  0.8160
   28SAPC  H16Y 3801   1.648   1.663   7.991 -0.2440 -0.0892 -0.5215
   28SAPC  C317 3802   1.507   1.827   7.998  0.3088  0.0180 -0.0484
   28SAPC  H17X 3803   1.549   1.886   8.082 -0.0230 -0.6833  0.6231
   28SAPC  H17Y 3804   1.441   1.746   8.038  0.8673 -0.6829 -0.5340
   28SAPC  C318 3805   1.422   1.917   7.907 -0.0806  0.2344  0.2226
   28SAPC  H18X 3806   1.478   1.985   7.840  1.0960  0.8317  1.7615
   28SAPC  H18Y 3807   1.352   1.977   7.968 -1.7182  0.6132 -1.9015
   28SAPC  H18Z 3808   1.366   1.849   7.840  1.6839  0.1418 -1.2242
   29SAPC     N 3809   5.608   4.622   6.318 -0.2470  0.3626  0.4796
   29SAPC   C12 3810   5.687   4.549   6.431 -0.3191 -0.7230  0.4821
   29SAPC  H12A 3811   5.649   4.569   6.530  0.2522 -2.3959  1.0830
   29SAPC  H12B 3812   5.788   4.587   6.431 -0.7061  0.3130  0.2923
   29SAPC   C13 3813   5.559   4.754   6.366  0.0513 -0.5609 -0.0949
   29SAPC  H13A 3814   5.530   4.824   6.289 -1.9138 -2.1650 -0.9003
   29SAPC  H13B 3815   5.477   4.751   6.437 -1.7012  2.4854 -1.7531
   29SAPC  H13C 3816   5.641   4.795   6.422 -0.3131  0.1394 -0.0556
   29SAPC   C14 3817   5.691   4.644   6.200  0.0330 -0.3002  1.1618
   29SAPC  H14A 3818   5.778   4.707   6.213  0.0688  1.4918 -4.6455
   29SAPC  H14B 3819   5.744   4.554   6.172 -0.4345 -0.5057  0.9276
   29SAPC  H14C 3820   5.636   4.688   6.118 -0.0450  0.5720  1.6710
   29SAPC   C15 3821   5.493   4.536   6.275  0.6758  0.0516  1.0564
   29SAPC  H15A 3822   5.536   4.443   6.242 -1.0569 -0.3402 -0.2700
   29SAPC  H15B 3823   5.426   4.501   6.353 -2.0837 -1.0322 -1.5790
   29SAPC  H15C 3824   5.432   4.575   6.195  0.8439  0.6409  1.2125
   29SAPC   C11 3825   5.702   4.393   6.411 -0.1172 -0.0755 -0.1178
   29SAPC  H11A 3826   5.612   4.339   6.447 -2.4174  1.8959 -2.4281
   29SAPC  H11B 3827   5.792   4.363   6.469 -1.2067 -3.4294  0.0023
   29SAPC     P 3828   5.856   4.319   6.207 -0.3914 -0.1321  0.0283
   29SAPC   O13 3829   5.853   4.173   6.201 -0.8412  0.1563 -0.1135
   29SAPC   O14 3830   5.875   4.398   6.081  0.3705 -0.2774 -0.0309
   29SAPC   O12 3831   5.723   4.359   6.278 -0.3692 -0.1712  0.1887
   29SAPC   O11 3832   5.975   4.363   6.304  0.4438 -0.3296  0.2850
   29SAPC    C1 3833   6.028   4.494   6.313  0.1928 -0.5662 -0.7699
   29SAPC    HA 3834   6.097   4.521   6.230  3.7967 -0.6234  1.9300
   29SAPC    HB 3835   5.951   4.573   6.324 -1.5005 -2.3159  0.5555
   29SAPC    C2 3836   6.108   4.507   6.448 -0.7828  0.3513  0.0025
   29SAPC    HS 3837   6.207   4.459   6.432 -0.3751  0.6751  1.4482
   29SAPC   O21 3838   6.039   4.437   6.551  0.1085  0.8601  0.1232
   29SAPC   C21 3839   6.066   4.312   6.573 -0.0880  0.4599  0.1107
   29SAPC   O22 3840   6.159   4.248   6.527 -0.0282 -0.0043  0.6599
   29SAPC   C22 3841   5.955   4.258   6.674 -0.4407 -0.2233  0.1472
   29SAPC   H2R 3842   5.922   4.345   6.734  0.0406 -1.6791  2.6565
   29SAPC   H2S 3843   5.869   4.218   6.616 -0.2898 -0.2964 -0.0298
   29SAPC    C3 3844   6.142   4.657   6.489 -0.0306  0.0452  0.4981
   29SAPC    HX 3845   6.048   4.711   6.512 -0.8677 -0.1369 -2.2055
   29SAPC    HY 3846   6.193   4.707   6.404 -0.7608  0.1046  0.0856
   29SAPC   O31 3847   6.227   4.662   6.607  0.5467 -0.0631 -0.1901
   29SAPC   C31 3848   6.178   4.696   6.729  0.1737 -0.0013 -0.0605
   29SAPC   O32 3849   6.069   4.742   6.745  0.8966 -0.5004  0.3347
   29SAPC   C32 3850   6.282   4.683   6.847  0.5433  0.4895 -0.1146
   29SAPC   H2X 3851   6.288   4.779   6.903  3.5210  0.1411  0.3091
   29SAPC   H2Y 3852   6.382   4.669   6.801  0.6334  5.5363 -2.1237
   29SAPC   C23 3853   5.983   4.138   6.768 -0.0704  0.4982  0.0668
   29SAPC   H3R 3854   6.010   4.051   6.704  2.0000 -0.0928  1.6051
   29SAPC   H3S 3855   5.889   4.114   6.822 -0.1417 -1.1820 -0.7409
   29SAPC   C24 3856   6.091   4.166   6.874  0.2054  0.1016  0.2789
   29SAPC   H4R 3857   6.035   4.231   6.944  0.5546  1.5736 -0.7562
   29SAPC   H4S 3858   6.172   4.216   6.818  0.7328  2.4399  2.9272
   29SAPC   C25 3859   6.137   4.031   6.934  0.4112 -0.3395 -0.1012
   29SAPC   H5R 3860   6.159   3.954   6.859  0.2839  0.6886 -1.2317
   29SAPC   C26 3861   6.155   3.997   7.063 -0.3446 -0.3031  0.2382
   29SAPC   H6R 3862   6.197   3.898   7.084 -0.5910 -0.4021  0.2777
   29SAPC   C27 3863   6.133   4.092   7.179 -0.2711 -0.3497 -0.5308
   29SAPC   H7R 3864   6.128   4.197   7.142  0.4168 -0.1538 -0.0811
   29SAPC   H7S 3865   6.224   4.107   7.241 -0.3667  0.1116 -0.4974
   29SAPC   C28 3866   6.007   4.059   7.262  0.0268  0.8762 -0.3513
   29SAPC   H8R 3867   5.924   4.030   7.196  0.6447  1.1986 -1.2932
   29SAPC   C29 3868   5.987   4.050   7.398 -0.5153 -0.7381 -0.0156
   29SAPC   H9R 3869   5.882   4.035   7.427 -0.1647  0.9614  2.4246
   29SAPC  C210 3870   6.086   4.095   7.505 -0.3811  0.7492 -0.6324
   29SAPC  H10R 3871   6.029   4.125   7.596  1.1658  1.2313  0.2085
   29SAPC  H10S 3872   6.144   4.183   7.472 -1.3414  1.7119  0.1608
   29SAPC  C211 3873   6.185   3.987   7.545  0.6531  1.2819 -0.4590
   29SAPC  H11R 3874   6.248   3.965   7.458 -1.6684  1.2202 -2.2404
   29SAPC  C212 3875   6.183   3.911   7.656  0.3561  0.8945 -0.3176
   29SAPC  H12R 3876   6.257   3.829   7.660 -0.9409 -0.4862 -2.4447
   29SAPC  C213 3877   6.080   3.926   7.768  0.5678  0.6058 -0.0131
   29SAPC  H13R 3878   5.989   3.980   7.736 -0.3424 -0.6679  0.3489
   29SAPC  H13S 3879   6.123   3.996   7.842  2.1359 -1.6626  1.3656
   29SAPC  C214 3880   6.045   3.795   7.833  0.5815 -0.5226  0.2293
   29SAPC  H14R 3881   6.120   3.718   7.811 -0.0752 -0.8003 -1.1202
   29SAPC  C215 3882   5.946   3.752   7.918 -0.1510  0.2141 -0.1015
   29SAPC  H15R 3883   5.963   3.656   7.969  0.6224  1.2147  1.5959
   29SAPC  C216 3884   5.828   3.835   7.968 -0.3690  0.4302 -0.2701
   29SAPC  H16R 3885   5.730   3.793   7.936 -0.8579  1.2505  0.1239
   29SAPC  H16S 3886   5.840   3.931   7.914  1.5106  0.7468  0.6520
   29SAPC  C217 3887   5.827   3.870   8.122  0.2627 -1.1454 -0.2534
   29SAPC  H17R 3888   5.810   3.775   8.178  2.1004  0.3707  3.2062
   29SAPC  H17S 3889   5.735   3.931   8.137 -0.7523 -2.2673 -1.6426
   29SAPC  C218 3890   5.950   3.947   8.157 -0.1198  1.0186  0.2740
   29SAPC  H18R 3891   5.967   4.024   8.078 -2.3603  2.3591  1.0260
   29SAPC  H18S 3892   6.037   3.877   8.156 -0.8172  0.1172  0.7424
   29SAPC  C219 3893   5.937   4.030   8.285  0.0159  0.5620 -0.3172
   29SAPC  H19R 3894   5.830   4.058   8.292 -0.4336 -0.8582 -1.0764
   29SAPC  H19S 3895   6.005   4.118   8.278  0.7183 -0.0434 -1.5118
   29SAPC  C220 3896   5.980   3.954   8.409 -0.3351  0.2234  0.3449
   29SAPC  H20R 3897   6.088   3.936   8.393 -0.6440  0.7524 -3.1702
   29SAPC  H20S 3898   5.916   3.863   8.408 -1.5340  1.0261 -1.6425
   29SAPC  H20T 3899   5.959   4.017   8.498 -1.2794  2.4635 -1.3591
   29SAPC   C33 3900   6.252   4.553   6.930  0.0902  0.0958 -0.1250
   29SAPC   H3X 3901   6.273   4.463   6.870 -0.1756 -0.4524  0.5908
   29SAPC   H3Y 3902   6.146   4.564   6.963  0.0867 -1.4515  0.4783
   29SAPC   C34 3903   6.340   4.546   7.061  0.1623 -0.3543  0.7310
   29SAPC   H4X 3904   6.316   4.637   7.121  1.4151  0.2742  0.2971
   29SAPC   H4Y 3905   6.448   4.549   7.038 -0.0812  0.4533 -0.3967
   29SAPC   C35 3906   6.300   4.424   7.142 -0.4466  0.0238 -0.2416
   29SAPC   H5X 3907   6.330   4.328   7.094  0.7897 -1.9746  3.9317
   29SAPC   H5Y 3908   6.189   4.421   7.141 -0.5262 -2.4345  2.2307
   29SAPC   C36 3909   6.341   4.434   7.286 -0.8011 -0.3566 -0.2260
   29SAPC   H6X 3910   6.277   4.360   7.337 -2.1533  0.7882 -0.2122
   29SAPC   H6Y 3911   6.321   4.533   7.332  1.0350 -1.1427  2.5109
   29SAPC   C37 3912   6.484   4.394   7.319 -0.7339 -0.7336 -0.6682
   29SAPC   H7X 3913   6.553   4.472   7.281 -3.1479  0.4914 -2.8449
   29SAPC   H7Y 3914   6.511   4.292   7.284  1.1582 -0.5334  0.0719
   29SAPC   C38 3915   6.514   4.385   7.473  0.4422  0.0000  0.0236
   29SAPC   H8X 3916   6.469   4.476   7.519 -0.4529 -1.0618  1.3437
   29SAPC   H8Y 3917   6.624   4.390   7.489  0.5064 -0.0380 -0.4050
   29SAPC   C39 3918   6.458   4.259   7.546 -0.0530 -0.1912 -0.5338
   29SAPC   H9X 3919   6.482   4.168   7.488 -0.6186 -1.3397  0.9470
   29SAPC   H9Y 3920   6.348   4.248   7.557  0.1684 -0.7393  1.6519
   29SAPC  C310 3921   6.522   4.250   7.688 -0.4504  0.0568 -0.3415
   29SAPC  H10X 3922   6.482   4.336   7.745 -2.4147  0.5323 -2.2639
   29SAPC  H10Y 3923   6.633   4.242   7.690 -0.5197 -1.7168 -1.3268
   29SAPC  C311 3924   6.455   4.130   7.750 -0.1422  0.1251  0.1318
   29SAPC  H11X 3925   6.455   4.038   7.687 -0.3048 -0.4794  1.0049
   29SAPC  H11Y 3926   6.347   4.151   7.765  0.1059  2.6754 -1.1110
   29SAPC  C312 3927   6.507   4.095   7.888  0.1210 -0.6392 -0.9769
   29SAPC  H12X 3928   6.576   4.178   7.915  0.1603 -0.3503 -1.9092
   29SAPC  H12Y 3929   6.569   4.002   7.882  2.4882  0.8872 -1.7335
   29SAPC  C313 3930   6.401   4.084   8.004  0.4893  0.3359 -0.0574
   29SAPC  H13X 3931   6.333   3.998   7.986 -1.1001  1.6449 -0.6007
   29SAPC  H13Y 3932   6.334   4.169   7.979  0.0089 -0.0117  0.0464
   29SAPC  C314 3933   6.447   4.096   8.153  0.1171  0.1873 -0.4239
   29SAPC  H14X 3934   6.532   4.168   8.144  1.3594 -1.1566  0.2398
   29SAPC  H14Y 3935   6.489   3.998   8.185 -0.0074 -0.0556 -0.9943
   29SAPC  C315 3936   6.350   4.148   8.258  0.3595  0.5091  0.2322
   29SAPC  H15X 3937   6.269   4.072   8.265  1.1793 -0.3019  1.1541
   29SAPC  H15Y 3938   6.299   4.242   8.228 -1.5774 -0.2094  1.1298
   29SAPC  C316 3939   6.401   4.171   8.399 -0.2369 -0.6649  1.0942
   29SAPC  H16X 3940   6.474   4.255   8.393 -1.1514  0.1064  0.4175
   29SAPC  H16Y 3941   6.443   4.075   8.438  0.7279 -0.5782  0.3098
   29SAPC  C317 3942   6.296   4.221   8.497  0.2385 -0.2181 -0.0655
   29SAPC  H17X 3943   6.199   4.170   8.477 -0.8966  2.6536 -2.8409
   29SAPC  H17Y 3944   6.287   4.331   8.486 -1.3898 -0.3795 -0.6871
   29SAPC  C318 3945   6.359   4.196   8.636  0.4601  0.6029 -0.3588
   29SAPC  H18X 3946   6.366   4.087   8.657  0.3203  0.0577 -2.7822
   29SAPC  H18Y 3947   6.286   4.241   8.706 -0.6383 -0.7506 -0.6001
   29SAPC  H18Z 3948   6.460   4.242   8.643  0.2849  1.2058 -1.5004
   30SAPC     N 3949   1.411   5.165   5.631 -0.2301 -0.0823 -0.6411
   30SAPC   C12 3950   1.508   5.280   5.667  0.2617  0.5269 -0.1214
   30SAPC  H12A 3951   1.538   5.335   5.579  2.4281  1.0381  0.8734
   30SAPC  H12B 3952   1.602   5.241   5.703 -0.7832 -2.2961 -0.1663
   30SAPC   C13 3953   1.286   5.225   5.576 -0.1529 -0.5984  0.8059
   30SAPC  H13A 3954   1.300   5.273   5.480  1.3190  0.5626  1.5455
   30SAPC  H13B 3955   1.209   5.149   5.574  1.4968 -2.3618 -0.5643
   30SAPC  H13C 3956   1.244   5.303   5.637  0.4771 -0.0667  0.5693
   30SAPC   C14 3957   1.473   5.076   5.526  0.0952 -0.0589  0.3726
   30SAPC  H14A 3958   1.402   5.008   5.481  0.4352  0.0752 -0.3914
   30SAPC  H14B 3959   1.509   5.137   5.444  0.5140 -1.6408 -0.6487
   30SAPC  H14C 3960   1.547   5.012   5.570  0.0883 -0.6979 -0.5286
   30SAPC   C15 3961   1.382   5.080   5.749 -0.6791 -0.4230 -0.0424
   30SAPC  H15A 3962   1.338   5.138   5.829 -1.7870 -0.2306 -0.7579
   30SAPC  H15B 3963   1.308   5.006   5.721 -0.9233  0.5402 -2.1473
   30SAPC  H15C 3964   1.467   5.029   5.789 -0.5552 -1.0555 -1.0753
   30SAPC   C11 3965   1.457   5.377   5.774  0.7369  1.0678  0.1048
   30SAPC  H11A 3966   1.354   5.413   5.753 -0.0047  0.6980  2.7506
   30SAPC  H11B 3967   1.522   5.467   5.772  0.1678  1.4788 -0.0087
   30SAPC     P 3968   1.577   5.295   5.990 -0.1834 -0.2146  0.5554
   30SAPC   O13 3969   1.559   5.185   6.090  0.1581  0.2587  0.0340
   30SAPC   O14 3970   1.687   5.290   5.896 -0.1885  0.5752  0.1703
   30SAPC   O12 3971   1.452   5.322   5.907  0.8449 -0.3176 -0.1967
   30SAPC   O11 3972   1.595   5.432   6.068 -0.4413  0.0235  0.3436
   30SAPC    C1 3973   1.485   5.525   6.082 -0.2262  0.3590  0.1511
   30SAPC    HA 3974   1.461   5.575   5.986 -1.2325 -0.7970 -0.2296
   30SAPC    HB 3975   1.390   5.473   6.107 -0.9571  2.0292  1.0258
   30SAPC    C2 3976   1.511   5.618   6.198  0.1070 -0.7369  0.0806
   30SAPC    HS 3977   1.592   5.683   6.159 -1.7447  0.0311 -2.7947
   30SAPC   O21 3978   1.541   5.541   6.308 -0.2685  0.8648 -0.1654
   30SAPC   C21 3979   1.656   5.541   6.354 -0.0580 -0.4013  0.1470
   30SAPC   O22 3980   1.751   5.613   6.318 -0.5024  0.1533 -0.5514
   30SAPC   C22 3981   1.669   5.443   6.476  0.2363  0.5317  0.9849
   30SAPC   H2R 3982   1.568   5.402   6.492 -0.5459  0.8484 -2.3096
   30SAPC   H2S 3983   1.741   5.368   6.437 -1.7254 -0.9433  0.0552
   30SAPC    C3 3984   1.387   5.701   6.233 -0.0875  0.6227  0.2153
   30SAPC    HX 3985   1.309   5.626   6.256  0.2964  0.6294  1.6351
   30SAPC    HY 3986   1.340   5.753   6.147 -0.0863 -0.9576 -0.7917
   30SAPC   O31 3987   1.406   5.778   6.352  0.6450  0.4668  0.1093
   30SAPC   C31 3988   1.441   5.902   6.328  0.7208  0.4444 -0.6578
   30SAPC   O32 3989   1.447   5.953   6.220  0.1690  0.3357  0.0095
   30SAPC   C32 3990   1.446   5.979   6.462 -0.3500  0.0200 -0.4962
   30SAPC   H2X 3991   1.450   6.085   6.431  2.3565  0.0551 -0.3118
   30SAPC   H2Y 3992   1.535   5.953   6.523 -0.3809  0.7216 -0.1483
   30SAPC   C23 3993   1.717   5.520   6.595 -0.4646  0.2035  0.5611
   30SAPC   H3R 3994   1.816   5.568   6.577 -1.2685  1.6924 -0.0846
   30SAPC   H3S 3995   1.731   5.446   6.676  0.3325  0.5112  0.7183
   30SAPC   C24 3996   1.609   5.626   6.649 -0.3619  0.5696 -0.5381
   30SAPC   H4R 3997   1.531   5.567   6.701  0.1979  0.4713  0.2071
   30SAPC   H4S 3998   1.563   5.678   6.562 -1.6011 -1.2246 -1.0034
   30SAPC   C25 3999   1.667   5.733   6.728  0.1087  0.1363  0.8332
   30SAPC   H5R 4000   1.681   5.823   6.666  0.7850 -0.0124  0.7602
   30SAPC   C26 4001   1.687   5.745   6.860 -0.7521  0.4307 -0.0111
   30SAPC   H6R 4002   1.722   5.842   6.898  0.6213 -1.2441  3.3617
   30SAPC   C27 4003   1.657   5.645   6.972 -0.1046 -0.0225 -0.4166
   30SAPC   H7R 4004   1.609   5.549   6.944 -0.3740  0.3081 -1.1130
   30SAPC   H7S 4005   1.583   5.693   7.039  0.0447 -0.8398  0.3644
   30SAPC   C28 4006   1.784   5.616   7.047  0.0162 -0.0142  0.7034
   30SAPC   H8R 4007   1.861   5.569   6.985  0.8014  1.9613  0.0909
   30SAPC   C29 4008   1.810   5.672   7.164  0.3487  0.7646 -0.5688
   30SAPC   H9R 4009   1.912   5.652   7.202  1.3246  1.0352 -2.8485
   30SAPC  C210 4010   1.730   5.771   7.240  0.2375  0.1053  0.2565
   30SAPC  H10R 4011   1.675   5.717   7.320  2.0734  1.1632  2.3441
   30SAPC  H10S 4012   1.648   5.823   7.186  0.5522  0.6105  0.2673
   30SAPC  C211 4013   1.812   5.879   7.307  0.1005  0.3772  0.1748
   30SAPC  H11R 4014   1.858   5.944   7.231  0.6619  0.1880  0.3540
   30SAPC  C212 4015   1.845   5.894   7.437  0.0275  0.1131  0.1296
   30SAPC  H12R 4016   1.887   5.987   7.477  0.9834 -0.0959 -0.3628
   30SAPC  C213 4017   1.797   5.808   7.557 -0.5984 -0.1742 -0.3601
   30SAPC  H13R 4018   1.880   5.788   7.628  0.1819 -0.5010 -1.3509
   30SAPC  H13S 4019   1.763   5.709   7.522 -0.9838 -0.7535  1.5022
   30SAPC  C214 4020   1.675   5.864   7.633  0.0996 -0.2925 -0.9532
   30SAPC  H14R 4021   1.579   5.830   7.590  0.2426 -1.5752 -0.3117
   30SAPC  C215 4022   1.672   5.934   7.746 -0.5570  0.6315 -0.4975
   30SAPC  H15R 4023   1.574   5.969   7.784 -0.8260  1.7188 -2.0798
   30SAPC  C216 4024   1.795   5.983   7.822 -0.7296  0.3564 -0.4201
   30SAPC  H16R 4025   1.880   5.911   7.830 -0.5953  0.4094 -1.2682
   30SAPC  H16S 4026   1.762   5.989   7.928 -0.2322 -0.6019 -0.1981
   30SAPC  C217 4027   1.845   6.112   7.761 -0.0068 -0.6403 -0.3453
   30SAPC  H17R 4028   1.760   6.174   7.725 -0.1645 -1.8417 -2.2234
   30SAPC  H17S 4029   1.902   6.083   7.670 -1.3067  0.3180 -1.5026
   30SAPC  C218 4030   1.933   6.195   7.858  0.2168 -0.3602  0.3383
   30SAPC  H18R 4031   1.974   6.116   7.924 -0.4810 -1.5147 -0.5680
   30SAPC  H18S 4032   1.884   6.277   7.915  1.3067 -0.3789  1.3417
   30SAPC  C219 4033   2.052   6.262   7.785 -0.0547 -0.2115 -0.0215
   30SAPC  H19R 4034   2.021   6.330   7.703  1.5935  1.2863  0.5391
   30SAPC  H19S 4035   2.107   6.180   7.735 -0.7028 -0.4827 -0.3075
   30SAPC  C220 4036   2.134   6.336   7.888  0.2470  0.0396  0.1782
   30SAPC  H20R 4037   2.179   6.270   7.965  0.8757 -0.9537 -1.0142
   30SAPC  H20S 4038   2.062   6.399   7.945 -0.8567 -2.3400  1.5742
   30SAPC  H20T 4039   2.213   6.399   7.843  0.8724 -1.0946 -0.3582
   30SAPC   C33 4040   1.316   5.964   6.546 -0.9321  0.7794  0.3442
   30SAPC   H3X 4041   1.324   5.862   6.589  2.1141  1.5484  1.8254
   30SAPC   H3Y 4042   1.224   5.958   6.484 -0.3487  0.1680 -0.4859
   30SAPC   C34 4043   1.305   6.060   6.660 -0.1886 -0.0028 -0.2371
   30SAPC   H4X 4044   1.221   6.033   6.728 -0.0947  1.2683  0.4158
   30SAPC   H4Y 4045   1.279   6.163   6.629 -0.2096  0.1353  0.2244
   30SAPC   C35 4046   1.431   6.055   6.756  0.7537  0.2154 -0.0162
   30SAPC   H5X 4047   1.531   6.064   6.708  0.6408  2.1418  0.0487
   30SAPC   H5Y 4048   1.426   5.951   6.794  0.2210 -0.3874 -1.6448
   30SAPC   C36 4049   1.407   6.154   6.869 -0.3301  0.5006 -0.0885
   30SAPC   H6X 4050   1.297   6.164   6.883 -0.3574  0.5467 -0.3201
   30SAPC   H6Y 4051   1.446   6.251   6.832 -1.3795  1.0044  0.0797
   30SAPC   C37 4052   1.468   6.114   7.002  0.2527 -1.1622 -0.2681
   30SAPC   H7X 4053   1.573   6.147   7.012  0.8162 -2.9373  0.0615
   30SAPC   H7Y 4054   1.447   6.006   7.022 -1.1700 -0.5870  1.6199
   30SAPC   C38 4055   1.381   6.179   7.111  0.1015 -0.0336 -0.0307
   30SAPC   H8X 4056   1.274   6.149   7.115  0.4220 -1.3530 -0.9282
   30SAPC   H8Y 4057   1.390   6.288   7.090 -2.2589  0.0571 -0.9065
   30SAPC   C39 4058   1.442   6.159   7.250 -0.1099  0.5876  0.0086
   30SAPC   H9X 4059   1.537   6.215   7.256  0.5825 -0.5253 -0.2569
   30SAPC   H9Y 4060   1.464   6.050   7.253 -1.4444  0.3116  0.4984
   30SAPC  C310 4061   1.364   6.192   7.375  0.7497 -0.0964  0.0671
   30SAPC  H10X 4062   1.271   6.132   7.371  2.5787 -3.1017 -0.7157
   30SAPC  H10Y 4063   1.338   6.300   7.367 -1.5316 -0.7585 -3.4769
   30SAPC  C311 4064   1.453   6.170   7.494 -0.5641  0.4152  0.7321
   30SAPC  H11X 4065   1.549   6.224   7.483  0.1846 -0.5471  2.2227
   30SAPC  H11Y 4066   1.485   6.064   7.509 -1.7997  0.1340  1.5004
   30SAPC  C312 4067   1.388   6.223   7.624 -0.3859  0.1836 -0.2460
   30SAPC  H12X 4068   1.455   6.175   7.698 -0.7000  0.1154 -0.0004
   30SAPC  H12Y 4069   1.282   6.192   7.636 -0.2303 -0.0503  0.5901
   30SAPC  C313 4070   1.413   6.374   7.639 -0.4236 -0.4600  0.1346
   30SAPC  H13X 4071   1.350   6.427   7.564 -1.3956 -0.0989  1.1724
   30SAPC  H13Y 4072   1.519   6.389   7.612 -0.5781 -1.5358 -1.1976
   30SAPC  C314 4073   1.404   6.442   7.778 -0.0225  0.0629 -0.1422
   30SAPC  H14X 4074   1.449   6.543   7.769  0.4331 -0.2395 -1.5081
   30SAPC  H14Y 4075   1.455   6.379   7.855  2.2486  1.0971 -0.7091
   30SAPC  C315 4076   1.259   6.462   7.820 -0.1187  0.0294 -0.7732
   30SAPC  H15X 4077   1.194   6.378   7.787 -0.9347  0.6603 -0.7987
   30SAPC  H15Y 4078   1.233   6.549   7.757 -0.6776 -0.0919 -0.7227
   30SAPC  C316 4079   1.229   6.487   7.969  0.1944  0.9805 -0.3599
   30SAPC  H16X 4080   1.119   6.501   7.968  0.1449  0.7652  0.6869
   30SAPC  H16Y 4081   1.269   6.582   8.010 -0.0648  0.2148  1.7948
   30SAPC  C317 4082   1.263   6.371   8.060  0.1040 -1.0397  0.1558
   30SAPC  H17X 4083   1.374   6.366   8.074 -0.0514 -0.4957  1.7660
   30SAPC  H17Y 4084   1.226   6.275   8.019 -2.2264 -0.3399  0.5218
   30SAPC  C318 4085   1.200   6.390   8.199 -0.7741  0.2987 -0.6905
   30SAPC  H18X 4086   1.217   6.493   8.237 -0.5346 -0.4988  1.4950
   30SAPC  H18Y 4087   1.231   6.308   8.267 -0.9541 -1.0532 -2.1942
   30SAPC  H18Z 4088   1.089   6.382   8.190 -1.1535  3.2719  0.1090
   31SAPC     N 4089   1.997   5.473   6.017  0.0964  0.0082  0.0328
   31SAPC   C12 4090   2.110   5.566   5.989 -0.2246 -0.8659  0.0159
   31SAPC  H12A 4091   2.142   5.554   5.887  1.5659 -1.0798  0.5695
   31SAPC  H12B 4092   2.193   5.529   6.046 -0.8135  1.1882  2.4056
   31SAPC   C13 4093   1.957   5.457   6.158 -0.0314 -0.2363  0.3275
   31SAPC  H13A 4094   1.885   5.526   6.200 -0.6360 -2.0065  2.3356
   31SAPC  H13B 4095   1.920   5.357   6.171  2.1900 -1.1845 -0.2317
   31SAPC  H13C 4096   2.046   5.458   6.219 -0.4795 -0.5640  0.9876
   31SAPC   C14 4097   1.878   5.520   5.935 -0.6464 -0.1386  0.1387
   31SAPC  H14A 4098   1.834   5.612   5.973  0.6714 -0.2670  2.1480
   31SAPC  H14B 4099   1.891   5.531   5.829 -0.4181 -0.7405  0.1044
   31SAPC  H14C 4100   1.795   5.454   5.954 -1.0081  0.2603 -0.0428
   31SAPC   C15 4101   2.032   5.337   5.962  0.5326  0.6862  0.4386
   31SAPC  H15A 4102   1.948   5.269   5.960  1.0788 -0.0142 -1.5972
   31SAPC  H15B 4103   2.084   5.356   5.869  0.6728 -0.4105  0.2873
   31SAPC  H15C 4104   2.108   5.291   6.023  0.4798 -0.9358 -0.6570
   31SAPC   C11 4105   2.089   5.721   6.017 -0.5111  0.3173 -0.1880
   31SAPC  H11A 4106   1.999   5.753   5.960  0.1138 -1.0648 -2.0531
   31SAPC  H11B 4107   2.166   5.785   5.967 -0.5834  1.4416  1.0741
   31SAPC     P 4108   2.199   5.754   6.254  0.2368 -0.2932  0.3500
   31SAPC   O13 4109   2.225   5.613   6.282 -0.2480 -0.2509 -0.1148
   31SAPC   O14 4110   2.305   5.854   6.217  0.3914 -0.0921  0.0829
   31SAPC   O12 4111   2.077   5.763   6.154  0.4639  0.2058  0.0200
   31SAPC   O11 4112   2.115   5.820   6.366  0.2086 -0.1317  0.3889
   31SAPC    C1 4113   2.039   5.747   6.464 -0.2232 -0.4233  0.3106
   31SAPC    HA 4114   1.942   5.800   6.470 -0.3845 -0.5790 -0.8035
   31SAPC    HB 4115   2.016   5.641   6.440 -0.5327 -1.0704  3.1173
   31SAPC    C2 4116   2.095   5.750   6.610  0.0848  0.3048 -0.3567
   31SAPC    HS 4117   2.005   5.752   6.675  0.6614  1.0682  0.4413
   31SAPC   O21 4118   2.187   5.863   6.632  0.1032 -0.2902 -0.3206
   31SAPC   C21 4119   2.127   5.975   6.605  0.4725  0.1594 -0.9003
   31SAPC   O22 4120   2.004   5.996   6.602  0.0383  0.0707  0.0232
   31SAPC   C22 4121   2.231   6.085   6.592  0.2268 -0.0164  0.3381
   31SAPC   H2R 4122   2.323   6.027   6.569 -0.4241 -1.0661  0.3375
   31SAPC   H2S 4123   2.207   6.148   6.504 -2.2915 -0.9857  0.2664
   31SAPC    C3 4124   2.162   5.617   6.645  0.4193  0.1496  0.3693
   31SAPC    HX 4125   2.234   5.633   6.728  1.4357 -2.3219  0.0546
   31SAPC    HY 4126   2.225   5.588   6.558  0.8221  5.1286 -1.3314
   31SAPC   O31 4127   2.067   5.513   6.677 -0.1149 -0.1003  0.1585
   31SAPC   C31 4128   2.077   5.401   6.614  0.0290  0.1546  0.4498
   31SAPC   O32 4129   2.163   5.379   6.529  0.5483  0.5589  0.3519
   31SAPC   C32 4130   1.960   5.312   6.660 -0.1623  0.1373  0.4986
   31SAPC   H2X 4131   1.888   5.298   6.577  2.9651 -1.0829 -2.2186
   31SAPC   H2Y 4132   1.913   5.366   6.745 -1.3560  0.8552 -0.5817
   31SAPC   C23 4133   2.243   6.174   6.728 -0.3181  0.4334 -0.0064
   31SAPC   H3R 4134   2.147   6.226   6.746 -0.3555  0.1707  0.5586
   31SAPC   H3S 4135   2.317   6.254   6.708  1.9751 -1.6527 -0.3745
   31SAPC   C24 4136   2.296   6.113   6.860  0.4912  0.2735 -0.2264
   31SAPC   H4R 4137   2.308   6.197   6.932 -1.7692 -0.5234  1.2116
   31SAPC   H4S 4138   2.403   6.082   6.855  0.5408 -0.0897  1.9565
   31SAPC   C25 4139   2.212   6.008   6.931  0.1468  0.0042  0.4822
   31SAPC   H5R 4140   2.217   5.918   6.867 -1.9067  0.5005 -0.4520
   31SAPC   C26 4141   2.164   6.009   7.056 -0.2095 -0.1658  0.0122
   31SAPC   H6R 4142   2.087   5.934   7.079 -2.0980  1.8283  0.5369
   31SAPC   C27 4143   2.185   6.116   7.156 -0.5476 -0.4220 -0.3236
   31SAPC   H7R 4144   2.100   6.188   7.161 -0.1578  0.0250 -0.1557
   31SAPC   H7S 4145   2.274   6.177   7.132  0.4652 -1.3263  0.9601
   31SAPC   C28 4146   2.202   6.091   7.306 -0.0612  0.2194  0.2022
   31SAPC   H8R 4147   2.108   6.083   7.362  0.0164  0.1806  0.3267
   31SAPC   C29 4148   2.326   6.068   7.362 -0.2383  0.1358 -0.0342
   31SAPC   H9R 4149   2.324   6.050   7.471  0.8331 -0.5619 -0.1212
   31SAPC  C210 4150   2.457   6.070   7.287  0.3389  0.7940  0.0918
   31SAPC  H10R 4151   2.486   6.178   7.292  0.7515  0.6666  0.6167
   31SAPC  H10S 4152   2.437   6.045   7.181 -1.0505 -0.8879  0.7055
   31SAPC  C211 4153   2.565   5.975   7.329 -0.6630  0.5078 -0.7719
   31SAPC  H11R 4154   2.603   5.895   7.264  0.9161  1.8856 -1.6225
   31SAPC  C212 4155   2.613   5.965   7.456  0.3378 -0.1513 -0.5847
   31SAPC  H12R 4156   2.694   5.893   7.474  0.2951 -0.6188 -2.1316
   31SAPC  C213 4157   2.581   6.050   7.585 -0.0602 -0.6096 -0.0574
   31SAPC  H13R 4158   2.495   5.999   7.635 -0.2318 -1.4660 -1.1666
   31SAPC  H13S 4159   2.539   6.146   7.550  0.1766 -0.3122  0.4746
   31SAPC  C214 4160   2.695   6.071   7.678  0.6290  0.1565  0.1061
   31SAPC  H14R 4161   2.795   6.060   7.634  0.1078 -0.0501 -1.0656
   31SAPC  C215 4162   2.689   6.095   7.806 -0.2920 -1.0734  0.2471
   31SAPC  H15R 4163   2.783   6.115   7.860 -0.5604 -1.3174  0.8070
   31SAPC  C216 4164   2.560   6.105   7.884 -1.2208 -0.1100 -0.4467
   31SAPC  H16R 4165   2.495   6.026   7.841  0.3907 -0.9570 -1.4289
   31SAPC  H16S 4166   2.518   6.208   7.881 -3.4349 -0.8884  0.9456
   31SAPC  C217 4167   2.594   6.056   8.023 -0.3943 -0.1042 -0.3702
   31SAPC  H17R 4168   2.660   6.127   8.076  0.1959 -1.3879  0.6708
   31SAPC  H17S 4169   2.645   5.957   8.023 -0.4743 -0.1547  0.5494
   31SAPC  C218 4170   2.462   6.037   8.105  0.2860 -0.2959 -0.5145
   31SAPC  H18R 4171   2.415   5.945   8.065  1.3589  0.1671 -2.9987
   31SAPC  H18S 4172   2.397   6.127   8.096 -1.1176 -1.2829 -0.5556
   31SAPC  C219 4173   2.478   6.009   8.256  0.2301 -0.4574  0.0251
   31SAPC  H19R 4174   2.533   5.913   8.260  0.6905 -0.3394 -2.1373
   31SAPC  H19S 4175   2.380   5.988   8.304  1.5414  0.5973  3.3920
   31SAPC  C220 4176   2.554   6.126   8.327  0.6930 -0.0876  0.3625
   31SAPC  H20R 4177   2.657   6.131   8.285  1.1921 -1.0191  1.4227
   31SAPC  H20S 4178   2.548   6.118   8.437 -0.3963 -0.4914  0.2788
   31SAPC  H20T 4179   2.516   6.225   8.294  2.3664  0.4109 -0.1864
   31SAPC   C33 4180   1.999   5.172   6.703  0.7198 -0.1382 -0.4447
   31SAPC   H3X 4181   2.068   5.123   6.631 -0.0566 -1.6675 -0.1938
   31SAPC   H3Y 4182   1.904   5.118   6.723 -0.3984  1.6433 -0.8086
   31SAPC   C34 4183   2.079   5.182   6.833  0.6728  0.4310  0.2679
   31SAPC   H4X 4184   2.174   5.237   6.816  1.0556 -0.6242 -1.2083
   31SAPC   H4Y 4185   2.105   5.077   6.857 -3.9399 -1.0879 -0.3178
   31SAPC   C35 4186   1.991   5.232   6.942 -0.1722 -0.0619 -0.1450
   31SAPC   H5X 4187   1.892   5.181   6.937 -0.6901  1.0019 -2.7449
   31SAPC   H5Y 4188   1.971   5.341   6.933  1.1563  0.2102 -0.0424
   31SAPC   C36 4189   2.047   5.196   7.083  0.1620  0.9793  0.6267
   31SAPC   H6X 4190   2.151   5.233   7.096  0.2485  0.2190  2.3852
   31SAPC   H6Y 4191   2.044   5.086   7.099 -1.7724  0.8971 -0.0337
   31SAPC   C37 4192   1.960   5.262   7.192  0.5825  1.3075 -0.1437
   31SAPC   H7X 4193   1.864   5.207   7.192  2.4675 -2.2901  0.8769
   31SAPC   H7Y 4194   1.930   5.365   7.164 -1.4670  0.4335 -1.4312
   31SAPC   C38 4195   1.999   5.262   7.342 -0.8019 -0.0535  0.0160
   31SAPC   H8X 4196   2.099   5.301   7.370 -0.6980 -1.2722  1.4909
   31SAPC   H8Y 4197   2.010   5.153   7.360 -1.0457  0.3058  2.8083
   31SAPC   C39 4198   1.900   5.319   7.430  1.0534 -0.7352 -0.2308
   31SAPC   H9X 4199   1.802   5.275   7.400  1.9716 -3.0816  0.0886
   31SAPC   H9Y 4200   1.900   5.430   7.419  1.2452 -0.8685 -1.8196
   31SAPC  C310 4201   1.913   5.288   7.585  0.0162 -0.0763  0.2225
   31SAPC  H10X 4202   2.016   5.319   7.614  0.0613 -2.6442  3.3334
   31SAPC  H10Y 4203   1.914   5.179   7.602  1.5632 -0.0996  0.1425
   31SAPC  C311 4204   1.825   5.368   7.680 -0.1261  0.7855 -0.1924
   31SAPC  H11X 4205   1.725   5.330   7.650  0.4546 -0.1946 -0.9520
   31SAPC  H11Y 4206   1.825   5.475   7.650  0.6748  1.0217  0.6337
   31SAPC  C312 4207   1.864   5.369   7.828  0.1392 -0.1588 -0.1410
   31SAPC  H12X 4208   1.963   5.419   7.816 -0.6357  0.7424 -4.2476
   31SAPC  H12Y 4209   1.878   5.260   7.849  0.7763 -0.0743 -0.0890
   31SAPC  C313 4210   1.763   5.436   7.922  0.4316 -0.1852  0.1410
   31SAPC  H13X 4211   1.666   5.383   7.934  1.1840 -2.7977 -3.5792
   31SAPC  H13Y 4212   1.740   5.535   7.877 -0.3016  0.3840  1.6958
   31SAPC  C314 4213   1.828   5.474   8.056  0.6444  0.2163 -0.0610
   31SAPC  H14X 4214   1.898   5.393   8.086 -1.8597 -1.8501  0.6211
   31SAPC  H14Y 4215   1.751   5.507   8.129  1.0646  1.3782 -0.1260
   31SAPC  C315 4216   1.922   5.594   8.035  0.0348 -0.1756  0.1831
   31SAPC  H15X 4217   1.870   5.685   7.998 -0.6760 -0.1703  1.1564
   31SAPC  H15Y 4218   1.987   5.569   7.948  0.2403 -0.0656  0.3059
   31SAPC  C316 4219   2.021   5.631   8.159 -0.1586  0.7970 -0.4532
   31SAPC  H16X 4220   2.087   5.549   8.194 -0.5078  0.7119  0.0162
   31SAPC  H16Y 4221   1.964   5.668   8.246  0.6847 -0.2918  0.5916
   31SAPC  C317 4222   2.110   5.757   8.121 -0.1243 -0.6520 -0.0054
   31SAPC  H17X 4223   2.162   5.729   8.027 -1.7906  1.3265 -1.6090
   31SAPC  H17Y 4224   2.190   5.767   8.198  0.7631 -4.4185 -0.2139
   31SAPC  C318 4225   2.044   5.888   8.111  0.4579 -0.3789  0.6078
   31SAPC  H18X 4226   1.958   5.882   8.041  0.2571 -1.8203  0.9386
   31SAPC  H18Y 4227   2.100   5.975   8.073  0.2643 -0.5073  0.0169
   31SAPC  H18Z 4228   1.998   5.913   8.209 -1.1651 -1.8182  0.2781
   32SAPC     N 4229   4.821   5.765   6.279 -0.1537  0.9827 -0.1738
   32SAPC   C12 4230   4.921   5.873   6.325 -0.2110 -0.0773  0.8869
   32SAPC  H12A 4231   5.010   5.825   6.362 -1.2260 -2.1096  0.8482
   32SAPC  H12B 4232   4.876   5.934   6.401  3.1881  4.1346 -0.1358
   32SAPC   C13 4233   4.769   5.681   6.394 -0.0442 -0.2352  0.4187
   32SAPC  H13A 4234   4.722   5.586   6.374  0.3807 -0.2557 -0.5557
   32SAPC  H13B 4235   4.858   5.650   6.446  0.3604 -0.6637 -0.4898
   32SAPC  H13C 4236   4.711   5.744   6.460  2.2643  0.5001  1.8664
   32SAPC   C14 4237   4.708   5.834   6.209 -0.1924  0.3998 -0.5597
   32SAPC  H14A 4238   4.651   5.761   6.152  1.1495  0.6102 -2.2240
   32SAPC  H14B 4239   4.643   5.892   6.273 -2.9673 -0.8159 -2.0631
   32SAPC  H14C 4240   4.744   5.898   6.131  1.3255 -0.8168 -0.9123
   32SAPC   C15 4241   4.891   5.667   6.188  0.3922 -0.1942  0.1535
   32SAPC  H15A 4242   4.963   5.608   6.244 -1.7796 -0.5105  2.8284
   32SAPC  H15B 4243   4.815   5.603   6.146  0.1146  1.4396 -1.9593
   32SAPC  H15C 4244   4.936   5.720   6.106  1.1028 -1.7934 -0.5437
   32SAPC   C11 4245   4.973   5.970   6.219 -0.4588 -0.0824 -0.0676
   32SAPC  H11A 4246   4.988   5.917   6.123 -0.6037 -1.1516  0.4930
   32SAPC  H11B 4247   5.072   6.012   6.249  0.7850 -0.9902 -2.6192
   32SAPC     P 4248   4.872   6.205   6.284 -0.0741  0.3605 -0.1493
   32SAPC   O13 4249   5.014   6.252   6.293 -0.3813 -0.2210 -0.2789
   32SAPC   O14 4250   4.778   6.302   6.225  0.0511 -0.3224  0.5320
   32SAPC   O12 4251   4.876   6.074   6.196 -0.1023  0.0566  0.0718
   32SAPC   O11 4252   4.821   6.149   6.421  0.8660  0.0398 -0.0910
   32SAPC    C1 4253   4.686   6.120   6.457  0.6212 -0.0703 -0.5230
   32SAPC    HA 4254   4.615   6.137   6.373 -1.9140 -0.2638  1.4673
   32SAPC    HB 4255   4.665   6.016   6.489 -3.2860  0.8179  0.3360
   32SAPC    C2 4256   4.649   6.231   6.567  0.5646  0.1633  0.4109
   32SAPC    HS 4257   4.645   6.326   6.509 -0.2219 -0.0332  0.1317
   32SAPC   O21 4258   4.744   6.225   6.674  0.0920  0.6862 -0.8457
   32SAPC   C21 4259   4.803   6.335   6.721 -0.3023 -0.1281  0.2998
   32SAPC   O22 4260   4.797   6.445   6.665 -0.3434 -0.2449  0.2442
   32SAPC   C22 4261   4.863   6.312   6.863 -0.1023 -0.1667 -0.1210
   32SAPC   H2R 4262   4.878   6.201   6.867 -0.1340 -0.1609  0.1645
   32SAPC   H2S 4263   4.963   6.360   6.864  0.1215 -0.4413 -2.8513
   32SAPC    C3 4264   4.500   6.212   6.615 -0.2674  0.0804 -0.4031
   32SAPC    HX 4265   4.502   6.121   6.680  0.2231  1.0307  0.9589
   32SAPC    HY 4266   4.431   6.192   6.531  0.7515  0.8042 -1.4385
   32SAPC   O31 4267   4.460   6.321   6.701  0.2119 -0.0911  0.3959
   32SAPC   C31 4268   4.396   6.417   6.638 -0.3921 -0.0924  0.2892
   32SAPC   O32 4269   4.368   6.425   6.518 -0.8207  0.3698  0.1815
   32SAPC   C32 4270   4.348   6.518   6.741  0.4845 -0.7688 -0.4552
   32SAPC   H2X 4271   4.266   6.464   6.795  0.0099 -0.4763 -0.8755
   32SAPC   H2Y 4272   4.309   6.611   6.696  1.8828 -0.5122 -1.1724
   32SAPC   C23 4273   4.776   6.354   6.976 -0.6593 -0.4893  0.1967
   32SAPC   H3R 4274   4.696   6.278   6.992 -2.6436  1.5748  0.7707
   32SAPC   H3S 4275   4.730   6.449   6.942 -2.6786 -1.1779  0.8198
   32SAPC   C24 4276   4.853   6.378   7.124  0.1558 -0.1790  0.3497
   32SAPC   H4R 4277   4.784   6.403   7.207 -1.3284 -2.9254  0.0542
   32SAPC   H4S 4278   4.916   6.469   7.109  1.5746 -1.1041  0.4850
   32SAPC   C25 4279   4.933   6.257   7.166  0.2595  0.2439  0.4580
   32SAPC   H5R 4280   5.037   6.252   7.129  0.0738 -2.4228  0.1109
   32SAPC   C26 4281   4.906   6.164   7.254  0.6108  0.5097  1.0381
   32SAPC   H6R 4282   4.967   6.073   7.257 -2.3728 -1.8416 -2.0186
   32SAPC   C27 4283   4.774   6.148   7.319 -0.7420 -0.3528 -0.2820
   32SAPC   H7R 4284   4.728   6.059   7.271 -0.9570 -0.2619 -0.2437
   32SAPC   H7S 4285   4.699   6.228   7.301  1.1460  1.9542  1.4600
   32SAPC   C28 4286   4.793   6.138   7.464  0.1848 -0.2290  0.0831
   32SAPC   H8R 4287   4.859   6.064   7.512  0.1102 -0.2512  0.1519
   32SAPC   C29 4288   4.744   6.219   7.561 -0.6907 -0.7845  0.2986
   32SAPC   H9R 4289   4.765   6.206   7.668 -0.0346  2.2292  0.6166
   32SAPC  C210 4290   4.649   6.336   7.537 -0.3335  0.7026  0.1169
   32SAPC  H10R 4291   4.551   6.284   7.534  1.4076 -2.7899 -0.5541
   32SAPC  H10S 4292   4.671   6.383   7.438  2.4807 -1.5479 -0.4347
   32SAPC  C211 4293   4.656   6.445   7.642 -0.0387 -0.0552 -1.5078
   32SAPC  H11R 4294   4.694   6.541   7.605  1.4279  0.2434  0.6202
   32SAPC  C212 4295   4.615   6.435   7.775 -0.4838 -0.3364  0.2109
   32SAPC  H12R 4296   4.630   6.528   7.832  0.9100 -0.8661  0.7833
   32SAPC  C213 4297   4.557   6.326   7.857 -0.1261 -0.2296 -0.3618
   32SAPC  H13R 4298   4.597   6.336   7.960 -0.7237 -3.2162  0.2528
   32SAPC  H13S 4299   4.592   6.226   7.823 -1.7637 -0.6994 -0.7587
   32SAPC  C214 4300   4.406   6.334   7.856  0.0745 -0.3882 -0.6371
   32SAPC  H14R 4301   4.354   6.303   7.764 -0.5016  1.2884 -0.9314
   32SAPC  C215 4302   4.334   6.368   7.966 -0.2932  0.1207 -0.2595
   32SAPC  H15R 4303   4.226   6.387   7.958 -0.3236 -0.3674 -1.1583
   32SAPC  C216 4304   4.383   6.395   8.108 -0.0720  0.0702  0.3576
   32SAPC  H16R 4305   4.451   6.312   8.136 -0.8302 -0.6067  0.2541
   32SAPC  H16S 4306   4.296   6.393   8.177 -1.3702  2.0927 -1.0859
   32SAPC  C217 4307   4.458   6.529   8.132  0.5481  0.2121 -0.4330
   32SAPC  H17R 4308   4.401   6.610   8.082  0.0556 -0.2114 -0.5695
   32SAPC  H17S 4309   4.561   6.523   8.090  1.2188 -0.4672  1.2385
   32SAPC  C218 4310   4.478   6.561   8.285  0.2746  0.4111  0.5855
   32SAPC  H18R 4311   4.517   6.475   8.343  1.6357  0.3899 -0.3304
   32SAPC  H18S 4312   4.374   6.583   8.317 -0.2932  1.4079 -1.7097
   32SAPC  C219 4313   4.568   6.678   8.302 -0.7203  0.1298  0.6945
   32SAPC  H19R 4314   4.555   6.734   8.207 -0.8606 -3.0685 -1.3279
   32SAPC  H19S 4315   4.668   6.629   8.304 -1.5238 -1.6028  0.4402
   32SAPC  C220 4316   4.548   6.764   8.423  0.1657 -0.6795 -0.2199
   32SAPC  H20R 4317   4.446   6.808   8.423 -0.1130 -1.2829  0.9775
   32SAPC  H20S 4318   4.628   6.841   8.422  0.4346 -0.9615 -1.0722
   32SAPC  H20T 4319   4.559   6.714   8.522  1.5173  0.7604  0.4132
   32SAPC   C33 4320   4.454   6.569   6.847  0.4761  0.1208  0.1778
   32SAPC   H3X 4321   4.551   6.598   6.802  0.9295  0.0865  1.1121
   32SAPC   H3Y 4322   4.467   6.480   6.913 -0.5671 -0.2273 -0.0643
   32SAPC   C34 4323   4.421   6.696   6.914 -0.3065 -1.0103  0.0076
   32SAPC   H4X 4324   4.328   6.683   6.974 -0.0622 -0.8565  0.4242
   32SAPC   H4Y 4325   4.402   6.769   6.833  1.2547  0.0979  0.6068
   32SAPC   C35 4326   4.532   6.748   7.004 -0.4355 -0.2139 -0.7464
   32SAPC   H5X 4327   4.507   6.852   7.033  0.4821 -0.3266  0.5382
   32SAPC   H5Y 4328   4.632   6.755   6.955 -0.5039  1.2971 -0.7164
   32SAPC   C36 4329   4.550   6.654   7.124 -0.1659 -0.0919  0.4028
   32SAPC   H6X 4330   4.578   6.550   7.099 -1.1580  0.0806 -1.6203
   32SAPC   H6Y 4331   4.450   6.637   7.170  0.1031 -0.7611  0.7490
   32SAPC   C37 4332   4.666   6.709   7.209  0.8151  0.0899  0.2557
   32SAPC   H7X 4333   4.681   6.815   7.179 -1.4710 -0.2423 -2.4268
   32SAPC   H7Y 4334   4.761   6.654   7.190  0.7243  0.0906 -0.2110
   32SAPC   C38 4335   4.630   6.706   7.356 -0.4656 -0.0285 -0.0605
   32SAPC   H8X 4336   4.624   6.600   7.391 -0.4380 -1.0053 -2.7558
   32SAPC   H8Y 4337   4.529   6.751   7.356 -1.0529 -1.2248  1.7155
   32SAPC   C39 4338   4.720   6.786   7.455 -0.0008  0.3039  0.8218
   32SAPC   H9X 4339   4.668   6.775   7.553  1.7668 -1.3176  1.6375
   32SAPC   H9Y 4340   4.715   6.895   7.436  0.4173  0.3140  0.7703
   32SAPC  C310 4341   4.866   6.742   7.473  0.0288 -0.3850 -0.6119
   32SAPC  H10X 4342   4.898   6.752   7.368 -0.5915 -1.4246 -0.9210
   32SAPC  H10Y 4343   4.872   6.633   7.498 -0.3148  0.0580  1.6145
   32SAPC  C311 4344   4.941   6.823   7.585  0.3404 -0.2064  0.7016
   32SAPC  H11X 4345   4.889   6.921   7.591 -2.1659 -1.4079 -0.0061
   32SAPC  H11Y 4346   5.047   6.841   7.558  0.9101 -1.0274  2.2739
   32SAPC  C312 4347   4.935   6.751   7.715 -0.1178  0.0650 -0.4729
   32SAPC  H12X 4348   5.013   6.672   7.718  0.3756  0.5234 -0.9690
   32SAPC  H12Y 4349   4.829   6.722   7.734  0.5968 -1.2821  1.8477
   32SAPC  C313 4350   4.968   6.843   7.835  0.3622  0.3866  0.0159
   32SAPC  H13X 4351   4.895   6.927   7.829 -1.2455 -1.0024 -1.2033
   32SAPC  H13Y 4352   5.065   6.896   7.832  0.6513 -0.0711  0.9364
   32SAPC  C314 4353   4.965   6.769   7.974  0.2880  0.7695  0.1333
   32SAPC  H14X 4354   5.050   6.697   7.979 -0.0818  0.2253 -0.9868
   32SAPC  H14Y 4355   4.870   6.712   7.978  0.4326  0.5114 -0.0556
   32SAPC  C315 4356   4.973   6.841   8.098 -0.3479 -0.5168  0.2289
   32SAPC  H15X 4357   4.892   6.917   8.105  0.0350 -0.1332  0.5935
   32SAPC  H15Y 4358   5.070   6.895   8.107 -1.6520  2.2514 -0.9853
   32SAPC  C316 4359   4.964   6.746   8.218  0.3508 -0.2819  0.6286
   32SAPC  H16X 4360   5.047   6.673   8.218 -1.0181 -1.8796  0.3807
   32SAPC  H16Y 4361   4.873   6.685   8.206  0.4813 -0.6257  1.2925
   32SAPC  C317 4362   4.965   6.822   8.352  0.7254 -0.5087 -0.1777
   32SAPC  H17X 4363   4.858   6.851   8.362  0.0222 -3.1831  0.7527
   32SAPC  H17Y 4364   5.027   6.915   8.351 -0.9627  0.6614 -0.7128
   32SAPC  C318 4365   5.002   6.750   8.483 -1.3040 -0.4353 -0.0890
   32SAPC  H18X 4366   4.928   6.668   8.494 -0.3850 -1.6640 -2.2677
   32SAPC  H18Y 4367   5.016   6.822   8.567 -3.1448  1.3884 -1.2726
   32SAPC  H18Z 4368   5.098   6.698   8.463  0.1446  2.1290 -0.2377
   33POPC     N 4369   6.168   6.689  10.816  0.3428 -0.7786  0.5441
   33POPC   C12 4370   6.180   6.565  10.730 -0.3046  0.4906  0.3292
   33POPC  H12A 4371   6.092   6.505  10.744  0.5963 -1.1796 -0.8049
   33POPC  H12B 4372   6.253   6.494  10.765  1.7899  1.6270 -1.4387
   33POPC   C13 4373   6.039   6.763  10.790  0.6485  0.5239  0.7812
   33POPC  H13A 4374   6.033   6.793  10.686  1.5565  0.8153  0.8050
   33POPC  H13B 4375   5.957   6.692  10.796  2.1066 -1.6036 -1.9124
   33POPC  H13C 4376   6.035   6.849  10.854 -1.1197  0.2551  1.0741
   33POPC   C14 4377   6.159   6.657  10.956 -0.1835  0.3115  0.1356
   33POPC  H14A 4378   6.254   6.616  10.984 -0.9230 -2.5609 -1.2319
   33POPC  H14B 4379   6.142   6.746  11.015 -1.0569  0.3245 -0.1117
   33POPC  H14C 4380   6.071   6.598  10.976 -1.0857  1.5793  0.0524
   33POPC   C15 4381   6.282   6.786  10.800  0.3509 -0.5675  0.3902
   33POPC  H15A 4382   6.255   6.883  10.839 -2.8177 -0.7673 -1.0556
   33POPC  H15B 4383   6.288   6.807  10.695  1.2340  0.9638  0.7106
   33POPC  H15C 4384   6.371   6.745  10.847  0.0596  1.2241  2.7319
   33POPC   C11 4385   6.208   6.583  10.577  0.3118  0.0567 -0.4726
   33POPC  H11A 4386   6.157   6.676  10.545 -1.0120  0.3315  2.1756
   33POPC  H11B 4387   6.178   6.493  10.519 -0.7187 -0.3152  0.6034
   33POPC     P 4388   6.458   6.499  10.572  0.2081  0.2551 -0.0551
   33POPC   O13 4389   6.432   6.427  10.698  0.3364  0.6948 -0.0448
   33POPC   O14 4390   6.591   6.563  10.569 -0.9455  0.2678  0.9387
   33POPC   O12 4391   6.345   6.612  10.551  0.0053  0.0397 -0.5733
   33POPC   O11 4392   6.432   6.399  10.451 -0.0937  0.0039  0.1446
   33POPC    C1 4393   6.419   6.449  10.316 -0.2887 -0.0436 -1.0529
   33POPC    HA 4394   6.361   6.544  10.325 -0.5252 -0.3878  2.2196
   33POPC    HB 4395   6.520   6.483  10.286  0.1159  0.6239  0.9282
   33POPC    C2 4396   6.364   6.338  10.231 -0.2283 -0.6739 -0.7827
   33POPC    HS 4397   6.431   6.249  10.240 -0.6655 -0.9333 -0.0312
   33POPC   O21 4398   6.359   6.387  10.101 -0.4778  0.3649 -0.2972
   33POPC   C21 4399   6.476   6.374  10.035  0.8603 -0.3350 -0.7092
   33POPC   O22 4400   6.573   6.315  10.077  0.1429  0.1043 -0.4053
   33POPC   C22 4401   6.470   6.458   9.904 -0.9404  0.6189  0.7130
   33POPC   H2R 4402   6.439   6.561   9.930 -1.2294  0.6359  0.3012
   33POPC   H2S 4403   6.379   6.418   9.854 -0.6891  0.7127  0.1810
   33POPC    C3 4404   6.216   6.311  10.275  0.1627 -0.0855  0.1255
   33POPC    HX 4405   6.160   6.406  10.260  0.6959  0.2704  0.3745
   33POPC    HY 4406   6.211   6.298  10.385  1.3647  1.3620  0.3890
   33POPC   O31 4407   6.158   6.202  10.201  0.2921  0.1643 -0.2606
   33POPC   C31 4408   6.025   6.223  10.180  0.0531 -0.1125  0.1256
   33POPC   O32 4409   5.960   6.308  10.238 -0.0121  0.6433 -0.2135
   33POPC   C32 4410   5.961   6.139  10.072  0.1099 -0.2471  0.2853
   33POPC   H2X 4411   5.852   6.159  10.083  0.0625 -1.0396  1.5029
   33POPC   H2Y 4412   5.980   6.034  10.102  1.8571 -0.5932 -1.7757
   33POPC   C23 4413   6.597   6.444   9.823 -0.6235  0.0784 -1.0059
   33POPC   H3R 4414   6.632   6.339   9.810  0.8105  0.1968  1.3186
   33POPC   H3S 4415   6.678   6.498   9.877 -1.7200  0.6259  0.1271
   33POPC   C24 4416   6.577   6.508   9.681  0.3025  0.2532 -0.0071
   33POPC   H4R 4417   6.681   6.497   9.644  0.9611  2.4373  1.0120
   33POPC   H4S 4418   6.557   6.618   9.686  0.3850  0.2650  0.0778
   33POPC   C25 4419   6.456   6.448   9.613  0.3717  0.7515  0.5551
   33POPC   H5R 4420   6.372   6.521   9.617  0.1369  0.6675 -1.7710
   33POPC   H5S 4421   6.431   6.352   9.662 -1.1951  1.0690  0.4132
   33POPC   C26 4422   6.460   6.423   9.457 -0.0561 -0.3633 -0.7261
   33POPC   H6R 4423   6.379   6.355   9.422 -0.7014  0.4809 -0.9131
   33POPC   H6S 4424   6.554   6.370   9.431  1.7076  2.3097 -0.2100
   33POPC   C27 4425   6.468   6.549   9.377 -0.1283 -0.8478 -0.6597
   33POPC   H7R 4426   6.550   6.606   9.425  1.8589 -2.6653 -1.6656
   33POPC   H7S 4427   6.376   6.607   9.397 -0.1284 -1.2183  0.4598
   33POPC   C28 4428   6.489   6.517   9.228  0.1665 -0.3247 -0.5072
   33POPC   H8R 4429   6.570   6.441   9.228 -0.3906 -0.9415 -1.6611
   33POPC   H8S 4430   6.520   6.613   9.181  1.4195  1.0121  2.7268
   33POPC   C29 4431   6.372   6.451   9.162 -0.5159  0.9503 -0.5175
   33POPC   H91 4432   6.274   6.466   9.209 -0.5872 -0.9648  0.0469
   33POPC  C210 4433   6.372   6.361   9.058  0.4050 -0.1908  0.3308
   33POPC  H101 4434   6.278   6.330   9.010  0.5423  0.8614 -0.6544
   33POPC  C211 4435   6.500   6.307   8.988  0.9177 -0.3181  0.3814
   33POPC  H11R 4436   6.483   6.202   8.955 -2.5582 -0.7750  2.9779
   33POPC  H11S 4437   6.592   6.316   9.049  2.7201 -2.1852 -1.8617
   33POPC  C212 4438   6.512   6.380   8.854 -0.3475  0.5377  0.3567
   33POPC  H12R 4439   6.417   6.398   8.800 -0.5253  0.8870  0.7850
   33POPC  H12S 4440   6.563   6.307   8.787  1.2209 -1.1416  3.1797
   33POPC  C213 4441   6.596   6.508   8.865 -0.0982  0.4598 -0.8211
   33POPC  H13R 4442   6.695   6.473   8.901 -0.9849 -0.4403  0.8905
   33POPC  H13S 4443   6.562   6.565   8.954  1.6164 -2.0720  1.6320
   33POPC  C214 4444   6.600   6.593   8.733  0.1221  0.1933  0.0514
   33POPC  H14R 4445   6.652   6.688   8.756 -0.0250  0.4204 -0.5242
   33POPC  H14S 4446   6.492   6.621   8.734  0.1740  0.6754  3.5545
   33POPC  C215 4447   6.644   6.523   8.613  0.2890 -0.1841  0.2921
   33POPC  H15R 4448   6.570   6.443   8.589 -1.4783  2.0902 -2.7170
   33POPC  H15S 4449   6.740   6.470   8.628  1.1268  1.4406  0.8953
   33POPC  C216 4450   6.664   6.626   8.496 -0.4263  0.4122 -0.2961
   33POPC  H16R 4451   6.741   6.590   8.423  0.5604  2.6914 -0.4643
   33POPC  H16S 4452   6.705   6.711   8.554  2.4470 -2.4625  2.2731
   33POPC  C217 4453   6.536   6.653   8.416  0.1632  0.2062 -0.0789
   33POPC  H17R 4454   6.464   6.710   8.480  0.0697 -0.9717  0.8976
   33POPC  H17S 4455   6.485   6.557   8.396 -2.3616  1.4423  0.1216
   33POPC  C218 4456   6.559   6.731   8.287 -0.1193  0.0719 -0.6384
   33POPC  H18R 4457   6.618   6.675   8.212  1.9328 -0.2572  1.1324
   33POPC  H18S 4458   6.630   6.815   8.307  1.4659 -0.1867 -4.3407
   33POPC  H18T 4459   6.460   6.765   8.249  1.0679  0.9027 -3.1802
   33POPC   C33 4460   6.007   6.167   9.932  0.2810  0.5404  0.1872
   33POPC   H3X 4461   6.016   6.276   9.913  0.0611  0.1239 -2.7479
   33POPC   H3Y 4462   5.926   6.133   9.864  0.9708 -0.0254 -0.3604
   33POPC   C34 4463   6.128   6.090   9.881  0.0904  0.1877 -0.0519
   33POPC   H4X 4464   6.115   5.980   9.888 -1.6666  0.4171  0.9324
   33POPC   H4Y 4465   6.209   6.108   9.955 -0.8627 -0.9713  1.3397
   33POPC   C35 4466   6.168   6.140   9.745  0.2849 -0.1891 -0.0558
   33POPC   H5X 4467   6.278   6.153   9.742  0.0059  3.6385  0.9132
   33POPC   H5Y 4468   6.149   6.248   9.726  2.4559  0.1238 -0.7227
   33POPC   C36 4469   6.097   6.062   9.630 -0.5768  0.3270  0.0282
   33POPC   H6X 4470   5.994   6.102   9.617  0.0153  3.1023  2.6998
   33POPC   H6Y 4471   6.099   5.953   9.647  0.5896 -0.1168 -2.4207
   33POPC   C37 4472   6.168   6.091   9.487  0.3129  0.2907  0.0067
   33POPC   H7X 4473   6.275   6.062   9.492  1.0039  2.3113 -1.3804
   33POPC   H7Y 4474   6.153   6.199   9.466  0.5902  0.5708  1.2064
   33POPC   C38 4475   6.104   6.025   9.365 -0.6637  0.4456  0.5981
   33POPC   H8X 4476   5.995   6.049   9.370 -1.0375 -0.9055 -0.3846
   33POPC   H8Y 4477   6.119   5.915   9.377 -1.2571  0.0970 -1.3938
   33POPC   C39 4478   6.157   6.067   9.226 -0.3673  0.0141  0.0395
   33POPC   H9X 4479   6.259   6.026   9.218  0.1078  1.1717 -0.0729
   33POPC   H9Y 4480   6.173   6.177   9.217 -1.6362  0.2259  0.0767
   33POPC  C310 4481   6.083   6.001   9.108  0.0945 -0.2995 -0.3819
   33POPC  H10X 4482   5.977   6.013   9.140 -0.3736  0.8775 -2.2375
   33POPC  H10Y 4483   6.115   5.895   9.107  0.5420 -0.1711  0.1934
   33POPC  C311 4484   6.098   6.083   8.978  0.2614  0.2058 -0.6523
   33POPC  H11X 4485   6.084   6.192   8.998  0.2292 -0.0651  1.0008
   33POPC  H11Y 4486   6.006   6.052   8.925 -0.1524 -1.4053  0.8876
   33POPC  C312 4487   6.206   6.051   8.880 -0.3492  0.1105  0.1057
   33POPC  H12X 4488   6.196   5.952   8.832 -0.6172  0.9176 -1.5687
   33POPC  H12Y 4489   6.306   6.054   8.930 -0.2072  0.8597 -0.2011
   33POPC  C313 4490   6.201   6.158   8.761  0.2504  0.1881 -0.0676
   33POPC  H13X 4491   6.232   6.249   8.816 -1.4999 -0.1508  1.5703
   33POPC  H13Y 4492   6.096   6.179   8.728 -0.4867 -1.2745  1.2382
   33POPC  C314 4493   6.310   6.134   8.654  0.2237 -0.7379 -0.2853
   33POPC  H14X 4494   6.311   6.025   8.632 -3.4697 -1.0867  0.6385
   33POPC  H14Y 4495   6.407   6.158   8.704  0.4450  0.6157 -1.2962
   33POPC  C315 4496   6.289   6.221   8.524  1.0687 -0.4202 -0.4843
   33POPC  H15X 4497   6.196   6.195   8.469  1.7410 -0.5451 -1.6014
   33POPC  H15Y 4498   6.384   6.208   8.468  1.0665  1.7372 -1.1056
   33POPC  C316 4499   6.265   6.377   8.551  0.0242  0.2936 -0.9582
   33POPC  H16X 4500   6.216   6.432   8.468 -0.1242 -1.1038 -1.8197
   33POPC  H16Y 4501   6.371   6.406   8.569 -0.4419  1.2481  0.4571
   33POPC  H16Z 4502   6.204   6.400   8.642 -0.9613  0.0651 -1.5515
   34POPC     N 4503   5.937   0.494  10.869 -0.2370  0.3907 -0.1310
   34POPC   C12 4504   5.873   0.545  10.736  0.2407  0.3399  0.1580
   34POPC  H12A 4505   5.875   0.653  10.748  0.5115  0.5783 -1.7257
   34POPC  H12B 4506   5.773   0.508  10.719  1.3137 -2.0437 -1.4479
   34POPC   C13 4507   5.955   0.343  10.868 -0.3715 -0.2264  0.2688
   34POPC  H13A 4508   5.862   0.288  10.881  0.2692 -1.1570  1.0949
   34POPC  H13B 4509   5.978   0.313  10.767  0.3773 -2.6245  1.0859
   34POPC  H13C 4510   6.025   0.303  10.940 -1.2018 -0.9041  0.7183
   34POPC   C14 4511   6.070   0.569  10.886 -0.0307  0.9163 -1.2262
   34POPC  H14A 4512   6.118   0.527  10.974  0.4966 -1.7067 -2.6673
   34POPC  H14B 4513   6.136   0.553  10.803  0.7400  0.5495 -0.5503
   34POPC  H14C 4514   6.042   0.673  10.897 -1.5125  0.3802  0.7556
   34POPC   C15 4515   5.864   0.533  10.996  0.3350  0.0595 -0.2257
   34POPC  H15A 4516   5.922   0.495  11.079 -0.2899  2.7823  1.5982
   34POPC  H15B 4517   5.770   0.482  11.006 -0.3582  1.6177  2.1385
   34POPC  H15C 4518   5.855   0.640  11.008 -1.9118  0.1390 -2.1165
   34POPC   C11 4519   5.958   0.524  10.606  0.7869  0.4235 -0.1273
   34POPC  H11A 4520   5.900   0.543  10.514  0.6987 -0.2551 -0.2218
   34POPC  H11B 4521   5.985   0.416  10.594 -2.1405 -0.2824 -1.0477
   34POPC     P 4522   6.056   0.760  10.582  0.2737  0.2264 -0.0412
   34POPC   O13 4523   6.182   0.827  10.540  0.8742  0.1355 -0.1715
   34POPC   O14 4524   5.978   0.820  10.692  0.8066  0.2169  0.5410
   34POPC   O12 4525   6.074   0.610  10.601 -0.2790  0.7226  0.4645
   34POPC   O11 4526   5.957   0.774  10.462  0.4299  0.4581  0.6711
   34POPC    C1 4527   5.943   0.892  10.377  0.7606 -0.5496  1.0733
   34POPC    HA 4528   6.016   0.973  10.397 -0.4730  0.9183 -0.0979
   34POPC    HB 4529   5.849   0.937  10.414  0.5068  0.0406 -0.2309
   34POPC    C2 4530   5.948   0.859  10.222 -0.3473  0.1935  0.0732
   34POPC    HS 4531   5.930   0.952  10.163  0.1420  0.3428  0.1494
   34POPC   O21 4532   5.855   0.758  10.188 -0.6139  0.0562 -0.1204
   34POPC   C21 4533   5.725   0.797  10.183 -0.0029  0.0360  0.2007
   34POPC   O22 4534   5.679   0.901  10.224  0.0866  0.3770  0.3336
   34POPC   C22 4535   5.651   0.682  10.117 -0.2893  0.2771 -0.3721
   34POPC   H2R 4536   5.623   0.604  10.192  0.5552 -0.2666 -0.6050
   34POPC   H2S 4537   5.719   0.622  10.053 -1.3054 -0.6699 -0.6155
   34POPC    C3 4538   6.094   0.812  10.179 -0.7498 -0.2160 -0.5312
   34POPC    HX 4539   6.110   0.710  10.219 -0.9177 -0.9799 -2.3215
   34POPC    HY 4540   6.159   0.886  10.231 -0.7148  0.5484 -1.6347
   34POPC   O31 4541   6.101   0.797  10.038 -0.1750 -0.4325  0.1141
   34POPC   C31 4542   6.212   0.754   9.977  0.3479  0.8595 -0.2312
   34POPC   O32 4543   6.315   0.738  10.036  0.3709 -0.2252  0.4388
   34POPC   C32 4544   6.196   0.748   9.823 -0.1238 -0.0384  0.3413
   34POPC   H2X 4545   6.157   0.646   9.806 -0.7574  0.1775  0.4924
   34POPC   H2Y 4546   6.301   0.758   9.787  0.0424  1.4935  1.1896
   34POPC   C23 4547   5.519   0.713  10.036 -0.4856  0.2087 -0.2511
   34POPC   H3R 4548   5.471   0.808  10.069  1.0640  1.2777 -0.9587
   34POPC   H3S 4549   5.463   0.618  10.044  2.3001 -1.4048  2.0048
   34POPC   C24 4550   5.539   0.736   9.885  0.2465 -0.0557  0.0537
   34POPC   H4R 4551   5.439   0.759   9.842 -0.3143  1.4027  1.9987
   34POPC   H4S 4552   5.567   0.632   9.859 -2.0458 -1.5334  2.7828
   34POPC   C25 4553   5.630   0.851   9.844  0.2257 -0.1152 -0.2293
   34POPC   H5R 4554   5.730   0.820   9.882 -0.1251  0.7824  1.5465
   34POPC   H5S 4555   5.604   0.954   9.878  0.0023  0.0966 -1.0172
   34POPC   C26 4556   5.632   0.863   9.686  0.6475 -0.0865 -1.0988
   34POPC   H6R 4557   5.700   0.938   9.639  0.0441 -0.2567 -2.2835
   34POPC   H6S 4558   5.528   0.899   9.672  0.1267 -0.3587  1.5345
   34POPC   C27 4559   5.648   0.737   9.601  0.6284  0.4081  0.3948
   34POPC   H7R 4560   5.573   0.660   9.627  1.2790 -1.1107 -1.9431
   34POPC   H7S 4561   5.752   0.700   9.614  0.7253  0.9954  1.3834
   34POPC   C28 4562   5.618   0.765   9.452 -0.3494  0.2153  0.1614
   34POPC   H8R 4563   5.700   0.832   9.418  1.0798 -0.7549  1.5596
   34POPC   H8S 4564   5.531   0.834   9.449 -0.9434 -0.4864  0.9858
   34POPC   C29 4565   5.640   0.638   9.375  0.1266 -0.5269  0.1927
   34POPC   H91 4566   5.742   0.596   9.372  0.3138 -0.0836  0.1408
   34POPC  C210 4567   5.543   0.568   9.316  0.1703 -0.3649 -0.4082
   34POPC  H101 4568   5.570   0.481   9.255  0.1032  0.6355 -1.9185
   34POPC  C211 4569   5.403   0.613   9.317 -0.4496 -0.0284  0.3980
   34POPC  H11R 4570   5.382   0.716   9.282 -0.6507  0.3366  1.5574
   34POPC  H11S 4571   5.369   0.622   9.423  1.9150 -2.1198  1.4388
   34POPC  C212 4572   5.303   0.516   9.246 -1.0790 -0.0496 -0.2149
   34POPC  H12R 4573   5.202   0.563   9.241 -1.4259 -0.7664 -0.1725
   34POPC  H12S 4574   5.309   0.417   9.296  1.5293 -0.2833 -0.8867
   34POPC  C213 4575   5.340   0.475   9.102  0.1364 -0.4053  0.7989
   34POPC  H13R 4576   5.434   0.417   9.095  0.6620  0.5411 -0.1820
   34POPC  H13S 4577   5.340   0.569   9.044 -0.9079 -1.4463 -0.9968
   34POPC  C214 4578   5.236   0.371   9.047 -0.1745  0.1536  0.2324
   34POPC  H14R 4579   5.135   0.410   9.026  0.2550  0.3663 -1.6163
   34POPC  H14S 4580   5.228   0.287   9.119  0.1945 -1.1850 -1.2461
   34POPC  C215 4581   5.270   0.325   8.902  0.0271 -0.6358 -0.1899
   34POPC  H15R 4582   5.273   0.416   8.839  0.3972 -0.5459 -0.0518
   34POPC  H15S 4583   5.195   0.248   8.876 -0.9418 -0.5826  2.1514
   34POPC  C216 4584   5.414   0.283   8.885  0.3865  0.4862  1.0742
   34POPC  H16R 4585   5.423   0.198   8.956  0.0873 -0.8604 -0.4271
   34POPC  H16S 4586   5.478   0.370   8.908 -0.4393  1.1342  0.9712
   34POPC  C217 4587   5.447   0.214   8.745  0.0084 -0.1899 -1.3085
   34POPC  H17R 4588   5.349   0.164   8.726 -0.1126 -0.8957  0.8365
   34POPC  H17S 4589   5.521   0.131   8.746  0.7070  0.4014 -2.4368
   34POPC  C218 4590   5.472   0.316   8.638  0.4823  0.1187  0.3750
   34POPC  H18R 4591   5.508   0.258   8.550 -4.5263  0.9960 -2.6879
   34POPC  H18S 4592   5.550   0.386   8.673 -0.4169  0.0080  2.7469
   34POPC  H18T 4593   5.378   0.368   8.611  1.9919  1.7377 -2.2062
   34POPC   C33 4594   6.097   0.853   9.757 -0.1079  0.0566  0.3889
   34POPC   H3X 4595   6.122   0.952   9.801  1.7743 -0.7710  1.3087
   34POPC   H3Y 4596   5.992   0.826   9.780 -0.9097  1.3058 -1.5222
   34POPC   C34 4597   6.101   0.848   9.599  0.3937  0.7600  0.0522
   34POPC   H4X 4598   6.066   0.748   9.566  1.5476  0.1058  0.7390
   34POPC   H4Y 4599   6.206   0.851   9.564  0.4508 -1.4170 -0.0507
   34POPC   C35 4600   6.011   0.951   9.527 -0.4778  0.3913 -0.0805
   34POPC   H5X 4601   6.025   1.056   9.561  0.2716  1.4703 -3.3276
   34POPC   H5Y 4602   5.911   0.931   9.570 -1.7840  2.0029 -2.1508
   34POPC   C36 4603   6.015   0.940   9.379  0.3619 -0.2882  0.6802
   34POPC   H6X 4604   5.985   0.838   9.347  3.3129 -0.5486 -1.7058
   34POPC   H6Y 4605   6.120   0.947   9.342 -0.3028  2.3292 -0.9965
   34POPC   C37 4606   5.936   1.043   9.299 -0.3111  0.0285  0.0253
   34POPC   H7X 4607   5.963   1.141   9.345  1.2738 -0.1877 -0.3492
   34POPC   H7Y 4608   5.826   1.036   9.300 -0.3122  0.0208  1.5782
   34POPC   C38 4609   5.981   1.064   9.150 -0.3701  0.5728 -0.1933
   34POPC   H8X 4610   6.083   1.108   9.150 -0.5308  0.9667 -1.4858
   34POPC   H8Y 4611   5.913   1.131   9.094 -1.1837 -1.2724 -1.5166
   34POPC   C39 4612   5.984   0.929   9.074  0.6629 -1.0693 -1.2879
   34POPC   H9X 4613   5.882   0.886   9.082 -1.1612  3.1430  1.5151
   34POPC   H9Y 4614   6.063   0.869   9.125  1.4894  0.2614 -0.9535
   34POPC  C310 4615   6.014   0.955   8.924 -0.4538  0.4052 -0.5763
   34POPC  H10X 4616   6.113   1.005   8.918  0.9783 -2.4510 -3.6067
   34POPC  H10Y 4617   5.936   1.022   8.883 -0.1107  1.7076  0.7910
   34POPC  C311 4618   6.028   0.827   8.854  0.1846 -0.1133 -0.3158
   34POPC  H11X 4619   5.928   0.787   8.829 -0.5908 -0.7740  3.3359
   34POPC  H11Y 4620   6.076   0.749   8.917 -1.7680  0.1542  1.6052
   34POPC  C312 4621   6.126   0.836   8.734  0.2258  0.3319 -0.3819
   34POPC  H12X 4622   6.230   0.862   8.762  0.0873  3.8824 -2.4838
   34POPC  H12Y 4623   6.081   0.918   8.673  1.8328  1.6456  0.1258
   34POPC  C313 4624   6.130   0.708   8.648  0.1416 -0.9083 -0.0025
   34POPC  H13X 4625   6.029   0.683   8.609  0.2759 -0.6241 -0.5494
   34POPC  H13Y 4626   6.171   0.617   8.697  0.0467 -2.5352 -2.7047
   34POPC  C314 4627   6.224   0.734   8.524 -0.4447  0.5730 -0.4676
   34POPC  H14X 4628   6.327   0.749   8.562 -0.0239 -2.3148 -0.2809
   34POPC  H14Y 4629   6.197   0.830   8.475 -0.7790  1.3271  1.1260
   34POPC  C315 4630   6.212   0.617   8.428 -0.4369  0.2411 -0.4165
   34POPC  H15X 4631   6.117   0.618   8.371 -1.1240 -0.4991  0.6728
   34POPC  H15Y 4632   6.222   0.520   8.481  1.6322  0.6850  0.0742
   34POPC  C316 4633   6.321   0.609   8.312  0.5504  0.3938 -0.5580
   34POPC  H16X 4634   6.426   0.600   8.346  0.0775 -1.9069  0.5446
   34POPC  H16Y 4635   6.319   0.707   8.261  0.7445  1.3552  1.2041
   34POPC  H16Z 4636   6.296   0.520   8.249  1.0032  0.1843 -0.4442
   35POPC     N 4637   3.965   6.125  10.689 -0.5719 -0.7143  0.0426
   35POPC   C12 4638   3.981   6.232  10.795 -0.2747  0.4213 -0.7919
   35POPC  H12A 4639   3.895   6.298  10.797 -0.0575  0.6895 -0.2899
   35POPC  H12B 4640   4.068   6.288  10.764  2.4982 -1.6056  2.6689
   35POPC   C13 4641   3.920   6.180  10.563  0.5267  0.3369 -0.2526
   35POPC  H13A 4642   3.939   6.108  10.484  0.8063 -1.1339  1.0993
   35POPC  H13B 4643   3.818   6.213  10.568  0.5639  0.4292 -0.0982
   35POPC  H13C 4644   3.980   6.266  10.538  1.7915 -0.7127 -0.9774
   35POPC   C14 4645   4.098   6.063  10.657 -0.0964  0.4293  0.4201
   35POPC  H14A 4646   4.123   5.999  10.741  0.1521  1.7137  1.3623
   35POPC  H14B 4647   4.111   6.017  10.560 -0.9736  0.7495  0.1430
   35POPC  H14C 4648   4.173   6.141  10.663 -2.8664  3.5698 -2.0615
   35POPC   C15 4649   3.866   6.020  10.732  0.1806  0.4145  0.4525
   35POPC  H15A 4650   3.769   6.068  10.735 -0.3230 -0.3936 -1.3200
   35POPC  H15B 4651   3.885   5.978  10.829  2.9817  1.6468  0.5286
   35POPC  H15C 4652   3.855   5.954  10.647 -2.0135  0.4728  0.6326
   35POPC   C11 4653   4.007   6.179  10.936  0.2859  0.2443 -1.3429
   35POPC  H11A 4654   4.089   6.104  10.939  0.2442  0.2217  0.5144
   35POPC  H11B 4655   3.917   6.121  10.965  0.4816 -0.7482 -2.6052
   35POPC     P 4656   4.184   6.342  11.042 -0.3881 -0.2480  0.3369
   35POPC   O13 4657   4.233   6.290  11.170  0.3026 -0.2814  0.1913
   35POPC   O14 4658   4.187   6.487  11.010 -0.1050 -0.4778 -0.1307
   35POPC   O12 4659   4.036   6.287  11.022 -0.0781  0.4481 -0.5069
   35POPC   O11 4660   4.261   6.254  10.926  0.3372 -0.4973  0.2769
   35POPC    C1 4661   4.394   6.306  10.882 -0.8243  1.3848  1.0084
   35POPC    HA 4662   4.469   6.294  10.964  3.1085  0.3064 -2.4305
   35POPC    HB 4663   4.386   6.412  10.849 -2.3648  0.1922 -2.9352
   35POPC    C2 4664   4.460   6.223  10.760  0.8111  0.4575  0.0470
   35POPC    HS 4665   4.567   6.249  10.748  0.6167  0.6861 -1.3261
   35POPC   O21 4666   4.378   6.245  10.643  0.4977 -0.2800 -0.3144
   35POPC   C21 4667   4.404   6.367  10.595  0.0001 -0.0096 -0.1111
   35POPC   O22 4668   4.496   6.435  10.641 -0.1063  0.9200  0.5888
   35POPC   C22 4669   4.316   6.410  10.469  0.3040  0.1576  0.5022
   35POPC   H2R 4670   4.220   6.356  10.482 -0.0236 -0.1175 -2.3034
   35POPC   H2S 4671   4.371   6.362  10.386  0.1349  1.7246 -0.5723
   35POPC    C3 4672   4.454   6.067  10.794 -0.3218  0.1223 -0.0624
   35POPC    HX 4673   4.343   6.060  10.797 -0.5017  1.8112 -1.1229
   35POPC    HY 4674   4.501   6.050  10.893  0.6815  2.6554 -0.0241
   35POPC   O31 4675   4.501   5.987  10.682 -0.1356 -0.2833  0.1500
   35POPC   C31 4676   4.437   5.884  10.644 -0.6060  0.1610 -0.3143
   35POPC   O32 4677   4.351   5.828  10.703 -0.1315  0.2431  0.4448
   35POPC   C32 4678   4.489   5.834  10.511  0.0675  0.0107 -0.2028
   35POPC   H2X 4679   4.553   5.913  10.464 -0.8511  1.2104  0.4920
   35POPC   H2Y 4680   4.398   5.821  10.449  0.7540 -0.0065 -1.2421
   35POPC   C23 4681   4.291   6.555  10.437  0.0370  0.2001 -0.1477
   35POPC   H3R 4682   4.390   6.606  10.432  0.2190 -0.2456 -1.5641
   35POPC   H3S 4683   4.233   6.601  10.520  0.5670  2.0767 -0.7615
   35POPC   C24 4684   4.228   6.580  10.299  1.0326  0.2304 -0.5291
   35POPC   H4R 4685   4.194   6.686  10.290  2.0563  0.8089  1.7173
   35POPC   H4S 4686   4.134   6.521  10.295  0.7184  0.7311 -0.7142
   35POPC   C25 4687   4.314   6.558  10.182 -0.1981  0.1738 -0.1855
   35POPC   H5R 4688   4.357   6.456  10.191  2.4806  1.2447  0.0333
   35POPC   H5S 4689   4.399   6.630  10.178  0.5337 -0.6752 -0.3701
   35POPC   C26 4690   4.242   6.575  10.047 -0.6438 -0.1321  0.6908
   35POPC   H6R 4691   4.186   6.671  10.047  0.0143  0.2751  1.7063
   35POPC   H6S 4692   4.165   6.496  10.036 -0.0318 -0.7125  0.5235
   35POPC   C27 4693   4.344   6.573   9.933 -0.4206 -0.1181  0.5659
   35POPC   H7R 4694   4.363   6.468   9.902 -1.3878 -0.6867  1.8048
   35POPC   H7S 4695   4.429   6.632   9.974  0.7421 -1.6682  0.4700
   35POPC   C28 4696   4.286   6.650   9.814 -0.4059  0.5837  0.2780
   35POPC   H8R 4697   4.268   6.751   9.857 -0.3529  0.0446  1.6105
   35POPC   H8S 4698   4.186   6.613   9.781 -0.6756  0.6888  0.9753
   35POPC   C29 4699   4.374   6.671   9.691  0.5246 -0.0156  0.2563
   35POPC   H91 4700   4.457   6.742   9.701  1.9424 -1.6649  0.7443
   35POPC  C210 4701   4.359   6.606   9.576  0.8735 -0.0738 -0.3932
   35POPC  H101 4702   4.431   6.627   9.496  1.3686 -0.3303 -0.0274
   35POPC  C211 4703   4.254   6.494   9.553 -0.5119  0.1777 -0.8071
   35POPC  H11R 4704   4.170   6.537   9.494 -0.5377  0.4745 -0.5614
   35POPC  H11S 4705   4.222   6.442   9.646 -3.6945  1.1694 -1.2336
   35POPC  C212 4706   4.312   6.375   9.469 -0.0024  0.5785 -0.1407
   35POPC  H12R 4707   4.226   6.306   9.454  0.6624  0.1201 -2.1317
   35POPC  H12S 4708   4.378   6.315   9.536  0.0097 -1.3653 -1.8272
   35POPC  C213 4709   4.383   6.414   9.337  0.2547 -0.4307  0.3825
   35POPC  H13R 4710   4.421   6.331   9.273  1.9578  1.8011 -1.6473
   35POPC  H13S 4711   4.478   6.464   9.365  0.0448  1.2981 -1.7264
   35POPC  C214 4712   4.301   6.521   9.247 -0.5471 -0.0262 -0.4753
   35POPC  H14R 4713   4.328   6.619   9.291 -0.4665  1.3562 -3.3856
   35POPC  H14S 4714   4.195   6.490   9.255 -0.5412 -0.1272 -0.7746
   35POPC  C215 4715   4.341   6.518   9.097  0.2629  0.1431  0.1300
   35POPC  H15R 4716   4.450   6.510   9.081  0.1745  0.0714 -0.4814
   35POPC  H15S 4717   4.313   6.613   9.047  2.3575  0.5160 -0.4188
   35POPC  C216 4718   4.275   6.403   9.017 -0.1530  0.5890  0.1067
   35POPC  H16R 4719   4.165   6.386   9.019  0.2767 -3.0090 -0.4261
   35POPC  H16S 4720   4.313   6.314   9.072 -1.0138  1.6785  2.5581
   35POPC  C217 4721   4.335   6.395   8.873  0.2708  0.6346  0.0979
   35POPC  H17R 4722   4.315   6.292   8.835  0.8666  0.4348  0.3098
   35POPC  H17S 4723   4.446   6.400   8.876  0.2511  0.8143  1.1841
   35POPC  C218 4724   4.266   6.489   8.780 -0.4195  0.6699  0.0103
   35POPC  H18R 4725   4.160   6.467   8.757 -0.4343  2.0226 -1.3284
   35POPC  H18S 4726   4.321   6.473   8.685 -2.0115  2.2256 -1.2230
   35POPC  H18T 4727   4.281   6.591   8.822  4.8349  0.2092 -0.0054
   35POPC   C33 4728   4.535   5.683  10.522  0.6663 -0.2821 -0.5857
   35POPC   H3X 4729   4.449   5.618  10.550  0.7148 -0.5498 -1.0627
   35POPC   H3Y 4730   4.618   5.671  10.595 -0.8153  0.8921  1.4275
   35POPC   C34 4731   4.580   5.623  10.393 -0.0027  0.2517  0.4104
   35POPC   H4X 4732   4.492   5.609  10.327 -0.0633  1.0732  0.3161
   35POPC   H4Y 4733   4.619   5.519  10.399  2.7903  1.0687 -1.4842
   35POPC   C35 4734   4.673   5.708  10.316  0.2160  0.0242 -0.9515
   35POPC   H5X 4735   4.757   5.745  10.379 -1.6322  1.2612  0.9526
   35POPC   H5Y 4736   4.613   5.791  10.273 -0.2125  0.7661  0.9394
   35POPC   C36 4737   4.739   5.639  10.191 -0.2192  0.7164 -0.2579
   35POPC   H6X 4738   4.672   5.603  10.110  1.7139 -1.1018 -1.1549
   35POPC   H6Y 4739   4.789   5.547  10.226 -1.4181 -0.6823 -1.9990
   35POPC   C37 4740   4.846   5.729  10.121  0.1174 -0.7533 -0.0312
   35POPC   H7X 4741   4.916   5.666  10.062  1.6189  1.2173 -0.4717
   35POPC   H7Y 4742   4.899   5.783  10.202  3.2699 -0.6970 -1.9534
   35POPC   C38 4743   4.760   5.834  10.048  0.4980 -0.8280  0.1822
   35POPC   H8X 4744   4.692   5.886  10.117  1.6164  0.4428  0.3648
   35POPC   H8Y 4745   4.696   5.772   9.981  0.5966  1.9098 -2.6629
   35POPC   C39 4746   4.854   5.930   9.971 -0.4057 -0.5366 -0.3646
   35POPC   H9X 4747   4.793   6.004   9.916  0.6187  0.2354 -0.4939
   35POPC   H9Y 4748   4.913   5.875   9.895 -1.4419 -1.2669 -0.6621
   35POPC  C310 4749   4.941   6.014  10.069  0.1989 -0.1227  0.4341
   35POPC  H10X 4750   5.008   5.946  10.125  0.3111  0.1605  0.6482
   35POPC  H10Y 4751   4.881   6.068  10.145  0.3200 -0.4210  0.7420
   35POPC  C311 4752   5.024   6.122  10.002 -0.9962  0.6904 -0.0545
   35POPC  H11X 4753   4.960   6.213   9.994  0.9794  2.0294 -1.4487
   35POPC  H11Y 4754   5.041   6.083   9.900 -2.1927  1.2105 -0.4728
   35POPC  C312 4755   5.148   6.159  10.084  0.2410  0.1032  0.2023
   35POPC  H12X 4756   5.105   6.184  10.184 -3.8249 -0.0940 -1.3033
   35POPC  H12Y 4757   5.192   6.251  10.040 -0.3026  1.4489  2.2992
   35POPC  C313 4758   5.251   6.046  10.108  0.7130  1.0680 -0.2717
   35POPC  H13X 4759   5.214   5.965  10.175 -0.8231  3.2565  1.7055
   35POPC  H13Y 4760   5.335   6.080  10.173  1.3867 -1.0601  0.0496
   35POPC  C314 4761   5.301   5.984   9.976 -0.2789 -0.2089  0.0249
   35POPC  H14X 4762   5.222   5.950   9.906  0.1464  1.6706 -1.4778
   35POPC  H14Y 4763   5.356   5.887   9.974  0.4642  0.1643  1.1963
   35POPC  C315 4764   5.380   6.088   9.884 -0.7697  0.2973  0.6645
   35POPC  H15X 4765   5.489   6.073   9.894 -0.7408 -0.1216 -0.2110
   35POPC  H15Y 4766   5.357   6.192   9.914  1.8516  0.4235  2.5438
   35POPC  C316 4767   5.343   6.074   9.729 -0.1639 -0.1386 -0.8328
   35POPC  H16X 4768   5.406   6.147   9.673  0.4540 -0.1240 -0.1403
   35POPC  H16Y 4769   5.238   6.108   9.725  0.2867  2.0195  2.1887
   35POPC  H16Z 4770   5.347   5.969   9.694  1.4252 -0.0699 -0.9609
   36POPC     N 4771   5.717   3.360  10.510 -0.0066  0.3083 -0.2919
   36POPC   C12 4772   5.612   3.259  10.552  0.1503  0.3980 -0.5878
   36POPC  H12A 4773   5.529   3.264  10.484 -0.4737  0.9518  0.1947
   36POPC  H12B 4774   5.570   3.280  10.650  1.3396  0.0839  0.0126
   36POPC   C13 4775   5.843   3.354  10.583  0.6960  0.0326 -0.4473
   36POPC  H13A 4776   5.905   3.268  10.565  0.5519 -0.1705  0.0001
   36POPC  H13B 4777   5.904   3.440  10.560  0.9498  0.1764  0.6737
   36POPC  H13C 4778   5.823   3.359  10.689  2.0227  1.0814 -0.2127
   36POPC   C14 4779   5.744   3.356  10.363  0.5715 -0.1853  0.0047
   36POPC  H14A 4780   5.804   3.436  10.322  0.0483  0.3052  0.1790
   36POPC  H14B 4781   5.774   3.254  10.345 -4.5920 -1.5645 -2.6581
   36POPC  H14C 4782   5.648   3.355  10.313  1.0050 -2.3900 -0.9136
   36POPC   C15 4783   5.656   3.490  10.545 -0.5038  0.5193 -0.2744
   36POPC  H15A 4784   5.634   3.500  10.650  1.8673 -2.7804  0.6944
   36POPC  H15B 4785   5.568   3.512  10.487 -0.0259  0.3573 -1.0773
   36POPC  H15C 4786   5.724   3.570  10.520 -1.3074  1.8736  1.6251
   36POPC   C11 4787   5.656   3.107  10.570  0.3061 -0.4956 -0.0004
   36POPC  H11A 4788   5.736   3.101  10.647  2.0097 -1.6730 -1.7398
   36POPC  H11B 4789   5.710   3.074  10.478 -0.0617  0.2895 -0.5144
   36POPC     P 4790   5.474   3.030  10.748 -0.3205 -0.0361  0.4780
   36POPC   O13 4791   5.474   3.172  10.791  0.1317 -0.9752  0.2023
   36POPC   O14 4792   5.529   2.931  10.838  0.1828  0.2743 -0.3467
   36POPC   O12 4793   5.547   3.021  10.603 -0.1838 -0.0215  0.0098
   36POPC   O11 4794   5.331   2.993  10.713  0.0927  0.4771 -0.0284
   36POPC    C1 4795   5.306   2.873  10.638  0.0852 -0.2739 -0.5331
   36POPC    HA 4796   5.205   2.840  10.669  0.8192 -0.4030  1.9288
   36POPC    HB 4797   5.378   2.790  10.654 -1.6012 -1.7836 -0.4779
   36POPC    C2 4798   5.298   2.893  10.488 -0.1367  0.3530  0.6165
   36POPC    HS 4799   5.376   2.959  10.444 -0.7485  0.1122 -0.9033
   36POPC   O21 4800   5.166   2.951  10.463 -0.4574 -0.4055  0.5103
   36POPC   C21 4801   5.152   3.035  10.364 -0.1856 -0.1019 -0.6493
   36POPC   O22 4802   5.240   3.077  10.292  0.2633 -0.6234  0.2108
   36POPC   C22 4803   5.005   3.080  10.368  0.0197 -0.1363  0.0029
   36POPC   H2R 4804   5.014   3.155  10.449  0.9517  0.3968 -0.5722
   36POPC   H2S 4805   4.942   2.995  10.402  0.0073  0.0112  0.3512
   36POPC    C3 4806   5.303   2.757  10.416 -0.0442  0.2023  0.2642
   36POPC    HX 4807   5.215   2.706  10.460 -1.2335  0.8102 -1.2876
   36POPC    HY 4808   5.395   2.703  10.447 -0.0683 -2.0112 -3.0006
   36POPC   O31 4809   5.297   2.760  10.270  0.5830 -0.5786 -0.3152
   36POPC   C31 4810   5.419   2.762  10.204 -0.5189  0.6539 -0.0433
   36POPC   O32 4811   5.529   2.759  10.257  0.3128 -0.5866 -0.1053
   36POPC   C32 4812   5.399   2.775  10.055  0.3412 -0.1357 -0.2025
   36POPC   H2X 4813   5.357   2.877  10.043  1.2746  0.2766 -0.0064
   36POPC   H2Y 4814   5.327   2.696  10.024 -0.1233  1.1431 -2.6521
   36POPC   C23 4815   4.965   3.155  10.234  0.1769 -0.2197 -1.0172
   36POPC   H3R 4816   4.938   3.083  10.153 -0.7421 -1.1289  0.0624
   36POPC   H3S 4817   5.047   3.211  10.185  0.7448 -0.7423 -0.6920
   36POPC   C24 4818   4.840   3.248  10.268  0.1676  0.0454 -0.2327
   36POPC   H4R 4819   4.851   3.318  10.353 -1.3503 -1.7896  1.5504
   36POPC   H4S 4820   4.761   3.175  10.293 -1.2959  0.4077 -3.3608
   36POPC   C25 4821   4.781   3.322  10.138 -0.4866  0.1459  0.4021
   36POPC   H5R 4822   4.837   3.416  10.116  2.2447 -1.2409  1.0000
   36POPC   H5S 4823   4.681   3.345  10.180 -0.2970  0.0588  0.9090
   36POPC   C26 4824   4.778   3.231  10.014  0.2634  0.2991  0.3118
   36POPC   H6R 4825   4.699   3.259   9.942  2.2329 -2.2393 -3.1342
   36POPC   H6S 4826   4.749   3.127  10.043 -1.4801  0.1489 -1.7174
   36POPC   C27 4827   4.900   3.233   9.917 -0.4080  0.5235  0.5803
   36POPC   H7R 4828   4.971   3.153   9.947  1.4790  1.3522 -1.4132
   36POPC   H7S 4829   4.971   3.317   9.929 -0.1490  0.3801  0.0879
   36POPC   C28 4830   4.864   3.232   9.769 -0.0481  0.3804  0.1726
   36POPC   H8R 4831   4.799   3.321   9.754 -0.3668  0.4088  1.5767
   36POPC   H8S 4832   4.813   3.134   9.762  2.5120 -1.2052  1.8107
   36POPC   C29 4833   4.992   3.243   9.687 -0.0470 -0.0326 -0.4085
   36POPC   H91 4834   5.074   3.290   9.744 -0.9025  0.5673  0.3502
   36POPC  C210 4835   5.017   3.193   9.564  0.2086 -0.1801 -0.3663
   36POPC  H101 4836   5.111   3.226   9.518  1.4930 -2.1212  0.7047
   36POPC  C211 4837   4.923   3.123   9.475 -0.1535 -0.1990  0.1028
   36POPC  H11R 4838   4.843   3.074   9.533 -0.1649 -1.6666 -1.1089
   36POPC  H11S 4839   4.976   3.047   9.415 -2.4541 -1.0921 -0.8934
   36POPC  C212 4840   4.848   3.219   9.378  0.0402  0.4823 -0.6250
   36POPC  H12R 4841   4.804   3.304   9.434 -1.0231  0.0046 -0.7099
   36POPC  H12S 4842   4.763   3.161   9.336 -0.0243 -0.0869  0.2470
   36POPC  C213 4843   4.938   3.278   9.267  0.0759  0.6663  0.4330
   36POPC  H13R 4844   5.039   3.316   9.295  0.8385 -2.0060  1.6161
   36POPC  H13S 4845   4.878   3.355   9.213 -0.9451 -0.6422 -0.3710
   36POPC  C214 4846   4.981   3.169   9.160 -0.3014  0.5039  0.2578
   36POPC  H14R 4847   4.888   3.114   9.135 -1.4344  0.5551  3.8654
   36POPC  H14S 4848   5.053   3.096   9.203 -0.9866 -0.1806  0.2825
   36POPC  C215 4849   5.049   3.237   9.039  0.0854 -0.5838 -0.3495
   36POPC  H15R 4850   5.147   3.273   9.079  1.3503 -2.9393 -1.1198
   36POPC  H15S 4851   4.988   3.324   9.009  0.4289 -0.2294 -0.0352
   36POPC  C216 4852   5.074   3.153   8.915  0.1725  0.0299  0.6008
   36POPC  H16R 4853   5.116   3.224   8.841  0.1847 -0.3588  0.2311
   36POPC  H16S 4854   4.979   3.116   8.870  0.8757  0.0979 -0.9933
   36POPC  C217 4855   5.156   3.032   8.959  0.0488  0.1120  0.5283
   36POPC  H17R 4856   5.102   2.953   9.015  0.3362  0.2471  1.0064
   36POPC  H17S 4857   5.225   3.085   9.028 -1.9629 -0.4728  3.1511
   36POPC  C218 4858   5.234   2.963   8.842  0.6574 -0.0159 -0.0499
   36POPC  H18R 4859   5.264   2.860   8.872  2.9014  1.0311  1.6300
   36POPC  H18S 4860   5.330   3.017   8.829 -0.2046  1.6258  0.1455
   36POPC  H18T 4861   5.170   2.961   8.751  0.1872  1.0881  0.2429
   36POPC   C33 4862   5.529   2.777   9.972 -0.2619 -0.6061 -0.2073
   36POPC   H3X 4863   5.583   2.859  10.023 -1.6352 -0.8234  1.7107
   36POPC   H3Y 4864   5.501   2.812   9.870 -0.4095 -0.1645 -0.0209
   36POPC   C34 4865   5.601   2.645   9.957 -0.7980  0.4067 -0.0127
   36POPC   H4X 4866   5.540   2.571   9.901 -1.7787  1.6067 -0.5798
   36POPC   H4Y 4867   5.625   2.606  10.058 -0.4126 -2.5409 -1.1312
   36POPC   C35 4868   5.733   2.663   9.883  0.6507 -0.1187  0.0001
   36POPC   H5X 4869   5.804   2.580   9.905  0.4297 -1.2884 -3.1504
   36POPC   H5Y 4870   5.784   2.755   9.919 -1.5244  1.1577 -0.0186
   36POPC   C36 4871   5.704   2.671   9.737  0.2869  0.0166 -0.2645
   36POPC   H6X 4872   5.632   2.754   9.720 -1.4046 -1.5515 -1.1238
   36POPC   H6Y 4873   5.658   2.577   9.698  0.3824  0.0848 -0.5424
   36POPC   C37 4874   5.826   2.706   9.658  0.5291  0.3750  0.0060
   36POPC   H7X 4875   5.900   2.623   9.652  0.3106 -0.0327  2.1407
   36POPC   H7Y 4876   5.882   2.793   9.698  1.5979  0.7709 -2.2076
   36POPC   C38 4877   5.791   2.742   9.515  0.3523 -0.3420  0.0797
   36POPC   H8X 4878   5.709   2.816   9.519 -0.5580 -1.3945  1.5012
   36POPC   H8Y 4879   5.737   2.664   9.458 -2.3749  0.9690  0.7258
   36POPC   C39 4880   5.911   2.801   9.441 -0.7790 -0.0669  0.2853
   36POPC   H9X 4881   5.999   2.734   9.437 -1.2396 -0.7298  0.8223
   36POPC   H9Y 4882   5.945   2.899   9.478 -0.2360  0.5371 -1.7078
   36POPC  C310 4883   5.878   2.826   9.291  1.1378 -0.1237  0.6516
   36POPC  H10X 4884   5.945   2.904   9.249 -1.8237  1.7011 -1.0328
   36POPC  H10Y 4885   5.776   2.865   9.274  1.6251  0.6160 -0.6824
   36POPC  C311 4886   5.899   2.703   9.199 -0.0244  0.2136 -0.2174
   36POPC  H11X 4887   5.812   2.637   9.220 -0.1773  0.9900  1.8499
   36POPC  H11Y 4888   5.985   2.640   9.228  0.1535  0.6048  0.1214
   36POPC  C312 4889   5.899   2.739   9.054 -0.1289 -0.3731  0.4146
   36POPC  H12X 4890   5.914   2.653   8.985  0.5131  0.0321  0.0417
   36POPC  H12Y 4891   5.982   2.811   9.040 -1.4099  0.9092 -1.1315
   36POPC  C313 4892   5.757   2.795   9.010  0.0731  0.9143 -0.1594
   36POPC  H13X 4893   5.716   2.864   9.087  1.3119  1.4226  0.0705
   36POPC  H13Y 4894   5.677   2.719   8.999 -0.9057  1.7689  0.8641
   36POPC  C314 4895   5.771   2.880   8.890 -0.0361 -0.2809  0.0190
   36POPC  H14X 4896   5.837   2.964   8.922 -0.0887 -0.3819  0.3987
   36POPC  H14Y 4897   5.675   2.925   8.858 -0.1894 -0.5572  0.0961
   36POPC  C315 4898   5.825   2.813   8.762 -0.0699 -0.4466  0.0981
   36POPC  H15X 4899   5.771   2.721   8.730 -0.3377 -0.6929  1.2086
   36POPC  H15Y 4900   5.927   2.783   8.792 -0.6629 -0.1010  2.6900
   36POPC  C316 4901   5.831   2.914   8.646 -0.0946 -0.2105  0.4346
   36POPC  H16X 4902   5.731   2.955   8.622 -0.0113 -1.0761 -1.5196
   36POPC  H16Y 4903   5.868   2.859   8.557 -3.1374 -0.4824 -0.7728
   36POPC  H16Z 4904   5.900   2.997   8.674  0.6203 -0.5800 -0.1837
   37POPC     N 4905   3.385   0.662   6.399  0.3345  0.0586 -0.2352
   37POPC   C12 4906   3.480   0.616   6.293 -0.4141 -0.4724 -0.3175
   37POPC  H12A 4907   3.518   0.701   6.239 -1.6517  0.5276  0.3475
   37POPC  H12B 4908   3.426   0.552   6.224 -1.0234 -0.0408 -0.2440
   37POPC   C13 4909   3.269   0.710   6.329  0.0031 -0.2069 -0.2348
   37POPC  H13A 4910   3.246   0.635   6.255  0.1827 -0.5972  0.0998
   37POPC  H13B 4911   3.182   0.729   6.390 -0.5337 -2.4711 -0.1924
   37POPC  H13C 4912   3.298   0.800   6.276 -1.1639 -0.2835 -1.0458
   37POPC   C14 4913   3.340   0.546   6.477  0.0587 -0.1529 -0.1553
   37POPC  H14A 4914   3.296   0.473   6.410  0.7893 -0.4209 -0.3542
   37POPC  H14B 4915   3.418   0.493   6.529 -0.4742  0.7927  1.6906
   37POPC  H14C 4916   3.270   0.581   6.552  3.0145  1.4465  2.0388
   37POPC   C15 4917   3.440   0.768   6.478 -0.1679 -0.3785 -0.7550
   37POPC  H15A 4918   3.365   0.792   6.552 -0.0196  0.4286 -0.8619
   37POPC  H15B 4919   3.447   0.860   6.421  0.3745  0.4725  0.6497
   37POPC  H15C 4920   3.534   0.745   6.524 -0.7319  0.3593  0.8279
   37POPC   C11 4921   3.598   0.521   6.331  0.3593 -0.6416  0.5479
   37POPC  H11A 4922   3.622   0.459   6.241  2.1673  0.1613  0.4342
   37POPC  H11B 4923   3.563   0.439   6.398  0.7465 -1.8305 -0.6575
   37POPC     P 4924   3.819   0.676   6.298  0.7152  0.1454 -0.3873
   37POPC   O13 4925   3.828   0.805   6.373 -0.7733 -0.0830  0.6023
   37POPC   O14 4926   3.786   0.673   6.155  0.8086  0.4896  1.1601
   37POPC   O12 4927   3.719   0.586   6.379  0.1339  0.1626  0.3870
   37POPC   O11 4928   3.955   0.598   6.318  0.1134 -0.5038 -0.1500
   37POPC    C1 4929   3.966   0.492   6.412 -0.0113 -1.0799 -0.9474
   37POPC    HA 4930   4.062   0.440   6.394  0.8967  0.7367 -1.5564
   37POPC    HB 4931   3.882   0.420   6.401 -0.0102 -1.6772  2.1543
   37POPC    C2 4932   3.975   0.530   6.559 -0.6580 -1.2931 -0.5390
   37POPC    HS 4933   3.876   0.574   6.584 -0.0639 -0.4875  0.4905
   37POPC   O21 4934   4.086   0.620   6.585 -0.1151 -0.5270  0.2010
   37POPC   C21 4935   4.073   0.710   6.685 -0.6399 -0.4770 -0.0391
   37POPC   O22 4936   3.971   0.728   6.751 -0.6152 -0.5563  0.3430
   37POPC   C22 4937   4.186   0.808   6.693  0.1782  0.1677  0.1276
   37POPC   H2R 4938   4.150   0.911   6.712  1.1632  0.6934 -0.7263
   37POPC   H2S 4939   4.233   0.821   6.592  0.4673  0.6787  0.3254
   37POPC    C3 4940   3.982   0.399   6.639 -0.0960 -0.2453  0.4620
   37POPC    HX 4941   4.074   0.345   6.609 -0.3646 -0.6492  0.3477
   37POPC    HY 4942   3.898   0.328   6.620 -0.1508 -0.7174  2.3462
   37POPC   O31 4943   4.004   0.424   6.782 -0.3445 -0.5563 -0.3129
   37POPC   C31 4944   3.899   0.465   6.851  0.2680 -0.0725 -0.1771
   37POPC   O32 4945   3.781   0.476   6.816 -0.9332 -0.1108 -0.3298
   37POPC   C32 4946   3.960   0.499   6.985  0.4617  0.1803 -0.5163
   37POPC   H2X 4947   4.061   0.543   6.970  0.5518  0.1130 -0.1219
   37POPC   H2Y 4948   3.969   0.404   7.042 -0.0990  1.0211  1.0366
   37POPC   C23 4949   4.299   0.773   6.792  0.0406  0.5045 -0.2555
   37POPC   H3R 4950   4.389   0.819   6.746 -1.3931  2.7830 -0.9321
   37POPC   H3S 4951   4.326   0.666   6.800  0.6312  0.5422 -1.5444
   37POPC   C24 4952   4.266   0.838   6.930  0.2867  0.0196  0.4300
   37POPC   H4R 4953   4.168   0.796   6.961 -0.3250 -1.6815 -3.2888
   37POPC   H4S 4954   4.256   0.948   6.915 -2.9011 -0.3330 -0.8336
   37POPC   C25 4955   4.370   0.799   7.041 -0.5548  0.5596  0.6370
   37POPC   H5R 4956   4.468   0.846   7.017  0.0789 -1.4196 -0.9468
   37POPC   H5S 4957   4.390   0.691   7.024  2.3955  0.8368  1.8058
   37POPC   C26 4958   4.319   0.841   7.174 -0.9636  0.3005  0.4034
   37POPC   H6R 4959   4.214   0.804   7.178 -1.0950  0.5476 -0.5561
   37POPC   H6S 4960   4.312   0.951   7.167 -0.6471  0.3400  0.6687
   37POPC   C27 4961   4.396   0.778   7.284 -0.5133  0.6037  0.1600
   37POPC   H7R 4962   4.492   0.833   7.281  1.6040 -2.8147 -1.9245
   37POPC   H7S 4963   4.416   0.670   7.268 -1.0217  0.0174  3.0344
   37POPC   C28 4964   4.323   0.786   7.425  0.1105 -0.6681  0.3912
   37POPC   H8R 4965   4.376   0.720   7.497 -0.4734 -0.7335  0.7699
   37POPC   H8S 4966   4.226   0.733   7.414  0.8692 -1.8086 -1.3012
   37POPC   C29 4967   4.308   0.924   7.481 -0.4651  0.2229  0.1844
   37POPC   H91 4968   4.281   1.003   7.409  0.2628 -2.1033 -2.8516
   37POPC  C210 4969   4.332   0.962   7.604 -0.5035 -0.2819  0.1230
   37POPC  H101 4970   4.306   1.064   7.637 -0.2657 -0.7025  1.7193
   37POPC  C211 4971   4.367   0.876   7.721 -0.4434  0.1122 -0.2971
   37POPC  H11R 4972   4.412   0.943   7.797 -0.4976  0.1343 -0.2846
   37POPC  H11S 4973   4.433   0.790   7.696  0.1349 -0.2465  2.1811
   37POPC  C212 4974   4.244   0.824   7.801 -0.4968  0.6644 -0.0872
   37POPC  H12R 4975   4.284   0.752   7.876  1.6613 -1.1708 -2.7982
   37POPC  H12S 4976   4.181   0.781   7.720  0.5174  0.5625 -0.8481
   37POPC  C213 4977   4.170   0.942   7.866  0.1485 -0.4350 -0.0526
   37POPC  H13R 4978   4.106   0.984   7.785 -0.9436 -2.5883 -0.3710
   37POPC  H13S 4979   4.234   1.027   7.899  2.8133 -1.8564 -1.2115
   37POPC  C214 4980   4.072   0.901   7.978 -0.0024  0.3086  0.0298
   37POPC  H14R 4981   4.105   0.815   8.040 -0.6816 -0.7257 -1.0114
   37POPC  H14S 4982   3.980   0.857   7.934  0.6227 -1.2782  0.2551
   37POPC  C215 4983   4.040   1.011   8.081 -0.1635  0.7205  0.4824
   37POPC  H15R 4984   4.131   1.030   8.141  0.0609 -0.4718  0.5357
   37POPC  H15S 4985   3.967   0.961   8.148  0.6721 -1.0229  0.1372
   37POPC  C216 4986   3.989   1.146   8.031 -0.0102  0.0363  0.3654
   37POPC  H16R 4987   3.887   1.124   7.994  0.5954  0.3109 -1.5685
   37POPC  H16S 4988   4.041   1.179   7.939 -1.9451 -2.2352 -1.6562
   37POPC  C217 4989   3.989   1.250   8.143  0.3460  0.3736  0.1484
   37POPC  H17R 4990   4.098   1.263   8.162  0.3202 -1.0972  1.5458
   37POPC  H17S 4991   3.951   1.206   8.238 -2.1720 -0.9533 -1.3638
   37POPC  C218 4992   3.900   1.378   8.105 -0.4380 -0.3352 -0.9462
   37POPC  H18R 4993   3.814   1.339   8.047 -1.5553 -1.2237  1.1646
   37POPC  H18S 4994   3.958   1.433   8.028 -1.9311 -1.2261 -2.7972
   37POPC  H18T 4995   3.873   1.435   8.196 -0.4627  0.2730 -1.3323
   37POPC   C33 4996   3.871   0.601   7.060  0.5246  0.0857  0.1030
   37POPC   H3X 4997   3.771   0.557   7.081  0.2592  0.6012 -0.0726
   37POPC   H3Y 4998   3.855   0.692   6.998  1.6360 -0.5943 -1.2326
   37POPC   C34 4999   3.941   0.637   7.194 -0.5060 -0.0642  0.3200
   37POPC   H4X 5000   4.033   0.692   7.163  0.7867 -2.0233  0.5294
   37POPC   H4Y 5001   3.982   0.554   7.254  1.6463  1.1860  0.6854
   37POPC   C35 5002   3.847   0.722   7.287  0.0118  0.9546 -0.1614
   37POPC   H5X 5003   3.809   0.808   7.227  0.1585  2.3017  1.6138
   37POPC   H5Y 5004   3.917   0.766   7.360 -0.1391 -0.0408  0.6006
   37POPC   C36 5005   3.723   0.653   7.351 -0.2257  0.9068  0.0825
   37POPC   H6X 5006   3.763   0.555   7.386  0.5928  0.4825 -1.8882
   37POPC   H6Y 5007   3.647   0.631   7.273 -0.5742  1.0440  0.3823
   37POPC   C37 5008   3.648   0.742   7.453  0.1442 -0.1020  0.1963
   37POPC   H7X 5009   3.538   0.727   7.457  0.1285  0.1144  2.8902
   37POPC   H7Y 5010   3.671   0.848   7.429  0.8164 -0.0649  0.9708
   37POPC   C38 5011   3.704   0.723   7.597 -0.4845  0.4650  0.2425
   37POPC   H8X 5012   3.812   0.752   7.597 -0.8680  2.0157 -0.1671
   37POPC   H8Y 5013   3.711   0.614   7.616  0.4453  0.6233  0.8780
   37POPC   C39 5014   3.639   0.810   7.712 -0.0271 -0.3226  0.2013
   37POPC   H9X 5015   3.553   0.750   7.749 -1.3486  0.9626 -0.7212
   37POPC   H9Y 5016   3.600   0.901   7.663 -0.6429 -1.2611 -1.1075
   37POPC  C310 5017   3.742   0.842   7.822 -0.3506 -0.6301  0.3503
   37POPC  H10X 5018   3.809   0.918   7.775  1.0312 -0.8727  1.8457
   37POPC  H10Y 5019   3.810   0.755   7.836  0.9789  0.5254  1.4810
   37POPC  C311 5020   3.691   0.898   7.956 -0.1534 -0.2331 -0.3602
   37POPC  H11X 5021   3.782   0.949   7.992  2.0888 -1.6685 -3.5270
   37POPC  H11Y 5022   3.680   0.813   8.028  1.3100  0.3893  0.6474
   37POPC  C312 5023   3.572   0.993   7.952  0.0953  0.3210  0.9202
   37POPC  H12X 5024   3.483   0.947   7.905 -0.0389  0.6700  0.8363
   37POPC  H12Y 5025   3.608   1.084   7.899  0.2159  0.0318  0.4949
   37POPC  C313 5026   3.539   1.029   8.098 -0.3562 -0.2332 -0.1469
   37POPC  H13X 5027   3.497   1.131   8.097  1.1375  0.4175  0.7158
   37POPC  H13Y 5028   3.636   1.042   8.150 -0.2079 -2.1114  0.1400
   37POPC  C314 5029   3.455   0.930   8.180 -0.2758 -0.7471 -0.1899
   37POPC  H14X 5030   3.485   0.824   8.168  1.1722 -1.0089  4.0797
   37POPC  H14Y 5031   3.354   0.946   8.137  0.2881  0.2694 -1.2045
   37POPC  C315 5032   3.462   0.967   8.333 -0.2635 -0.3276  0.2058
   37POPC  H15X 5033   3.370   0.936   8.387 -0.0304  0.4154  1.0474
   37POPC  H15Y 5034   3.455   1.078   8.333 -0.4619 -0.2860 -2.1768
   37POPC  C316 5035   3.593   0.926   8.400  0.4900  0.0380 -0.0958
   37POPC  H16X 5036   3.616   0.818   8.389 -1.1023 -0.3748  0.3307
   37POPC  H16Y 5037   3.580   0.944   8.509 -0.1348  0.6050 -0.2521
   37POPC  H16Z 5038   3.680   0.990   8.375 -0.4217  1.7284  0.8515
   38POPC     N 5039   5.954   3.519   6.171 -0.1620 -0.0749  0.3299
   38POPC   C12 5040   5.816   3.500   6.110 -0.9019 -0.1696  0.2084
   38POPC  H12A 5041   5.827   3.405   6.060 -0.0456  0.0072  0.0478
   38POPC  H12B 5042   5.799   3.575   6.034 -0.4186 -1.0071 -0.7500
   38POPC   C13 5043   6.046   3.572   6.059 -0.5917 -0.4145  0.0838
   38POPC  H13A 5044   6.017   3.672   6.032  0.2799 -0.0082  0.6091
   38POPC  H13B 5045   6.147   3.574   6.098 -0.2422  1.7236 -0.7906
   38POPC  H13C 5046   6.041   3.503   5.976  1.4514  0.4583 -0.8308
   38POPC   C14 5047   5.954   3.610   6.290  0.0302  0.7309  0.0043
   38POPC  H14A 5048   5.887   3.691   6.268  1.1290  2.1250  1.4895
   38POPC  H14B 5049   5.900   3.571   6.375  0.4200 -0.5971 -0.3266
   38POPC  H14C 5050   6.049   3.650   6.324 -0.6371  1.6291  0.8760
   38POPC   C15 5051   6.001   3.385   6.210  0.3740  0.7661 -0.4345
   38POPC  H15A 5052   6.010   3.324   6.121 -0.3803 -1.3262  0.8553
   38POPC  H15B 5053   5.930   3.326   6.265  3.0977 -1.0765  1.3323
   38POPC  H15C 5054   6.086   3.371   6.275 -0.7271  0.7915  1.0400
   38POPC   C11 5055   5.694   3.477   6.198  0.3808 -0.0411  0.2201
   38POPC  H11A 5056   5.713   3.395   6.271 -0.8462 -0.2283  0.3532
   38POPC  H11B 5057   5.608   3.436   6.142  0.6670  0.0383 -0.2804
   38POPC     P 5058   5.596   3.720   6.169 -0.4103 -0.0993  0.2243
   38POPC   O13 5059   5.497   3.671   6.067  0.8899  0.7475  0.6985
   38POPC   O14 5060   5.713   3.796   6.118 -0.2949  0.4407 -0.1111
   38POPC   O12 5061   5.646   3.597   6.256 -0.2251  0.0874 -0.0419
   38POPC   O11 5062   5.519   3.810   6.271 -0.0569 -0.0012  0.0264
   38POPC    C1 5063   5.557   3.790   6.411 -0.2285 -0.1629 -0.0308
   38POPC    HA 5064   5.580   3.685   6.439 -0.3378 -0.5860 -1.4788
   38POPC    HB 5065   5.460   3.796   6.464  0.0716 -3.6169  1.1574
   38POPC    C2 5066   5.679   3.874   6.453 -0.1368  0.3794 -0.4326
   38POPC    HS 5067   5.768   3.842   6.395 -0.8104 -0.7872 -0.8506
   38POPC   O21 5068   5.719   3.857   6.591 -0.3974 -0.4090  0.1573
   38POPC   C21 5069   5.780   3.741   6.614  0.5262 -0.0419 -0.6143
   38POPC   O22 5070   5.792   3.654   6.531  0.0265 -0.2063  0.1667
   38POPC   C22 5071   5.818   3.725   6.763  0.4177  0.2999 -0.1439
   38POPC   H2R 5072   5.735   3.756   6.830 -1.6771 -0.4899 -2.2249
   38POPC   H2S 5073   5.910   3.784   6.782 -0.4056  0.7105  3.2767
   38POPC    C3 5074   5.645   4.024   6.435 -0.8022  0.1562 -0.0520
   38POPC    HX 5075   5.640   4.038   6.324 -0.4943 -0.0792 -0.0977
   38POPC    HY 5076   5.735   4.083   6.461 -2.0909  1.6712  1.1422
   38POPC   O31 5077   5.527   4.069   6.511 -0.2613 -0.1089 -0.1055
   38POPC   C31 5078   5.543   4.137   6.615 -0.8181 -0.0956 -0.1044
   38POPC   O32 5079   5.650   4.178   6.660 -0.1526 -0.5414 -0.2224
   38POPC   C32 5080   5.412   4.150   6.693 -0.1224  0.2709  0.4250
   38POPC   H2X 5081   5.357   4.054   6.683 -0.1583  0.3376 -0.0125
   38POPC   H2Y 5082   5.361   4.239   6.650 -0.1829  0.1576  0.2590
   38POPC   C23 5083   5.869   3.576   6.798  0.0267  0.0307  0.6077
   38POPC   H3R 5084   5.928   3.533   6.715  0.3039 -0.7036  1.1714
   38POPC   H3S 5085   5.790   3.501   6.819  0.8877 -1.4006 -1.0516
   38POPC   C24 5086   5.960   3.580   6.920  0.5543 -0.0480 -0.5428
   38POPC   H4R 5087   6.052   3.636   6.890  0.6776  1.1197  1.8065
   38POPC   H4S 5088   5.991   3.476   6.944  0.6262 -0.1473 -1.0596
   38POPC   C25 5089   5.896   3.643   7.052  0.6639 -0.3448  1.0577
   38POPC   H5R 5090   5.792   3.603   7.055  0.1105  0.9063 -0.2066
   38POPC   H5S 5091   5.880   3.753   7.039 -0.4329 -0.6902 -0.8438
   38POPC   C26 5092   5.979   3.621   7.176 -0.0374 -0.4559 -0.3259
   38POPC   H6R 5093   5.940   3.670   7.268  1.6001  0.3008 -0.0006
   38POPC   H6S 5094   6.083   3.659   7.165 -0.8637  1.4727 -2.0014
   38POPC   C27 5095   5.977   3.478   7.231  0.2985 -0.8009 -0.0293
   38POPC   H7R 5096   6.039   3.410   7.170 -0.8751  0.2219 -2.4922
   38POPC   H7S 5097   5.872   3.441   7.221 -0.1999  0.7710 -0.8588
   38POPC   C28 5098   6.019   3.470   7.382 -0.6461 -0.1900 -0.5510
   38POPC   H8R 5099   5.989   3.373   7.426 -1.7724 -0.1773 -1.2504
   38POPC   H8S 5100   5.964   3.553   7.432 -0.9048 -0.7121  0.0475
   38POPC   C29 5101   6.171   3.506   7.392  0.5951  0.1482 -0.1802
   38POPC   H91 5102   6.206   3.577   7.316  1.1085 -0.0706 -0.1562
   38POPC  C210 5103   6.250   3.453   7.490  0.6261  0.4153 -0.3397
   38POPC  H101 5104   6.356   3.478   7.504  0.4444  0.5822  0.8578
   38POPC  C211 5105   6.198   3.365   7.607  0.3377  0.5939 -0.4172
   38POPC  H11R 5106   6.184   3.265   7.559 -0.8565  0.6248 -0.1649
   38POPC  H11S 5107   6.099   3.407   7.635 -0.4430 -0.3513 -1.6363
   38POPC  C212 5108   6.280   3.352   7.741  0.1098 -0.3705  0.7999
   38POPC  H12R 5109   6.379   3.310   7.713 -0.1720  1.0059 -2.7293
   38POPC  H12S 5110   6.231   3.282   7.813  0.4242 -2.4952 -0.9401
   38POPC  C213 5111   6.299   3.492   7.800  0.3288  0.0773  0.0735
   38POPC  H13R 5112   6.195   3.531   7.807 -0.8129 -2.6441 -0.3537
   38POPC  H13S 5113   6.357   3.547   7.722 -0.3663  0.6521 -0.0437
   38POPC  C214 5114   6.377   3.510   7.926  0.2700  0.0030 -0.1245
   38POPC  H14R 5115   6.380   3.616   7.959  0.0932 -0.1045  0.2521
   38POPC  H14S 5116   6.481   3.478   7.906 -0.1740 -1.3402 -0.3632
   38POPC  C215 5117   6.321   3.429   8.041 -0.1052 -0.8056 -0.2755
   38POPC  H15R 5118   6.349   3.322   8.045  1.7736 -0.2962  2.1050
   38POPC  H15S 5119   6.213   3.445   8.023  0.2553  0.3385 -1.6541
   38POPC  C216 5120   6.359   3.488   8.178 -0.1970 -0.0958  0.6157
   38POPC  H16R 5121   6.470   3.495   8.184 -0.2492  2.9526 -0.3639
   38POPC  H16S 5122   6.331   3.403   8.244 -0.5206 -2.2452 -2.1182
   38POPC  C217 5123   6.293   3.616   8.224 -0.1435 -0.5389 -0.0746
   38POPC  H17R 5124   6.291   3.687   8.139 -0.1037 -2.9967 -2.2708
   38POPC  H17S 5125   6.351   3.659   8.309 -1.9102 -1.3348  1.6429
   38POPC  C218 5126   6.139   3.607   8.258 -0.3468  0.3105 -0.1695
   38POPC  H18R 5127   6.131   3.521   8.327  0.5658  0.7340  0.4894
   38POPC  H18S 5128   6.080   3.596   8.164 -0.2782  1.9073 -0.4394
   38POPC  H18T 5129   6.102   3.691   8.321  1.6251 -0.0002  1.4997
   38POPC   C33 5130   5.435   4.178   6.845 -0.1749 -0.4012  0.4858
   38POPC   H3X 5131   5.335   4.191   6.890  0.8359  2.3934  2.2642
   38POPC   H3Y 5132   5.491   4.273   6.865 -0.9408  0.0202  0.6624
   38POPC   C34 5133   5.492   4.050   6.913  0.0012  0.4507 -0.3755
   38POPC   H4X 5134   5.580   4.020   6.853  0.0496 -1.0557  0.4072
   38POPC   H4Y 5135   5.418   3.968   6.897 -1.1728  1.6233 -1.2066
   38POPC   C35 5136   5.543   4.074   7.055 -0.2051 -0.6538 -0.0178
   38POPC   H5X 5137   5.605   4.166   7.057 -0.7637 -0.2548  2.2303
   38POPC   H5Y 5138   5.611   3.992   7.089  1.2327  0.7457  0.6285
   38POPC   C36 5139   5.432   4.081   7.164 -0.7570 -0.3842 -0.1997
   38POPC   H6X 5140   5.409   3.984   7.214 -1.3448  0.7703  1.9297
   38POPC   H6Y 5141   5.341   4.125   7.118 -3.2363 -2.6564  2.1286
   38POPC   C37 5142   5.462   4.190   7.268  0.3538 -0.3647 -0.0596
   38POPC   H7X 5143   5.371   4.210   7.329  1.2642 -1.1740  1.6384
   38POPC   H7Y 5144   5.463   4.286   7.213 -4.2111  0.0203  0.1415
   38POPC   C38 5145   5.578   4.150   7.366  0.5336 -0.3941  0.1715
   38POPC   H8X 5146   5.614   4.240   7.420 -0.1815 -0.4746  0.8009
   38POPC   H8Y 5147   5.666   4.113   7.309  0.4334  0.0941 -0.3126
   38POPC   C39 5148   5.536   4.028   7.453  0.4490 -0.1149  0.3465
   38POPC   H9X 5149   5.541   3.937   7.389 -2.8670  0.9113 -1.6162
   38POPC   H9Y 5150   5.430   4.025   7.487  0.3928 -0.3897  0.1469
   38POPC  C310 5151   5.626   4.001   7.580  0.3995 -1.1735  0.3449
   38POPC  H10X 5152   5.688   4.089   7.608  1.0291 -1.5606  0.1680
   38POPC  H10Y 5153   5.698   3.921   7.554  0.4684 -1.9235  2.6013
   38POPC  C311 5154   5.557   3.953   7.715  0.6898  0.0322 -0.2522
   38POPC  H11X 5155   5.637   3.901   7.771 -0.1498 -2.1439 -0.9864
   38POPC  H11Y 5156   5.474   3.879   7.706  2.2289 -2.2396  2.6964
   38POPC  C312 5157   5.497   4.076   7.792  0.3309  0.0407 -0.1206
   38POPC  H12X 5158   5.443   4.036   7.881 -0.3800 -0.6579 -0.8568
   38POPC  H12Y 5159   5.419   4.109   7.721 -0.6829 -0.1469  0.8650
   38POPC  C313 5160   5.591   4.183   7.844  0.2929  0.5893 -0.1121
   38POPC  H13X 5161   5.629   4.245   7.759 -1.6478  0.4205 -1.1478
   38POPC  H13Y 5162   5.679   4.129   7.884 -0.9838 -0.0906  1.9244
   38POPC  C314 5163   5.527   4.276   7.946 -0.7569 -0.1631 -0.1958
   38POPC  H14X 5164   5.457   4.210   8.000 -1.7180  0.0765 -1.1172
   38POPC  H14Y 5165   5.464   4.348   7.889  0.3981  0.2357 -1.0311
   38POPC  C315 5166   5.636   4.341   8.042  0.0115 -0.2120  0.0889
   38POPC  H15X 5167   5.715   4.384   7.977 -0.2942  1.7138  0.9148
   38POPC  H15Y 5168   5.698   4.269   8.100  1.1521 -0.1283 -0.9848
   38POPC  C316 5169   5.592   4.464   8.134  0.1128  0.1265  0.3830
   38POPC  H16X 5170   5.685   4.515   8.165  2.1171 -1.5754 -2.4082
   38POPC  H16Y 5171   5.532   4.424   8.219  0.7270 -0.2467  0.6470
   38POPC  H16Z 5172   5.525   4.532   8.077  1.1695  0.2024 -0.7938
   39POPC     N 5173   2.824   0.667   5.817 -0.8146  0.0824  0.0489
   39POPC   C12 5174   2.806   0.792   5.903 -0.5159  0.5669  0.2634
   39POPC  H12A 5175   2.872   0.869   5.867  0.7770 -0.0503  1.2250
   39POPC  H12B 5176   2.843   0.775   6.003 -0.7859  0.7978  0.4012
   39POPC   C13 5177   2.978   0.636   5.815 -0.2028  0.5031  0.5254
   39POPC  H13A 5178   2.998   0.569   5.733 -2.8920  0.0379  0.1804
   39POPC  H13B 5179   3.033   0.728   5.795  0.2098  0.0966 -0.2694
   39POPC  H13C 5180   3.012   0.583   5.902 -0.2753  0.1757  0.3538
   39POPC   C14 5181   2.748   0.556   5.873 -0.3014 -0.4271  0.5078
   39POPC  H14A 5182   2.785   0.532   5.972 -0.6749  0.5122  0.8815
   39POPC  H14B 5183   2.643   0.580   5.882 -0.3576 -0.7682  0.8069
   39POPC  H14C 5184   2.763   0.472   5.807  1.3755  1.5320 -1.8198
   39POPC   C15 5185   2.778   0.695   5.676  0.8725  0.2909 -0.3665
   39POPC  H15A 5186   2.670   0.693   5.680  0.8645  1.1807  2.8787
   39POPC  H15B 5187   2.800   0.617   5.605  1.5959 -0.8068  1.0188
   39POPC  H15C 5188   2.812   0.791   5.639 -0.6343  0.5554 -1.1350
   39POPC   C11 5189   2.659   0.832   5.908 -0.0968  0.1786 -0.5442
   39POPC  H11A 5190   2.596   0.811   5.819 -1.0726  0.0116  0.1671
   39POPC  H11B 5191   2.673   0.941   5.924  4.4864 -0.0538 -1.7484
   39POPC     P 5192   2.458   0.733   6.050 -0.0361  0.3358 -0.2977
   39POPC   O13 5193   2.430   0.622   5.961  0.2224 -0.1586  0.3766
   39POPC   O14 5194   2.377   0.854   6.024  0.0359  0.4112  0.5750
   39POPC   O12 5195   2.608   0.779   6.036 -0.0451  0.1377 -0.3069
   39POPC   O11 5196   2.433   0.678   6.198 -0.0222 -0.1536  0.6256
   39POPC    C1 5197   2.491   0.746   6.310  0.3390 -0.6000  0.1339
   39POPC    HA 5198   2.435   0.714   6.401  0.6074 -1.4113  0.0143
   39POPC    HB 5199   2.485   0.857   6.300  0.4940 -0.6178 -0.1598
   39POPC    C2 5200   2.649   0.727   6.325 -0.3703  0.2814 -0.0623
   39POPC    HS 5201   2.692   0.729   6.223 -1.3607  0.8136 -0.4819
   39POPC   O21 5202   2.662   0.603   6.382 -0.2754 -0.3274  0.1935
   39POPC   C21 5203   2.784   0.557   6.371  0.0093 -0.4513  0.0732
   39POPC   O22 5204   2.889   0.609   6.332 -0.7888  0.2030 -0.4586
   39POPC   C22 5205   2.783   0.413   6.435 -0.3253 -0.8039 -0.4478
   39POPC   H2R 5206   2.755   0.338   6.359  0.4890 -0.4404 -1.1194
   39POPC   H2S 5207   2.691   0.402   6.497  0.6917 -2.8462  0.7817
   39POPC    C3 5208   2.715   0.847   6.405 -0.3717 -0.7260 -0.2274
   39POPC    HX 5209   2.677   0.937   6.352 -1.7593 -1.3058 -0.2593
   39POPC    HY 5210   2.826   0.852   6.405 -0.3012 -1.6759 -1.6338
   39POPC   O31 5211   2.654   0.857   6.533  0.4774  0.0906 -0.0097
   39POPC   C31 5212   2.731   0.810   6.629  0.1575 -0.8513  0.0663
   39POPC   O32 5213   2.840   0.751   6.615  0.4440 -0.6945 -0.1804
   39POPC   C32 5214   2.655   0.850   6.761  0.1672  0.5810 -0.5772
   39POPC   H2X 5215   2.703   0.936   6.812  2.3309  0.6932 -2.6158
   39POPC   H2Y 5216   2.551   0.878   6.732  0.0119 -0.0454 -0.6479
   39POPC   C23 5217   2.921   0.369   6.498  0.2750 -0.5635 -0.1244
   39POPC   H3R 5218   3.000   0.371   6.419  1.3672 -0.3705  0.9331
   39POPC   H3S 5219   2.914   0.263   6.531  2.2679 -0.6446  0.2006
   39POPC   C24 5220   2.962   0.443   6.627 -0.1164  0.1605 -0.2201
   39POPC   H4R 5221   2.969   0.554   6.620 -1.4119  0.1930 -1.3986
   39POPC   H4S 5222   3.066   0.409   6.641 -0.4087 -2.1323 -2.7216
   39POPC   C25 5223   2.893   0.403   6.763 -0.1550 -0.1018 -0.3390
   39POPC   H5R 5224   2.880   0.293   6.760  1.7693 -0.4360  1.0979
   39POPC   H5S 5225   2.803   0.468   6.768  0.0193  0.4230 -2.8568
   39POPC   C26 5226   2.974   0.440   6.893  0.5582 -0.2577 -0.6630
   39POPC   H6R 5227   3.003   0.547   6.895 -0.5913  0.0628 -0.2087
   39POPC   H6S 5228   3.065   0.378   6.881  1.3096  0.6538  0.2184
   39POPC   C27 5229   2.891   0.431   7.029  0.2034 -0.2090  0.6107
   39POPC   H7R 5230   2.848   0.329   7.041  2.3737 -1.1440  0.9402
   39POPC   H7S 5231   2.806   0.501   7.019  1.8467  1.6836 -0.7158
   39POPC   C28 5232   2.974   0.455   7.157 -0.4766 -0.1844  0.8599
   39POPC   H8R 5233   3.065   0.398   7.129 -1.1089  0.3458 -2.8767
   39POPC   H8S 5234   2.916   0.403   7.237 -1.8773 -0.6576 -0.4050
   39POPC   C29 5235   3.022   0.595   7.182  0.2124  1.1019  0.4366
   39POPC   H91 5236   3.087   0.633   7.101  0.4899  1.2361  0.7211
   39POPC  C210 5237   2.978   0.674   7.283  0.5408 -0.1888  0.2350
   39POPC  H101 5238   3.017   0.776   7.291  0.2957 -0.0793  0.0430
   39POPC  C211 5239   2.890   0.631   7.397 -0.2285  0.6962  0.6557
   39POPC  H11R 5240   2.878   0.520   7.392  0.3725  0.6749 -0.9955
   39POPC  H11S 5241   2.790   0.678   7.391 -0.7539 -0.4455 -0.0796
   39POPC  C212 5242   2.953   0.662   7.540 -0.3306  0.0942 -0.5916
   39POPC  H12R 5243   2.961   0.768   7.569 -0.7704 -0.5792  2.2894
   39POPC  H12S 5244   3.055   0.620   7.526  0.6700  2.6050 -1.4033
   39POPC  C213 5245   2.878   0.593   7.653  1.3435 -0.0166  0.5153
   39POPC  H13R 5246   2.870   0.483   7.636  1.5865 -0.1874  1.4734
   39POPC  H13S 5247   2.776   0.636   7.664  0.7963 -0.5102 -1.9605
   39POPC  C214 5248   2.950   0.608   7.784  0.5685 -0.5476 -0.0686
   39POPC  H14R 5249   3.058   0.622   7.763  0.6472  1.4857  1.4103
   39POPC  H14S 5250   2.944   0.515   7.846  0.2411 -0.7139 -0.3453
   39POPC  C215 5251   2.905   0.731   7.858  0.5314  0.6854 -0.3653
   39POPC  H15R 5252   2.796   0.729   7.878 -0.1650 -3.4617 -3.2831
   39POPC  H15S 5253   2.905   0.821   7.793 -1.3329  0.8369 -0.2002
   39POPC  C216 5254   2.984   0.763   7.987  0.4671  0.0315 -0.3419
   39POPC  H16R 5255   3.093   0.766   7.970  0.5557  0.6142  0.2862
   39POPC  H16S 5256   2.980   0.681   8.062  1.3753 -1.6100 -2.0253
   39POPC  C217 5257   2.932   0.902   8.031  0.0250 -0.2827 -0.1072
   39POPC  H17R 5258   2.821   0.909   8.026 -0.2280 -2.4411  1.0849
   39POPC  H17S 5259   2.975   0.972   7.957 -1.7578 -0.5480 -1.4506
   39POPC  C218 5260   2.985   0.943   8.165 -0.2723  0.2224 -0.9932
   39POPC  H18R 5261   2.950   0.871   8.242 -2.4402 -0.2336 -2.3104
   39POPC  H18S 5262   2.953   1.043   8.198  0.3858 -0.2456  1.2626
   39POPC  H18T 5263   3.096   0.936   8.168 -0.2596  0.4834  2.4372
   39POPC   C33 5264   2.665   0.731   6.859 -0.0221 -0.3635  0.8090
   39POPC   H3X 5265   2.772   0.713   6.885 -0.4243 -1.6452  1.7098
   39POPC   H3Y 5266   2.626   0.631   6.830 -1.1826 -0.3511  2.2218
   39POPC   C34 5267   2.593   0.748   6.995 -0.4298 -0.6221  0.2595
   39POPC   H4X 5268   2.578   0.647   7.039  1.0617 -0.7383  0.5683
   39POPC   H4Y 5269   2.492   0.789   6.975 -0.4801 -0.7805  0.1875
   39POPC   C35 5270   2.675   0.823   7.109 -0.8953  0.1835 -0.3415
   39POPC   H5X 5271   2.715   0.922   7.079 -0.2375 -0.2344 -0.8721
   39POPC   H5Y 5272   2.770   0.769   7.131  0.5826  3.3623  1.6946
   39POPC   C36 5273   2.595   0.846   7.237  0.7470  0.1180  0.0181
   39POPC   H6X 5274   2.565   0.748   7.281 -1.6106 -0.4207 -2.4416
   39POPC   H6Y 5275   2.496   0.891   7.212  1.6390  1.3691 -1.4436
   39POPC   C37 5276   2.667   0.938   7.340  0.4515 -0.2630 -0.5550
   39POPC   H7X 5277   2.692   1.041   7.304  3.1056 -1.1998 -1.6620
   39POPC   H7Y 5278   2.767   0.895   7.362  0.9182  1.4037  0.8124
   39POPC   C38 5279   2.584   0.943   7.470  0.4703  0.4476  0.3147
   39POPC   H8X 5280   2.551   0.838   7.486 -1.9559  1.1866  0.6358
   39POPC   H8Y 5281   2.500   1.010   7.440  0.7748 -0.4725 -2.9298
   39POPC   C39 5282   2.673   1.001   7.578 -0.0766 -0.2812 -0.4458
   39POPC   H9X 5283   2.695   1.107   7.550 -0.4848 -0.7140 -2.5368
   39POPC   H9Y 5284   2.766   0.941   7.575  1.9226  2.5176  0.6890
   39POPC  C310 5285   2.603   0.992   7.719 -0.1995 -0.4632  0.3955
   39POPC  H10X 5286   2.585   0.886   7.745  0.8442 -1.0030 -0.9397
   39POPC  H10Y 5287   2.509   1.049   7.705 -1.1134 -2.2934 -1.6677
   39POPC  C311 5288   2.680   1.049   7.838  0.9559  0.8340  0.9194
   39POPC  H11X 5289   2.780   1.001   7.845  0.9657  0.8559  0.9295
   39POPC  H11Y 5290   2.619   1.035   7.930  1.7590 -3.0356  1.0429
   39POPC  C312 5291   2.721   1.198   7.830  0.0555  0.4291 -0.4314
   39POPC  H12X 5292   2.635   1.266   7.814 -0.8847 -0.2253  1.5137
   39POPC  H12Y 5293   2.788   1.212   7.742  1.3819  1.7331  0.7482
   39POPC  C313 5294   2.788   1.236   7.954 -0.1127 -0.4876 -0.0196
   39POPC  H13X 5295   2.840   1.330   7.925  1.1816 -0.7443  1.3535
   39POPC  H13Y 5296   2.882   1.180   7.972  1.4351  1.2810 -2.0554
   39POPC  C314 5297   2.708   1.247   8.081  0.8173  0.6599 -0.1283
   39POPC  H14X 5298   2.678   1.142   8.097 -0.2331  1.2066  1.9266
   39POPC  H14Y 5299   2.618   1.307   8.054 -0.1212 -0.7017 -0.1322
   39POPC  C315 5300   2.780   1.303   8.197 -0.4359  0.2427  0.4105
   39POPC  H15X 5301   2.843   1.391   8.172  0.3664 -0.4171  0.0806
   39POPC  H15Y 5302   2.860   1.235   8.231  1.4158  1.6509 -0.8884
   39POPC  C316 5303   2.692   1.334   8.317  0.1689  0.2696 -0.0486
   39POPC  H16X 5304   2.737   1.391   8.401 -1.1420 -0.3186  1.0908
   39POPC  H16Y 5305   2.650   1.236   8.348 -0.0639  1.2022  2.8109
   39POPC  H16Z 5306   2.612   1.397   8.271  0.1703  0.3853  0.1081
   40POPC     N 5307   1.983   4.289   5.932 -0.8830 -0.4372 -0.7692
   40POPC   C12 5308   1.880   4.323   6.038  0.3383 -0.2073 -0.9039
   40POPC  H12A 5309   1.841   4.419   6.009 -0.5820 -1.1312 -2.9351
   40POPC  H12B 5310   1.932   4.348   6.129 -2.5321  1.3318  0.4532
   40POPC   C13 5311   2.048   4.414   5.892 -0.2743  0.2586  0.5157
   40POPC  H13A 5312   2.096   4.458   5.978  1.2830 -0.1882 -0.0994
   40POPC  H13B 5313   2.126   4.394   5.821  0.5878  1.6110  1.0417
   40POPC  H13C 5314   1.980   4.486   5.848  0.9057  0.6564 -0.7311
   40POPC   C14 5315   2.092   4.195   5.987 -0.0817 -0.2207  0.1962
   40POPC  H14A 5316   2.158   4.167   5.906  1.2214 -0.4268  1.2850
   40POPC  H14B 5317   2.149   4.251   6.060 -1.3275  1.9784 -0.4244
   40POPC  H14C 5318   2.062   4.106   6.039  2.9009  0.2907  3.1518
   40POPC   C15 5319   1.915   4.223   5.814  0.0861  0.3765 -0.2831
   40POPC  H15A 5320   1.852   4.298   5.770 -0.6102  0.2679  0.4998
   40POPC  H15B 5321   1.848   4.145   5.848  0.1508  0.0696 -0.8513
   40POPC  H15C 5322   1.976   4.188   5.733  0.1887  1.1956 -0.5613
   40POPC   C11 5323   1.751   4.242   6.075 -0.0143  0.0793 -0.0403
   40POPC  H11A 5324   1.687   4.234   5.984  2.4300 -0.2114 -1.8312
   40POPC  H11B 5325   1.689   4.297   6.149  0.3847 -0.0274  0.3765
   40POPC     P 5326   1.820   4.084   6.270  0.1848  0.1204  0.1317
   40POPC   O13 5327   1.945   4.160   6.295 -0.5101 -0.2921  0.4970
   40POPC   O14 5328   1.822   3.935   6.297 -0.1854  0.0803  0.0628
   40POPC   O12 5329   1.779   4.112   6.120  0.8144  0.0046 -0.2171
   40POPC   O11 5330   1.698   4.152   6.336 -0.5945 -1.0567 -0.1296
   40POPC    C1 5331   1.675   4.149   6.475 -0.5996 -0.0117  0.7399
   40POPC    HA 5332   1.691   4.044   6.508  0.5228 -0.3412 -0.7558
   40POPC    HB 5333   1.570   4.181   6.488 -0.9195 -1.2811  1.4298
   40POPC    C2 5334   1.771   4.247   6.554 -0.3654 -0.5472 -0.6916
   40POPC    HS 5335   1.875   4.212   6.535  0.0584  0.2877  0.0105
   40POPC   O21 5336   1.732   4.241   6.691  0.1257 -0.1717 -0.1572
   40POPC   C21 5337   1.829   4.256   6.781 -0.1200 -1.0458  0.3574
   40POPC   O22 5338   1.947   4.252   6.758  0.5207 -0.2092  0.1061
   40POPC   C22 5339   1.774   4.277   6.923  0.0504 -0.6251 -0.0676
   40POPC   H2R 5340   1.849   4.237   6.995 -0.1235 -0.0722  0.4291
   40POPC   H2S 5341   1.685   4.216   6.952  0.7944 -1.1765  1.1483
   40POPC    C3 5342   1.781   4.399   6.511  0.3808  0.3904 -0.0427
   40POPC    HX 5343   1.678   4.436   6.528  0.7456  1.0350  0.8668
   40POPC    HY 5344   1.798   4.398   6.401 -0.5455  2.3353 -0.2565
   40POPC   O31 5345   1.882   4.475   6.582  0.2505  0.0663  0.7265
   40POPC   C31 5346   1.848   4.596   6.604 -0.4341  0.6420 -0.6234
   40POPC   O32 5347   1.744   4.648   6.577  0.1992 -0.0945 -0.2681
   40POPC   C32 5348   1.960   4.680   6.663 -0.6015  1.0090  0.8419
   40POPC   H2X 5349   2.042   4.668   6.590 -1.5360 -0.2523 -0.0565
   40POPC   H2Y 5350   1.998   4.630   6.755  0.7915 -0.5635 -0.5316
   40POPC   C23 5351   1.752   4.426   6.948 -0.2217 -0.0756  0.2844
   40POPC   H3R 5352   1.681   4.448   6.865 -0.6380 -2.9537 -0.2282
   40POPC   H3S 5353   1.845   4.485   6.940 -0.1299 -0.3029 -0.4127
   40POPC   C24 5354   1.680   4.461   7.085  0.3643 -0.2189 -0.7833
   40POPC   H4R 5355   1.580   4.412   7.081  0.4516 -0.4776 -0.0151
   40POPC   H4S 5356   1.653   4.568   7.077 -1.7301 -0.6918 -0.6945
   40POPC   C25 5357   1.765   4.429   7.207  0.2755  0.2551  0.3803
   40POPC   H5R 5358   1.854   4.495   7.206 -0.5092  1.3781  1.6068
   40POPC   H5S 5359   1.796   4.323   7.215  0.7916  0.3813  0.1040
   40POPC   C26 5360   1.679   4.469   7.335  0.2694  0.6234  0.3447
   40POPC   H6R 5361   1.588   4.407   7.331  0.5539 -0.0108  2.5143
   40POPC   H6S 5362   1.653   4.576   7.324 -0.5476  0.3186 -0.9228
   40POPC   C27 5363   1.745   4.421   7.466 -0.8023  0.2015  0.5659
   40POPC   H7R 5364   1.855   4.436   7.459 -0.4062 -2.9938 -2.6756
   40POPC   H7S 5365   1.737   4.311   7.476 -2.7434 -0.0445 -2.5126
   40POPC   C28 5366   1.681   4.502   7.582  0.4784  0.0042 -0.2887
   40POPC   H8R 5367   1.666   4.605   7.542  0.8983 -0.2300 -1.0779
   40POPC   H8S 5368   1.736   4.510   7.678  0.3526  0.5295 -0.2562
   40POPC   C29 5369   1.556   4.426   7.615 -0.1508  0.1861 -0.2899
   40POPC   H91 5370   1.473   4.438   7.545  0.9701  2.6774 -1.2912
   40POPC  C210 5371   1.537   4.342   7.722 -0.1432  0.2469 -0.0272
   40POPC  H101 5372   1.442   4.288   7.730  1.3513 -2.3947  1.3429
   40POPC  C211 5373   1.634   4.322   7.841 -0.1555 -0.7820  0.6320
   40POPC  H11R 5374   1.710   4.402   7.841  0.3547 -1.2575  0.2206
   40POPC  H11S 5375   1.691   4.228   7.827 -0.6079 -1.0409  0.4898
   40POPC  C212 5376   1.558   4.300   7.976 -0.4480 -0.2026 -0.5655
   40POPC  H12R 5377   1.641   4.274   8.044  0.6599 -1.4261 -2.3137
   40POPC  H12S 5378   1.506   4.203   7.962  0.2202 -0.7622  0.7001
   40POPC  C213 5379   1.468   4.419   8.022  0.0770 -0.3676  0.5048
   40POPC  H13R 5380   1.452   4.410   8.131 -1.1925 -2.8297  0.1901
   40POPC  H13S 5381   1.372   4.417   7.966  0.7947 -1.2108 -0.7614
   40POPC  C214 5382   1.524   4.561   7.987 -0.6410 -0.7011 -0.0454
   40POPC  H14R 5383   1.565   4.558   7.883  1.5247  1.7265  0.6368
   40POPC  H14S 5384   1.605   4.593   8.057  0.0496 -0.2075 -1.0392
   40POPC  C215 5385   1.409   4.669   7.974 -0.7032  0.6324  1.0882
   40POPC  H15R 5386   1.322   4.623   7.923  0.9153 -0.5901 -0.7658
   40POPC  H15S 5387   1.453   4.749   7.910 -1.4541  0.1573 -0.0601
   40POPC  C216 5388   1.376   4.736   8.110 -0.5099  0.5018 -0.0647
   40POPC  H16R 5389   1.466   4.722   8.174 -0.8485  0.6276  0.4478
   40POPC  H16S 5390   1.301   4.663   8.148  1.2755 -2.2128 -1.3741
   40POPC  C217 5391   1.345   4.883   8.103 -0.0914 -0.5068 -0.2358
   40POPC  H17R 5392   1.258   4.904   8.037 -0.7383 -1.1303  0.3957
   40POPC  H17S 5393   1.433   4.934   8.060  0.1176  0.2053  0.9901
   40POPC  C218 5394   1.307   4.948   8.235 -0.3969 -1.0068 -0.0838
   40POPC  H18R 5395   1.202   4.917   8.255  0.1302 -2.4399  0.5585
   40POPC  H18S 5396   1.300   5.059   8.225  0.8228 -0.9727 -0.6349
   40POPC  H18T 5397   1.386   4.941   8.312  0.6376 -0.8984 -1.1163
   40POPC   C33 5398   1.918   4.823   6.669 -0.0979 -0.3862 -0.4451
   40POPC   H3X 5399   1.877   4.850   6.570  2.0907  0.2965 -1.2111
   40POPC   H3Y 5400   2.012   4.882   6.676  0.1828 -1.0128  2.3484
   40POPC   C34 5401   1.820   4.862   6.779 -0.5025  0.5671  0.3929
   40POPC   H4X 5402   1.719   4.816   6.774  0.0441 -0.5991 -0.5651
   40POPC   H4Y 5403   1.792   4.968   6.766  0.8439  1.2581  2.6199
   40POPC   C35 5404   1.881   4.844   6.922 -0.6640  0.0291 -0.1314
   40POPC   H5X 5405   1.954   4.927   6.932 -1.4169  0.6116  0.7456
   40POPC   H5Y 5406   1.925   4.744   6.941 -2.5127 -0.5582  1.4325
   40POPC   C36 5407   1.781   4.853   7.036 -0.1029  0.9088  0.4055
   40POPC   H6X 5408   1.706   4.771   7.032  0.5506  0.2299  1.4727
   40POPC   H6Y 5409   1.719   4.944   7.027 -2.2473 -0.6257 -1.3524
   40POPC   C37 5410   1.849   4.849   7.166 -0.1801  0.2237 -0.4991
   40POPC   H7X 5411   1.927   4.927   7.174 -0.5218  0.7104 -1.6856
   40POPC   H7Y 5412   1.899   4.756   7.199 -0.1946  0.6389  0.7348
   40POPC   C38 5413   1.749   4.872   7.286  0.8197 -0.6654  0.3234
   40POPC   H8X 5414   1.664   4.802   7.275 -0.1304  0.3661  0.8999
   40POPC   H8Y 5415   1.697   4.969   7.270  0.9730 -0.6737 -0.2609
   40POPC   C39 5416   1.821   4.881   7.422  0.0858  0.6533  0.2805
   40POPC   H9X 5417   1.902   4.956   7.413 -0.2365  0.9590 -0.0875
   40POPC   H9Y 5418   1.873   4.783   7.432 -0.3933  0.4096  0.3838
   40POPC  C310 5419   1.735   4.900   7.553 -0.0395 -0.3870  0.5272
   40POPC  H10X 5420   1.662   4.817   7.561  1.0556 -1.3411  0.9647
   40POPC  H10Y 5421   1.689   5.000   7.545 -0.2566 -0.5413 -0.1792
   40POPC  C311 5422   1.807   4.899   7.682 -0.4280 -0.1068 -0.0098
   40POPC  H11X 5423   1.871   4.988   7.699  0.2008 -1.0200  3.2024
   40POPC  H11Y 5424   1.872   4.809   7.690 -1.5105 -1.2571 -2.9324
   40POPC  C312 5425   1.714   4.891   7.804  0.8333  0.2599 -0.1371
   40POPC  H12X 5426   1.666   4.792   7.807 -0.2693  0.7889  0.2785
   40POPC  H12Y 5427   1.639   4.973   7.805 -0.1361 -0.5946 -1.0229
   40POPC  C313 5428   1.801   4.895   7.932 -0.4731  0.3837  0.1923
   40POPC  H13X 5429   1.868   4.984   7.930 -0.3001  0.2698  0.7398
   40POPC  H13Y 5430   1.857   4.799   7.931 -1.9181 -0.4803 -1.0006
   40POPC  C314 5431   1.724   4.890   8.059 -0.1569  0.1994 -0.9333
   40POPC  H14X 5432   1.767   4.826   8.139 -0.8839  0.1944 -0.5311
   40POPC  H14Y 5433   1.625   4.845   8.037  0.9716 -2.1363 -1.5271
   40POPC  C315 5434   1.718   5.027   8.125  0.4736 -0.3617 -0.6499
   40POPC  H15X 5435   1.645   5.014   8.207 -0.6122  1.2778 -1.3113
   40POPC  H15Y 5436   1.671   5.098   8.054  0.5872  0.6134  0.2285
   40POPC  C316 5437   1.838   5.108   8.181  0.7785 -0.2103 -0.0753
   40POPC  H16X 5438   1.902   5.037   8.237 -1.0899 -0.8069  1.4024
   40POPC  H16Y 5439   1.809   5.190   8.251  2.0064 -0.7333  1.0669
   40POPC  H16Z 5440   1.879   5.157   8.090 -2.0580  1.6965 -0.4880
   41CHL1    C3 5441   6.475   1.867  10.065 -0.0108  0.3263 -0.2535
   41CHL1    H3 5442   6.472   1.976  10.048 -1.3997  0.2733 -0.4861
   41CHL1    O3 5443   6.471   1.842  10.206  0.4862 -0.1710  0.4063
   41CHL1   H3' 5444   6.383   1.867  10.235  1.0910  2.8318  0.0014
   41CHL1    C4 5445   6.354   1.806   9.986 -0.2165  0.0324  0.3633
   41CHL1   H4A 5446   6.357   1.699  10.014  1.0968  0.0477  0.3453
   41CHL1   H4B 5447   6.261   1.853  10.024  0.3595 -1.6768  4.3780
   41CHL1    C5 5448   6.368   1.821   9.836  0.4202 -0.2201 -0.6175
   41CHL1    C6 5449   6.269   1.868   9.768  0.5386  0.2059  0.5570
   41CHL1    H6 5450   6.179   1.888   9.827  1.0205  0.0740  1.3554
   41CHL1    C7 5451   6.265   1.892   9.617  0.3156 -0.0503  0.5224
   41CHL1   H7A 5452   6.175   1.859   9.561  2.9887  0.3809 -4.5888
   41CHL1   H7B 5453   6.266   2.002   9.606  0.4139 -0.0804  0.2348
   41CHL1    C8 5454   6.376   1.821   9.553 -0.7363  0.0054  0.5676
   41CHL1    H8 5455   6.342   1.715   9.545  0.3416 -0.3457  0.4887
   41CHL1   C14 5456   6.392   1.870   9.408  0.1459  0.4762  0.3131
   41CHL1   H14 5457   6.429   1.975   9.404 -1.1068  0.8968 -0.9843
   41CHL1   C15 5458   6.273   1.869   9.313  0.2857 -0.9948 -0.7468
   41CHL1  H15A 5459   6.232   1.766   9.326 -0.8145 -0.5415 -0.4858
   41CHL1  H15B 5460   6.194   1.942   9.344 -0.4128 -2.4034  1.0014
   41CHL1   C16 5461   6.326   1.898   9.162 -0.0349 -0.1252 -0.6175
   41CHL1  H16A 5462   6.273   1.830   9.091  0.2129  0.4569 -1.3750
   41CHL1  H16B 5463   6.319   2.001   9.120 -0.8741  0.4832  0.9371
   41CHL1   C17 5464   6.480   1.864   9.176  0.4031 -0.9023  0.2747
   41CHL1   H17 5465   6.529   1.963   9.184  0.2192 -0.9392  2.3883
   41CHL1   C13 5466   6.500   1.799   9.318  0.5321  0.4727  0.0841
   41CHL1   C18 5467   6.466   1.646   9.302  0.0115 -0.1418  0.0290
   41CHL1  H18A 5468   6.457   1.596   9.401 -0.4299 -0.8147 -0.3478
   41CHL1  H18B 5469   6.370   1.632   9.248 -1.1630 -0.0961  1.9846
   41CHL1  H18C 5470   6.554   1.592   9.260  0.3230  0.2367  0.1818
   41CHL1   C12 5471   6.630   1.819   9.393 -0.4789 -0.5262  0.8441
   41CHL1  H12A 5472   6.701   1.751   9.341 -1.9163 -0.4055 -1.3647
   41CHL1  H12B 5473   6.662   1.924   9.381  4.2863 -1.7408  0.7465
   41CHL1   C11 5474   6.627   1.777   9.542 -0.8711  0.6487  0.0759
   41CHL1  H11A 5475   6.608   1.668   9.551  0.2104  0.4382 -0.0788
   41CHL1  H11B 5476   6.718   1.810   9.597 -0.6554 -1.6973  1.2789
   41CHL1    C9 5477   6.504   1.834   9.625 -0.3804  0.2781 -0.3593
   41CHL1    H9 5478   6.531   1.941   9.636  2.1531 -0.1374 -1.8002
   41CHL1   C10 5479   6.496   1.781   9.778 -0.3364 -0.2879  0.6426
   41CHL1   C19 5480   6.509   1.629   9.777  0.1112 -0.4467  0.6644
   41CHL1  H19A 5481   6.454   1.576   9.697  0.3012  0.7421 -0.2834
   41CHL1  H19B 5482   6.613   1.597   9.753  0.6866 -0.1832  2.6172
   41CHL1  H19C 5483   6.487   1.587   9.877 -0.7427 -0.6612  0.3919
   41CHL1    C1 5484   6.612   1.844   9.857 -0.1394  1.1766  0.1878
   41CHL1   H1A 5485   6.706   1.810   9.810 -0.6664  0.4855 -0.4036
   41CHL1   H1B 5486   6.606   1.955   9.849  0.6785  1.2636  0.6923
   41CHL1    C2 5487   6.614   1.816  10.009  0.1152 -0.1240 -0.6165
   41CHL1   H2A 5488   6.705   1.862  10.053 -0.9261  2.2528 -0.7969
   41CHL1   H2B 5489   6.620   1.707  10.032  2.5994 -0.0560 -0.7373
   41CHL1   C20 5490   6.543   1.801   9.052 -0.1697 -0.1108  0.2263
   41CHL1   H20 5491   6.528   1.692   9.047  0.1297 -0.1162 -0.8043
   41CHL1   C21 5492   6.697   1.833   9.050  0.4232 -0.2148  0.4184
   41CHL1  H21A 5493   6.762   1.767   8.987  0.4890  0.7845 -0.6030
   41CHL1  H21B 5494   6.725   1.847   9.156 -1.2639  0.0902  0.8498
   41CHL1  H21C 5495   6.703   1.937   9.013  0.7651 -0.4383 -0.1822
   41CHL1   C22 5496   6.489   1.865   8.918 -0.1029  1.1190  0.2747
   41CHL1  H22A 5497   6.383   1.834   8.906  0.5365 -1.1048 -0.0208
   41CHL1  H22B 5498   6.505   1.975   8.916  0.9528  0.9791 -1.8538
   41CHL1   C23 5499   6.553   1.811   8.784  0.4344 -0.0708 -0.0377
   41CHL1  H23A 5500   6.653   1.858   8.773  1.1594 -0.5396  3.4688
   41CHL1  H23B 5501   6.575   1.702   8.792  0.4712 -0.0417  0.2743
   41CHL1   C24 5502   6.451   1.831   8.665 -0.4158  0.6028 -0.3617
   41CHL1  H24A 5503   6.499   1.775   8.583 -1.3956 -0.5593 -0.1617
   41CHL1  H24B 5504   6.360   1.769   8.679 -0.5103  0.6263 -0.8655
   41CHL1   C25 5505   6.409   1.966   8.621 -0.6410  0.6731 -0.2638
   41CHL1   H25 5506   6.397   2.029   8.712 -0.4538 -0.0070  0.2319
   41CHL1   C26 5507   6.512   2.025   8.520 -0.1096 -0.2732 -0.1148
   41CHL1  H26A 5508   6.604   2.062   8.570 -0.8748  1.6282 -0.0329
   41CHL1  H26B 5509   6.529   1.948   8.441 -0.9938 -1.1442  0.5262
   41CHL1  H26C 5510   6.470   2.114   8.469  0.1956 -0.2625 -0.3543
   41CHL1   C27 5511   6.276   1.954   8.540 -0.1992  0.1173 -0.1090
   41CHL1  H27A 5512   6.264   2.064   8.527  2.3454  0.4560 -0.0861
   41CHL1  H27B 5513   6.294   1.900   8.445  2.9553 -0.9738  0.9685
   41CHL1  H27C 5514   6.198   1.914   8.608 -1.4829  1.8648 -0.4725
   42CHL1    C3 5515   6.675   0.616   9.789  0.8312  0.4738 -0.0811
   42CHL1    H3 5516   6.753   0.690   9.761 -0.9051  1.2728 -3.3137
   42CHL1    O3 5517   6.668   0.604   9.933 -0.3570 -0.2303  0.4266
   42CHL1   H3' 5518   6.595   0.554   9.970 -0.0277 -0.4836  0.7378
   42CHL1    C4 5519   6.543   0.663   9.725  0.0994 -0.3566 -0.4064
   42CHL1   H4A 5520   6.472   0.600   9.782  2.1644 -2.3118  0.1500
   42CHL1   H4B 5521   6.523   0.767   9.757 -0.7863 -0.8905  0.9039
   42CHL1    C5 5522   6.521   0.645   9.580 -0.3812 -0.6089  0.0873
   42CHL1    C6 5523   6.465   0.733   9.495 -0.1749  0.3440  0.6911
   42CHL1    H6 5524   6.429   0.829   9.534  2.4885  2.4488 -1.6103
   42CHL1    C7 5525   6.438   0.706   9.347 -0.6320  0.5188  0.0721
   42CHL1   H7A 5526   6.330   0.732   9.337 -1.2755  0.0364  4.1439
   42CHL1   H7B 5527   6.497   0.769   9.276 -1.1890  1.4080  0.3874
   42CHL1    C8 5528   6.458   0.558   9.302  0.4170 -0.7569  0.4108
   42CHL1    H8 5529   6.364   0.507   9.332 -0.6527  0.5492 -0.5531
   42CHL1   C14 5530   6.472   0.549   9.148  0.2051  0.1342  0.4430
   42CHL1   H14 5531   6.569   0.603   9.139 -0.1699  0.8385  0.5165
   42CHL1   C15 5532   6.368   0.617   9.064 -0.5586 -0.2763  0.0781
   42CHL1  H15A 5533   6.265   0.589   9.098 -0.8930  1.5511  0.7123
   42CHL1  H15B 5534   6.391   0.726   9.062  1.9562 -0.7618 -2.0712
   42CHL1   C16 5535   6.387   0.552   8.925 -0.0435  0.2446  1.2293
   42CHL1  H16A 5536   6.292   0.509   8.885 -0.1450  2.1529 -0.7690
   42CHL1  H16B 5537   6.414   0.637   8.860  0.6680 -1.5408 -0.9529
   42CHL1   C17 5538   6.501   0.443   8.934  0.0324 -0.1562  0.3923
   42CHL1   H17 5539   6.602   0.485   8.915 -0.1152 -0.8996 -2.4471
   42CHL1   C13 5540   6.498   0.407   9.087  0.3004  0.2107 -0.1870
   42CHL1   C18 5541   6.371   0.323   9.117  0.0577  0.4017  0.0027
   42CHL1  H18A 5542   6.389   0.218   9.085  1.1622 -0.4586  3.0964
   42CHL1  H18B 5543   6.363   0.303   9.226  2.9075  0.7020  0.3320
   42CHL1  H18C 5544   6.281   0.366   9.068 -0.2812 -0.4961 -0.1801
   42CHL1   C12 5545   6.619   0.357   9.153  0.2697 -0.1359  0.0661
   42CHL1  H12A 5546   6.616   0.246   9.142 -0.3574 -0.1748  0.6324
   42CHL1  H12B 5547   6.711   0.394   9.102 -0.7186  0.2985 -1.4738
   42CHL1   C11 5548   6.628   0.373   9.308  0.3070  0.3441  0.3180
   42CHL1  H11A 5549   6.583   0.276   9.340  1.2198 -0.4335 -0.6705
   42CHL1  H11B 5550   6.739   0.364   9.316  0.3165  1.0107  1.0740
   42CHL1    C9 5551   6.578   0.506   9.366 -0.4745  0.1220  0.2942
   42CHL1    H9 5552   6.659   0.577   9.338 -1.3418  0.1706 -2.2635
   42CHL1   C10 5553   6.564   0.508   9.522 -0.3774 -0.0960  0.4030
   42CHL1   C19 5554   6.474   0.391   9.565  0.4310  0.0292  0.4109
   42CHL1  H19A 5555   6.371   0.394   9.524  0.3275 -1.5156  0.4991
   42CHL1  H19B 5556   6.509   0.291   9.532 -1.2683 -1.4024  2.6486
   42CHL1  H19C 5557   6.456   0.385   9.674 -1.0038  0.4511  0.2178
   42CHL1    C1 5558   6.698   0.487   9.590 -0.1552 -0.1912  0.8043
   42CHL1   H1A 5559   6.745   0.392   9.554  1.0562  0.4924  0.5380
   42CHL1   H1B 5560   6.765   0.570   9.562  2.1463 -2.6452 -1.6054
   42CHL1    C2 5561   6.701   0.474   9.745 -0.2344 -0.5520 -0.1537
   42CHL1   H2A 5562   6.807   0.458   9.775 -0.2752  0.5591  0.6419
   42CHL1   H2B 5563   6.636   0.391   9.783  0.1482 -0.9269 -0.3138
   42CHL1   C20 5564   6.491   0.338   8.833 -0.1701  0.4348 -1.2200
   42CHL1   H20 5565   6.391   0.295   8.853 -0.0998  1.4729  1.8410
   42CHL1   C21 5566   6.589   0.211   8.839 -0.1925 -0.1452 -0.0024
   42CHL1  H21A 5567   6.562   0.143   8.756  1.3966 -0.0550 -0.6248
   42CHL1  H21B 5568   6.588   0.168   8.942  0.9243 -0.3789 -0.0801
   42CHL1  H21C 5569   6.690   0.251   8.819 -0.8055  1.4730 -0.0393
   42CHL1   C22 5570   6.492   0.391   8.686 -0.7032  0.5061 -0.2741
   42CHL1  H22A 5571   6.417   0.472   8.669 -1.0664  0.0094 -1.0853
   42CHL1  H22B 5572   6.592   0.436   8.673 -1.7629  2.6780 -1.5185
   42CHL1   C23 5573   6.455   0.296   8.569 -0.7502  0.1150  0.3891
   42CHL1  H23A 5574   6.454   0.360   8.478 -2.2706 -0.1929  0.1626
   42CHL1  H23B 5575   6.524   0.209   8.561 -0.7631  0.1078  0.3609
   42CHL1   C24 5576   6.326   0.220   8.585  0.4250  0.4242 -0.7081
   42CHL1  H24A 5577   6.324   0.154   8.675  0.2798  0.6155 -0.5697
   42CHL1  H24B 5578   6.248   0.298   8.597  0.7525  0.8495 -1.2744
   42CHL1   C25 5579   6.280   0.122   8.470 -0.8191 -0.3288 -0.3238
   42CHL1   H25 5580   6.362   0.049   8.461  0.2568  0.8253 -0.1843
   42CHL1   C26 5581   6.151   0.038   8.494 -0.0517 -0.0098 -0.0032
   42CHL1  H26A 5582   6.177  -0.035   8.573  0.4822 -1.3394 -1.3586
   42CHL1  H26B 5583   6.061   0.097   8.519  0.5982  1.7613 -1.5638
   42CHL1  H26C 5584   6.137  -0.012   8.396 -0.5412 -2.0759  1.0652
   42CHL1   C27 5585   6.265   0.192   8.340 -0.3244  0.0648 -0.1457
   42CHL1  H27A 5586   6.165   0.240   8.335 -1.3127 -1.9739 -1.0820
   42CHL1  H27B 5587   6.343   0.267   8.316  2.1312 -1.9224  1.1645
   42CHL1  H27C 5588   6.279   0.113   8.263  1.8017  0.5418 -0.3003
   43CHL1    C3 5589   0.101   2.033   9.789  0.4543 -0.8659 -0.0243
   43CHL1    H3 5590  -0.001   2.004   9.756  0.7777 -0.2096 -1.7037
   43CHL1    O3 5591   0.116   2.045   9.928 -0.4190  0.6331  0.5605
   43CHL1   H3' 5592   0.115   2.136   9.957  2.1909  1.1964 -0.7903
   43CHL1    C4 5593   0.195   1.926   9.740 -0.3243 -0.4295  0.0267
   43CHL1   H4A 5594   0.298   1.947   9.777  0.1284  2.2118 -2.3287
   43CHL1   H4B 5595   0.154   1.834   9.786 -1.1097  0.0019  0.2081
   43CHL1    C5 5596   0.201   1.925   9.589 -0.4913 -0.2465  0.7404
   43CHL1    C6 5597   0.162   1.810   9.521 -0.5000 -0.3551 -0.3479
   43CHL1    H6 5598   0.118   1.724   9.574 -1.9517  0.4940 -0.1205
   43CHL1    C7 5599   0.163   1.796   9.371  0.4269 -0.9446  0.6690
   43CHL1   H7A 5600   0.208   1.696   9.352 -0.3803 -1.0182 -1.0520
   43CHL1   H7B 5601   0.059   1.788   9.331  1.4121 -0.6810 -2.1605
   43CHL1    C8 5602   0.235   1.920   9.297  0.4213 -0.9444 -0.1550
   43CHL1    H8 5603   0.346   1.915   9.307  0.5373  0.4590 -0.6523
   43CHL1   C14 5604   0.198   1.926   9.150 -0.0640 -0.3172  0.1521
   43CHL1   H14 5605   0.088   1.941   9.145  0.0250  0.1463 -0.5127
   43CHL1   C15 5606   0.215   1.801   9.064 -0.0222 -0.3015  0.1191
   43CHL1  H15A 5607   0.318   1.761   9.075 -0.3785 -0.8302  1.6975
   43CHL1  H15B 5608   0.136   1.728   9.089  0.2344 -0.8050 -0.4990
   43CHL1   C16 5609   0.208   1.848   8.915  0.2711 -1.0617  0.9189
   43CHL1  H16A 5610   0.294   1.814   8.853 -0.3810  0.9050 -1.1981
   43CHL1  H16B 5611   0.113   1.810   8.871 -0.4449  0.3979  1.1792
   43CHL1   C17 5612   0.193   2.010   8.924  0.1644 -0.1646  0.0755
   43CHL1   H17 5613   0.082   2.015   8.920  0.1680  0.3064  0.4567
   43CHL1   C13 5614   0.243   2.037   9.069 -0.5134 -0.9009 -0.4108
   43CHL1   C18 5615   0.398   2.046   9.065 -0.5349 -0.4360  0.4954
   43CHL1  H18A 5616   0.432   1.953   9.016  1.2465  1.0908 -1.3501
   43CHL1  H18B 5617   0.442   2.133   9.011 -0.9478  0.1801  1.1231
   43CHL1  H18C 5618   0.457   2.045   9.159 -0.1830 -2.4973  0.2845
   43CHL1   C12 5619   0.185   2.167   9.136 -0.9095  0.0388  0.0374
   43CHL1  H12A 5620   0.236   2.256   9.095 -0.0015 -0.3267  0.3479
   43CHL1  H12B 5621   0.075   2.181   9.134 -0.8698  0.2643 -0.4570
   43CHL1   C11 5622   0.226   2.179   9.284 -0.8201 -0.8713  0.3367
   43CHL1  H11A 5623   0.333   2.206   9.290 -1.4151  1.5020  1.3567
   43CHL1  H11B 5624   0.183   2.270   9.332  0.9714  0.0046  0.3608
   43CHL1    C9 5625   0.190   2.054   9.366  0.2974  0.1495  0.3623
   43CHL1    H9 5626   0.079   2.055   9.362  0.2737 -0.2027  0.8224
   43CHL1   C10 5627   0.225   2.064   9.515 -0.1335  0.2776 -0.5202
   43CHL1   C19 5628   0.372   2.095   9.541 -0.1766 -0.0869 -0.1428
   43CHL1  H19A 5629   0.410   2.092   9.645  1.3986 -1.7623 -0.7022
   43CHL1  H19B 5630   0.428   2.018   9.483  0.7711 -0.5394  1.3223
   43CHL1  H19C 5631   0.392   2.196   9.498  0.3098  0.3435  1.0612
   43CHL1    C1 5632   0.125   2.161   9.577 -0.0983 -0.0842 -0.0889
   43CHL1   H1A 5633   0.140   2.268   9.549  2.9362  0.3573  2.5995
   43CHL1   H1B 5634   0.024   2.127   9.546  0.5661 -2.0299 -0.2599
   43CHL1    C2 5635   0.135   2.171   9.727 -0.0831 -0.1190  0.2133
   43CHL1   H2A 5636   0.061   2.246   9.761  2.4109  2.0443  1.2919
   43CHL1   H2B 5637   0.230   2.208   9.771  0.8892 -3.2267  1.0027
   43CHL1   C20 5638   0.249   2.081   8.800 -0.3482  0.1920  0.0370
   43CHL1   H20 5639   0.358   2.059   8.800 -0.0049  1.7865  0.0179
   43CHL1   C21 5640   0.232   2.227   8.802  0.1950  0.4911  0.4257
   43CHL1  H21A 5641   0.304   2.260   8.880 -0.0888 -0.1474  0.9591
   43CHL1  H21B 5642   0.131   2.250   8.840 -0.2607 -0.6938 -0.0303
   43CHL1  H21C 5643   0.259   2.273   8.704  1.2058 -0.2849  0.3210
   43CHL1   C22 5644   0.205   2.017   8.667  0.2023  0.3403  0.9800
   43CHL1  H22A 5645   0.267   2.075   8.595 -0.6172  0.5441  0.4266
   43CHL1  H22B 5646   0.239   1.912   8.665 -0.5118 -0.0179  3.9651
   43CHL1   C23 5647   0.059   2.018   8.614  0.2128 -0.1134  0.5478
   43CHL1  H23A 5648  -0.001   1.957   8.685  0.0255 -0.8664 -0.2430
   43CHL1  H23B 5649   0.015   2.118   8.597  0.6283 -0.3372 -2.3667
   43CHL1   C24 5650   0.055   1.953   8.473  0.5291 -0.4402 -0.3560
   43CHL1  H24A 5651   0.132   1.872   8.474  0.1866 -0.9012  3.0993
   43CHL1  H24B 5652  -0.041   1.898   8.468  1.4223 -2.1343  0.1073
   43CHL1   C25 5653   0.064   2.039   8.348  0.0152 -0.0476 -0.2614
   43CHL1   H25 5654   0.068   1.957   8.273 -0.5028 -3.8784  3.5281
   43CHL1   C26 5655  -0.072   2.105   8.321 -0.3333 -0.2113 -0.5632
   43CHL1  H26A 5656  -0.071   2.164   8.227  4.3455  0.6939 -0.1815
   43CHL1  H26B 5657  -0.142   2.020   8.304  0.4095 -1.0381  0.3589
   43CHL1  H26C 5658  -0.099   2.161   8.413  1.1145 -0.7432  0.2165
   43CHL1   C27 5659   0.188   2.141   8.347 -0.5933 -1.3426  0.0712
   43CHL1  H27A 5660   0.165   2.204   8.435  0.1944  0.5365 -1.0121
   43CHL1  H27B 5661   0.286   2.092   8.365  0.7448  0.9711 -0.4786
   43CHL1  H27C 5662   0.199   2.192   8.249  0.5748  0.0786  0.8880
   44CHL1    C3 5663   0.553   2.505  10.142 -0.0450  0.6718 -0.9465
   44CHL1    H3 5664   0.472   2.434  10.116  1.8452 -1.4411 -1.4350
   44CHL1    O3 5665   0.566   2.505  10.285 -0.0057  0.2097  0.4992
   44CHL1   H3' 5666   0.583   2.595  10.312  2.0284 -1.0250  3.9431
   44CHL1    C4 5667   0.685   2.443  10.078 -0.3270 -0.7520  0.5250
   44CHL1   H4A 5668   0.777   2.501  10.100 -1.4784  0.5400  2.2507
   44CHL1   H4B 5669   0.708   2.343  10.121 -1.2517 -1.0382  0.3829
   44CHL1    C5 5670   0.663   2.426   9.931  0.0507 -0.0092  0.8820
   44CHL1    C6 5671   0.670   2.304   9.883  0.4507  0.1085 -1.0256
   44CHL1    H6 5672   0.700   2.218   9.944  0.9161 -0.9674 -2.7265
   44CHL1    C7 5673   0.655   2.280   9.737 -0.1312  0.3674 -0.8681
   44CHL1   H7A 5674   0.730   2.206   9.701  0.8980  0.6133  0.6764
   44CHL1   H7B 5675   0.559   2.226   9.722 -0.0734  0.2907 -0.9646
   44CHL1    C8 5676   0.676   2.409   9.654  0.1643 -0.1378 -0.3034
   44CHL1    H8 5677   0.782   2.436   9.668  0.6553 -1.9959 -0.1082
   44CHL1   C14 5678   0.641   2.382   9.512 -0.2429 -0.6984  0.3836
   44CHL1   H14 5679   0.531   2.369   9.504 -0.0126 -2.1968 -1.0039
   44CHL1   C15 5680   0.708   2.258   9.442  0.0697  0.4771 -0.0633
   44CHL1  H15A 5681   0.816   2.264   9.468  0.1327 -3.1124  1.0647
   44CHL1  H15B 5682   0.658   2.168   9.485 -0.8541  0.3305 -1.3894
   44CHL1   C16 5683   0.680   2.277   9.294  0.0326 -0.3337  0.7075
   44CHL1  H16A 5684   0.782   2.266   9.251  1.4896  1.0665  3.5110
   44CHL1  H16B 5685   0.613   2.199   9.252  0.0555 -0.4440  0.8715
   44CHL1   C17 5686   0.629   2.424   9.278 -0.3980  0.7786 -0.4971
   44CHL1   H17 5687   0.518   2.412   9.274 -0.6915  2.2498  1.5460
   44CHL1   C13 5688   0.654   2.504   9.414  0.4875 -0.3604  0.0819
   44CHL1   C18 5689   0.797   2.557   9.415  0.1490 -0.2469  0.6035
   44CHL1  H18A 5690   0.827   2.591   9.516  0.9311  0.3932  0.1770
   44CHL1  H18B 5691   0.872   2.484   9.380 -0.3491  0.2859 -1.7670
   44CHL1  H18C 5692   0.810   2.643   9.344 -0.9475 -0.8210 -0.3389
   44CHL1   C12 5693   0.555   2.614   9.462 -0.5135  0.0752  0.2230
   44CHL1  H12A 5694   0.561   2.704   9.396 -0.2249  0.2762  0.5198
   44CHL1  H12B 5695   0.448   2.590   9.448 -0.8399  1.0471  0.9963
   44CHL1   C11 5696   0.565   2.642   9.610  0.1278 -0.7089 -0.3643
   44CHL1  H11A 5697   0.660   2.699   9.618 -0.1105 -0.2912 -0.4537
   44CHL1  H11B 5698   0.481   2.708   9.642  0.2370 -0.3128 -0.8820
   44CHL1    C9 5699   0.581   2.522   9.709  0.5804 -0.7084  0.7276
   44CHL1    H9 5700   0.481   2.476   9.718 -0.4951  1.4479  0.4097
   44CHL1   C10 5701   0.629   2.554   9.852  0.0587  0.5128  0.1614
   44CHL1   C19 5702   0.752   2.655   9.848 -0.3665  0.5083 -0.8907
   44CHL1  H19A 5703   0.728   2.755   9.804  1.0675  1.6227  0.7525
   44CHL1  H19B 5704   0.794   2.681   9.947 -1.6706  2.1806 -0.7225
   44CHL1  H19C 5705   0.834   2.608   9.790  0.3321  0.3846  0.1680
   44CHL1    C1 5706   0.510   2.630   9.919  0.2517 -0.8135  0.3072
   44CHL1   H1A 5707   0.500   2.737   9.889 -1.6263 -0.6873  1.1914
   44CHL1   H1B 5708   0.409   2.597   9.886 -0.5697  2.3691 -0.6977
   44CHL1    C2 5709   0.509   2.634  10.077  0.3310  0.0498  0.0736
   44CHL1   H2A 5710   0.409   2.663  10.116 -0.3600 -1.6693 -0.3118
   44CHL1   H2B 5711   0.591   2.704  10.106  1.5615 -1.1823 -0.3260
   44CHL1   C20 5712   0.682   2.486   9.150  1.2387  0.2586 -0.1119
   44CHL1   H20 5713   0.793   2.493   9.154  1.3102 -0.3934 -0.8214
   44CHL1   C21 5714   0.622   2.629   9.124  0.5044  0.6932 -0.6711
   44CHL1  H21A 5715   0.516   2.615   9.097  0.2096 -1.6924  1.3151
   44CHL1  H21B 5716   0.679   2.665   9.036 -0.3182  2.9728 -0.3347
   44CHL1  H21C 5717   0.641   2.705   9.203 -3.7971  1.8996 -0.5816
   44CHL1   C22 5718   0.645   2.399   9.025  1.0471  0.4229  0.4832
   44CHL1  H22A 5719   0.643   2.290   9.049  0.0172  0.9909  3.5398
   44CHL1  H22B 5720   0.539   2.424   9.003  0.8337 -1.2889 -0.6448
   44CHL1   C23 5721   0.749   2.418   8.910  1.0473  0.0831 -0.0757
   44CHL1  H23A 5722   0.767   2.526   8.890  0.7729  0.4595  1.5337
   44CHL1  H23B 5723   0.847   2.378   8.942  1.1687 -0.7930 -1.4847
   44CHL1   C24 5724   0.699   2.346   8.774 -0.2091  0.2458 -0.1418
   44CHL1  H24A 5725   0.787   2.349   8.706  2.5378  2.3181  3.1776
   44CHL1  H24B 5726   0.669   2.241   8.793 -1.4532  0.4088 -1.0950
   44CHL1   C25 5727   0.578   2.432   8.718  0.2959  0.4797  0.3681
   44CHL1   H25 5728   0.507   2.447   8.803 -0.3091 -0.5641  0.0680
   44CHL1   C26 5729   0.605   2.569   8.659 -0.5499  0.0568  0.1975
   44CHL1  H26A 5730   0.533   2.643   8.699  0.4249 -0.0421  2.2539
   44CHL1  H26B 5731   0.708   2.606   8.681 -1.2820  2.4106 -0.0029
   44CHL1  H26C 5732   0.591   2.568   8.549  1.1059  3.1250 -0.1464
   44CHL1   C27 5733   0.499   2.357   8.619  0.2835 -0.3310  0.2714
   44CHL1  H27A 5734   0.557   2.341   8.526  0.2083  1.3086 -0.0883
   44CHL1  H27B 5735   0.476   2.251   8.643  3.4102 -1.2867 -0.4523
   44CHL1  H27C 5736   0.400   2.403   8.600  0.1387 -0.5382  0.5192
   45CHL1    C3 5737   3.548   0.983   9.972  0.6603  0.0544  0.3368
   45CHL1    H3 5738   3.565   0.874   9.983 -2.6697 -0.3932  2.6474
   45CHL1    O3 5739   3.499   1.030  10.093 -0.1588  0.6469 -0.1317
   45CHL1   H3' 5740   3.443   0.956  10.117  0.1845  0.1717 -0.7938
   45CHL1    C4 5741   3.675   1.050   9.917  0.3229  1.2618  0.4791
   45CHL1   H4A 5742   3.652   1.157   9.898  0.8004  1.5853  1.6253
   45CHL1   H4B 5743   3.758   1.030   9.988  2.6360  0.3723 -2.3109
   45CHL1    C5 5744   3.710   0.990   9.781  0.0766  0.4167  0.0783
   45CHL1    C6 5745   3.834   0.936   9.766 -0.0020 -0.3656  0.5274
   45CHL1    H6 5746   3.896   0.943   9.856  1.2481  2.0552 -0.4438
   45CHL1    C7 5747   3.897   0.887   9.636  0.3132  0.4102  0.4757
   45CHL1   H7A 5748   3.991   0.940   9.609  0.5371 -0.1249  0.1918
   45CHL1   H7B 5749   3.923   0.780   9.648 -0.8351 -0.3384 -2.7238
   45CHL1    C8 5750   3.795   0.904   9.511  0.0028 -0.1512 -0.1763
   45CHL1    H8 5751   3.811   0.808   9.458  1.3598 -0.7935  1.2890
   45CHL1   C14 5752   3.826   1.009   9.402 -0.8977  0.1128 -0.0156
   45CHL1   H14 5753   3.803   1.109   9.443 -1.7452  0.4162 -1.1994
   45CHL1   C15 5754   3.978   1.013   9.371 -0.4317 -0.4326  0.8062
   45CHL1  H15A 5755   4.035   1.089   9.429 -0.1471 -1.8621  2.4827
   45CHL1  H15B 5756   4.030   0.919   9.399 -0.1826 -0.4136  0.4254
   45CHL1   C16 5757   3.983   1.019   9.223  0.2251  0.2649  0.7064
   45CHL1  H16A 5758   3.971   1.122   9.184  0.9322  0.0525 -0.1119
   45CHL1  H16B 5759   4.069   0.974   9.169 -0.8284 -0.2114 -0.6290
   45CHL1   C17 5760   3.852   0.942   9.179  0.1855 -0.0248 -0.5233
   45CHL1   H17 5761   3.878   0.836   9.201 -0.5302  0.2291  1.8718
   45CHL1   C13 5762   3.741   0.988   9.277 -0.1237  0.3790  0.4759
   45CHL1   C18 5763   3.690   1.127   9.219 -0.7412  0.1505  0.3968
   45CHL1  H18A 5764   3.622   1.112   9.132 -1.2538  0.7403  0.6927
   45CHL1  H18B 5765   3.632   1.173   9.301 -0.0985  1.1458  0.3040
   45CHL1  H18C 5766   3.773   1.193   9.185  0.1241 -0.2974  1.5809
   45CHL1   C12 5767   3.624   0.895   9.300  0.3846  0.3848  0.0086
   45CHL1  H12A 5768   3.551   0.892   9.216  1.2342  1.5187 -0.7981
   45CHL1  H12B 5769   3.665   0.792   9.298  0.0373  0.2580 -1.7877
   45CHL1   C11 5770   3.553   0.920   9.432 -0.0474 -0.6268 -0.7366
   45CHL1  H11A 5771   3.500   1.018   9.422 -0.6764 -0.8070  0.5931
   45CHL1  H11B 5772   3.470   0.846   9.436 -1.9061  1.3748  0.4387
   45CHL1    C9 5773   3.642   0.900   9.555 -0.5673 -0.1273  0.5841
   45CHL1    H9 5774   3.632   0.796   9.593  0.9410  0.3995  2.6321
   45CHL1   C10 5775   3.603   0.992   9.671 -0.5120  0.7633  0.3527
   45CHL1   C19 5776   3.578   1.138   9.626  0.2465 -0.1751  0.0972
   45CHL1  H19A 5777   3.592   1.216   9.704  1.1964 -1.0350  0.8188
   45CHL1  H19B 5778   3.634   1.175   9.537 -2.9458  1.5682 -1.3717
   45CHL1  H19C 5779   3.472   1.148   9.597 -0.0827  0.4276  1.4214
   45CHL1    C1 5780   3.476   0.942   9.732  0.2576 -0.1340  0.3565
   45CHL1   H1A 5781   3.391   0.972   9.668  0.4605  1.9810  0.9866
   45CHL1   H1B 5782   3.484   0.832   9.748  0.8913  0.2315  3.0405
   45CHL1    C2 5783   3.435   0.997   9.869  0.0687  0.4087  0.6652
   45CHL1   H2A 5784   3.348   0.941   9.910  0.2473 -0.7180 -0.4438
   45CHL1   H2B 5785   3.407   1.105   9.862 -0.9708  0.0779 -0.9657
   45CHL1   C20 5786   3.831   0.938   9.016 -0.1107 -0.4965 -0.4589
   45CHL1   H20 5787   3.807   1.044   8.997 -1.4090 -0.0534  2.9678
   45CHL1   C21 5788   3.717   0.842   8.982  0.1932 -0.6799  0.1821
   45CHL1  H21A 5789   3.748   0.737   9.004  1.8616 -0.3479 -0.4644
   45CHL1  H21B 5790   3.707   0.846   8.871  0.4012  0.0399  0.1885
   45CHL1  H21C 5791   3.621   0.873   9.028 -0.1765  0.8136 -1.4901
   45CHL1   C22 5792   3.960   0.906   8.930 -0.4444 -0.2744  0.3004
   45CHL1  H22A 5793   4.040   0.974   8.968 -0.6318 -1.2579  2.6210
   45CHL1  H22B 5794   3.984   0.800   8.949 -0.5799 -0.0446  1.9685
   45CHL1   C23 5795   3.944   0.927   8.777 -0.5050 -0.3964 -0.2876
   45CHL1  H23A 5796   3.856   0.881   8.728 -0.6993 -1.5058  1.0609
   45CHL1  H23B 5797   3.939   1.038   8.773  2.7593 -0.1318 -0.2846
   45CHL1   C24 5798   4.071   0.870   8.703  0.1417 -0.7688  0.0475
   45CHL1  H24A 5799   4.151   0.884   8.779 -2.2902 -2.1228  3.0815
   45CHL1  H24B 5800   4.066   0.761   8.684 -1.4613 -0.1548 -4.1221
   45CHL1   C25 5801   4.102   0.935   8.565 -0.1762  0.1914  0.5265
   45CHL1   H25 5802   4.205   0.901   8.540  0.0825  1.3679 -0.0732
   45CHL1   C26 5803   4.004   0.878   8.457  0.5216 -0.5928 -0.1821
   45CHL1  H26A 5804   3.897   0.882   8.488  0.7983  2.4406  0.7249
   45CHL1  H26B 5805   4.022   0.921   8.356 -1.0108  0.7817  0.0803
   45CHL1  H26C 5806   4.035   0.772   8.451 -0.5241 -0.9326  0.1518
   45CHL1   C27 5807   4.093   1.090   8.564  0.3091 -0.4969  0.0168
   45CHL1  H27A 5808   4.122   1.115   8.669 -0.5163 -1.5222  0.5154
   45CHL1  H27B 5809   4.164   1.139   8.495  0.7453 -0.3611  0.5583
   45CHL1  H27C 5810   3.993   1.136   8.551  0.8294  1.4505  2.2921
   46CHL1    C3 5811   1.176   4.855   9.889 -0.2913  0.1816 -0.0083
   46CHL1    H3 5812   1.216   4.955   9.862  0.6340 -0.5400 -1.4533
   46CHL1    O3 5813   1.178   4.829  10.026 -0.2381  0.0703  0.2260
   46CHL1   H3' 5814   1.112   4.759  10.037 -0.0756 -0.3019 -1.0183
   46CHL1    C4 5815   1.027   4.833   9.846  0.4355  0.0522  0.2110
   46CHL1   H4A 5816   0.992   4.734   9.881 -2.0284  0.9994  0.6486
   46CHL1   H4B 5817   0.959   4.903   9.899  0.0851 -0.2713  0.1959
   46CHL1    C5 5818   1.021   4.830   9.695 -0.5739 -0.1809  0.0280
   46CHL1    C6 5819   0.944   4.920   9.627  0.2510 -0.1629 -0.0107
   46CHL1    H6 5820   0.883   4.993   9.682  1.4900  1.0922 -0.2442
   46CHL1    C7 5821   0.925   4.919   9.479 -0.1191  0.4392  0.0906
   46CHL1   H7A 5822   0.817   4.921   9.456  0.2926  1.8407 -2.0000
   46CHL1   H7B 5823   0.966   5.009   9.430 -3.4866  1.6435 -0.7603
   46CHL1    C8 5824   0.982   4.792   9.403  0.1152 -0.3811 -0.3061
   46CHL1    H8 5825   0.913   4.706   9.421 -2.6240  1.3993 -1.6527
   46CHL1   C14 5826   0.989   4.807   9.249  0.8983  0.1189 -0.5017
   46CHL1   H14 5827   1.044   4.899   9.219 -1.3982  1.1591 -1.7926
   46CHL1   C15 5828   0.859   4.831   9.174  0.3567  0.3248 -1.0600
   46CHL1  H15A 5829   0.782   4.772   9.229  1.1199  1.4552  1.3522
   46CHL1  H15B 5830   0.838   4.940   9.182  0.5343  0.4982 -2.7567
   46CHL1   C16 5831   0.892   4.784   9.036 -0.3177 -0.2746 -0.0698
   46CHL1  H16A 5832   0.821   4.702   9.010  0.7817 -1.5303  0.7431
   46CHL1  H16B 5833   0.892   4.866   8.961  0.2281  0.4859  0.7420
   46CHL1   C17 5834   1.034   4.729   9.038  0.7858  0.1438  0.5027
   46CHL1   H17 5835   1.107   4.812   9.023  0.0907  0.6400 -0.2106
   46CHL1   C13 5836   1.053   4.689   9.177  0.1612  0.2782  0.8046
   46CHL1   C18 5837   0.978   4.555   9.200 -0.1971 -0.3237 -0.0131
   46CHL1  H18A 5838   1.038   4.473   9.155  1.6401 -0.6036  2.6441
   46CHL1  H18B 5839   0.966   4.523   9.306  0.7915  2.8177  1.1450
   46CHL1  H18C 5840   0.871   4.566   9.172 -0.6989  0.2358  1.9256
   46CHL1   C12 5841   1.201   4.683   9.224 -0.0698 -0.5836  0.8028
   46CHL1  H12A 5842   1.245   4.596   9.170  1.4325  0.2306  0.6487
   46CHL1  H12B 5843   1.264   4.769   9.192  0.9626 -0.9451  1.8084
   46CHL1   C11 5844   1.202   4.665   9.378  0.1314  0.0011  0.9359
   46CHL1  H11A 5845   1.156   4.565   9.394 -0.5392  0.2555  0.6339
   46CHL1  H11B 5846   1.311   4.664   9.401  1.4558 -2.2828 -3.9545
   46CHL1    C9 5847   1.118   4.763   9.461  0.8797 -0.1881 -0.0786
   46CHL1    H9 5848   1.175   4.858   9.460  1.3284 -0.4075  1.5154
   46CHL1   C10 5849   1.115   4.731   9.618  0.1449  0.4157 -0.2937
   46CHL1   C19 5850   1.065   4.591   9.642 -0.4064  0.3599 -0.1145
   46CHL1  H19A 5851   1.056   4.580   9.753  0.4002 -1.3080 -0.1802
   46CHL1  H19B 5852   0.977   4.555   9.585  1.9777 -0.5774 -3.5375
   46CHL1  H19C 5853   1.154   4.528   9.619  0.7502  1.3344  1.4388
   46CHL1    C1 5854   1.266   4.745   9.676  1.4470 -0.0106  1.0675
   46CHL1   H1A 5855   1.337   4.670   9.636  0.0655 -1.2942  0.9178
   46CHL1   H1B 5856   1.289   4.851   9.652 -0.4933  0.3390  0.5283
   46CHL1    C2 5857   1.268   4.743   9.832 -0.2024 -0.0321  0.5255
   46CHL1   H2A 5858   1.370   4.748   9.877  0.7545  1.3187 -1.6048
   46CHL1   H2B 5859   1.226   4.646   9.863  0.7359 -1.9696 -3.5358
   46CHL1   C20 5860   1.079   4.648   8.918  0.0664 -0.1132 -0.6222
   46CHL1   H20 5861   1.057   4.541   8.938  1.2483 -1.0331 -3.6470
   46CHL1   C21 5862   1.230   4.664   8.892  0.4176  0.6079  0.6846
   46CHL1  H21A 5863   1.248   4.772   8.876 -3.7005  1.2851 -0.5995
   46CHL1  H21B 5864   1.261   4.599   8.808  1.4976 -0.1678  1.6536
   46CHL1  H21C 5865   1.293   4.637   8.980 -0.1051  1.7323  1.4263
   46CHL1   C22 5866   0.989   4.685   8.792  0.5702 -0.8895  0.7095
   46CHL1  H22A 5867   0.885   4.650   8.813 -0.2875  1.1773  0.1230
   46CHL1  H22B 5868   0.995   4.795   8.776  0.3918 -0.6687  2.0443
   46CHL1   C23 5869   1.034   4.617   8.659 -0.0924  0.1735 -0.8692
   46CHL1  H23A 5870   1.125   4.669   8.623 -1.3491  1.8259 -1.8093
   46CHL1  H23B 5871   1.076   4.518   8.689 -1.0806  0.5844  2.2369
   46CHL1   C24 5872   0.924   4.603   8.562 -0.4754 -0.4779  0.4693
   46CHL1  H24A 5873   0.958   4.544   8.474  0.4598  0.1302  0.4088
   46CHL1  H24B 5874   0.843   4.541   8.607  1.0796 -1.6761  1.7288
   46CHL1   C25 5875   0.869   4.735   8.518 -0.3216 -0.5364 -0.3133
   46CHL1   H25 5876   0.865   4.800   8.608  1.5927 -1.8001  0.7685
   46CHL1   C26 5877   0.968   4.815   8.430  0.1931  0.0635  0.2889
   46CHL1  H26A 5878   0.919   4.911   8.401  0.2927  0.0040 -0.0701
   46CHL1  H26B 5879   1.065   4.831   8.481  1.1810  0.2494 -1.5857
   46CHL1  H26C 5880   0.990   4.751   8.342  0.6937  0.7604 -0.1014
   46CHL1   C27 5881   0.736   4.711   8.442  0.3853  0.3993  0.3769
   46CHL1  H27A 5882   0.754   4.622   8.378  1.4608 -0.3250  1.6508
   46CHL1  H27B 5883   0.648   4.692   8.507 -0.8267 -0.2446 -1.3675
   46CHL1  H27C 5884   0.713   4.797   8.375 -1.9382  0.2913  0.9452
   47CHL1    C3 5885   0.507   1.827   9.983 -0.0192  0.5553  0.0248
   47CHL1    H3 5886   0.406   1.868   9.963 -1.0223 -1.0629  1.4470
   47CHL1    O3 5887   0.535   1.843  10.117  0.1336  0.3511 -0.1558
   47CHL1   H3' 5888   0.616   1.793  10.133 -0.3853 -0.9660 -1.3785
   47CHL1    C4 5889   0.509   1.680   9.953  0.2616  0.0428 -0.2375
   47CHL1   H4A 5890   0.602   1.629   9.984 -0.1099 -0.3920  0.1828
   47CHL1   H4B 5891   0.430   1.630  10.014  0.9379  0.5756  1.1296
   47CHL1    C5 5892   0.497   1.648   9.808  0.5395 -0.0462 -0.2705
   47CHL1    C6 5893   0.399   1.563   9.762  0.2328 -0.1928  0.0107
   47CHL1    H6 5894   0.332   1.510   9.832  0.3921  0.9983  1.0958
   47CHL1    C7 5895   0.394   1.523   9.620  0.1693  0.4927  0.5721
   47CHL1   H7A 5896   0.393   1.412   9.615  2.9632  0.4103  0.1076
   47CHL1   H7B 5897   0.306   1.574   9.575 -0.4424 -0.7744  0.2936
   47CHL1    C8 5898   0.523   1.567   9.540  0.0748 -0.1445 -0.5923
   47CHL1    H8 5899   0.609   1.503   9.567 -0.6868 -0.4349  1.3335
   47CHL1   C14 5900   0.500   1.543   9.393  0.3891  0.4329 -0.4560
   47CHL1   H14 5901   0.409   1.600   9.364 -0.8006 -0.3215  1.6083
   47CHL1   C15 5902   0.470   1.401   9.355 -0.0420  0.7997  0.0646
   47CHL1  H15A 5903   0.543   1.328   9.396  0.9048  1.0091 -1.1807
   47CHL1  H15B 5904   0.366   1.368   9.377 -1.3757  2.0002 -3.5868
   47CHL1   C16 5905   0.499   1.408   9.204 -0.3089  0.3295 -0.2208
   47CHL1  H16A 5906   0.573   1.334   9.165  1.1317  1.4737  0.2478
   47CHL1  H16B 5907   0.414   1.383   9.138 -1.0056  0.2468  0.6895
   47CHL1   C17 5908   0.573   1.544   9.167 -0.2665 -0.2177  0.0200
   47CHL1   H17 5909   0.504   1.626   9.137  0.5957  0.2583 -0.7109
   47CHL1   C13 5910   0.618   1.593   9.307  0.3430  0.5759 -0.7458
   47CHL1   C18 5911   0.751   1.519   9.344 -0.8434 -0.5437 -0.3987
   47CHL1  H18A 5912   0.785   1.540   9.448  1.5657 -0.7461 -1.0771
   47CHL1  H18B 5913   0.735   1.409   9.350 -1.0081 -0.4535  1.1540
   47CHL1  H18C 5914   0.823   1.549   9.264 -1.2556 -0.1035 -0.6082
   47CHL1   C12 5915   0.616   1.739   9.325  0.5982 -0.2910  0.1389
   47CHL1  H12A 5916   0.693   1.794   9.267  1.5015  0.1611  1.7062
   47CHL1  H12B 5917   0.514   1.781   9.313  0.3462 -0.4418  1.5682
   47CHL1   C11 5918   0.655   1.781   9.470  0.0715  0.2739 -0.4289
   47CHL1  H11A 5919   0.761   1.754   9.482  0.2201  1.2361  0.5964
   47CHL1  H11B 5920   0.659   1.890   9.493  1.5910 -0.0829  1.1811
   47CHL1    C9 5921   0.558   1.715   9.571 -0.2011 -0.2244 -0.3282
   47CHL1    H9 5922   0.459   1.766   9.560 -0.3693 -0.8252 -1.8500
   47CHL1   C10 5923   0.594   1.724   9.717 -0.3396  1.2053 -0.1198
   47CHL1   C19 5924   0.736   1.668   9.752  0.2840 -0.0047 -0.2375
   47CHL1  H19A 5925   0.764   1.692   9.857 -3.0657  1.2604  0.5318
   47CHL1  H19B 5926   0.727   1.558   9.748 -4.8783  0.1958 -0.9751
   47CHL1  H19C 5927   0.819   1.709   9.691 -0.6025  2.1065 -0.1152
   47CHL1    C1 5928   0.592   1.878   9.758  0.9629 -0.7691 -0.2134
   47CHL1   H1A 5929   0.677   1.929   9.708  2.5849 -0.4952  2.5774
   47CHL1   H1B 5930   0.499   1.917   9.711  0.9435 -0.4205  0.1068
   47CHL1    C2 5931   0.610   1.909   9.905  0.0487  0.7955  0.4004
   47CHL1   H2A 5932   0.596   2.017   9.923 -3.0842  1.2979 -3.7123
   47CHL1   H2B 5933   0.718   1.890   9.926  0.1460 -0.1046 -0.8116
   47CHL1   C20 5934   0.681   1.524   9.061  0.0416  0.6976 -0.9236
   47CHL1   H20 5935   0.769   1.464   9.093 -0.1441  0.9790  0.1428
   47CHL1   C21 5936   0.735   1.660   9.012  0.1272  0.5030  0.0583
   47CHL1  H21A 5937   0.656   1.736   9.030  0.3494  0.0642  3.8081
   47CHL1  H21B 5938   0.790   1.656   8.916 -0.6352  0.6820 -0.3919
   47CHL1  H21C 5939   0.811   1.697   9.085 -0.4919 -0.5423  1.2817
   47CHL1   C22 5940   0.629   1.456   8.928 -0.3001 -0.1611  1.0881
   47CHL1  H22A 5941   0.538   1.396   8.948 -0.1896 -0.9832 -0.7278
   47CHL1  H22B 5942   0.610   1.538   8.855 -2.1547 -1.4764 -0.0016
   47CHL1   C23 5943   0.734   1.368   8.857  0.7669  0.6320 -1.2917
   47CHL1  H23A 5944   0.834   1.413   8.837  0.7018  0.0479 -3.0447
   47CHL1  H23B 5945   0.755   1.281   8.922  2.0927  2.4703  0.8963
   47CHL1   C24 5946   0.686   1.335   8.713 -0.5506  0.0480  0.2287
   47CHL1  H24A 5947   0.632   1.423   8.671 -0.1975 -0.5132 -1.5009
   47CHL1  H24B 5948   0.773   1.307   8.650 -1.1761 -0.1507 -0.5687
   47CHL1   C25 5949   0.570   1.225   8.700  0.3320  0.8696 -0.3415
   47CHL1   H25 5950   0.587   1.157   8.786  1.3254  1.0309 -0.3982
   47CHL1   C26 5951   0.431   1.284   8.704 -0.7514 -0.0948 -0.0097
   47CHL1  H26A 5952   0.417   1.366   8.778 -0.6802  1.6069 -1.7933
   47CHL1  H26B 5953   0.358   1.204   8.728  0.1357 -1.0416 -0.4194
   47CHL1  H26C 5954   0.403   1.339   8.611 -0.4601  0.8201  0.4244
   47CHL1   C27 5955   0.583   1.129   8.579 -0.1136 -0.7441  0.6823
   47CHL1  H27A 5956   0.677   1.071   8.590  0.4425 -0.0758 -0.3148
   47CHL1  H27B 5957   0.494   1.063   8.575 -0.2673 -0.5037 -2.3441
   47CHL1  H27C 5958   0.579   1.185   8.483 -2.9869  2.6134  2.4993
   48CHL1    C3 5959   0.660   1.051   9.944  0.6511  0.2236  0.3647
   48CHL1    H3 5960   0.757   1.000   9.924 -0.3546 -2.1672  1.1098
   48CHL1    O3 5961   0.659   1.096  10.080  0.4987 -0.3264  0.0711
   48CHL1   H3' 5962   0.731   1.056  10.128  1.2910  0.3126 -0.5539
   48CHL1    C4 5963   0.647   1.172   9.854 -0.3046 -0.3223 -0.9020
   48CHL1   H4A 5964   0.553   1.227   9.875 -0.8726 -2.1747  1.8748
   48CHL1   H4B 5965   0.736   1.239   9.863  1.7923 -3.0106 -0.3851
   48CHL1    C5 5966   0.662   1.121   9.715  0.2223  0.1979  0.4111
   48CHL1    C6 5967   0.761   1.157   9.627 -0.5738 -0.0496  0.2041
   48CHL1    H6 5968   0.831   1.236   9.659  0.8115 -1.2054  0.1502
   48CHL1    C7 5969   0.772   1.114   9.483 -0.3499 -0.1050  0.2177
   48CHL1   H7A 5970   0.806   1.198   9.419  0.5779 -0.0478  0.7553
   48CHL1   H7B 5971   0.853   1.042   9.461  2.2417  2.5550  0.3645
   48CHL1    C8 5972   0.644   1.044   9.421 -0.5306 -0.4504 -0.1714
   48CHL1    H8 5973   0.578   1.129   9.397  1.0118  0.4362 -1.4831
   48CHL1   C14 5974   0.676   0.964   9.304  0.5074 -0.4910  0.1441
   48CHL1   H14 5975   0.754   0.888   9.325 -0.1265 -1.0090  0.6465
   48CHL1   C15 5976   0.752   1.035   9.185  0.4690 -0.3516  0.2510
   48CHL1  H15A 5977   0.711   1.137   9.173  0.9390 -0.0112  1.3530
   48CHL1  H15B 5978   0.862   1.033   9.201  1.1180 -1.0601 -3.4117
   48CHL1   C16 5979   0.708   0.950   9.067 -0.7287  0.5648 -0.2841
   48CHL1  H16A 5980   0.656   1.018   8.995 -2.7868  0.3676  0.9330
   48CHL1  H16B 5981   0.797   0.905   9.019 -0.6269  0.3734  0.0838
   48CHL1   C17 5982   0.625   0.828   9.117  0.2756 -0.1642 -0.0133
   48CHL1   H17 5983   0.701   0.754   9.152  0.4015  0.5065  1.1738
   48CHL1   C13 5984   0.562   0.882   9.244 -0.2953  0.2127  0.2286
   48CHL1   C18 5985   0.448   0.974   9.205  0.4838 -0.0674  0.1514
   48CHL1  H18A 5986   0.369   0.908   9.162  2.4670 -2.2060 -0.3880
   48CHL1  H18B 5987   0.394   1.025   9.288  0.8907  1.1898 -0.3340
   48CHL1  H18C 5988   0.481   1.043   9.125 -0.3278 -2.0717 -2.0501
   48CHL1   C12 5989   0.509   0.783   9.357  0.0729  0.5813  0.6586
   48CHL1  H12A 5990   0.430   0.726   9.303 -0.4212  1.4799  0.3990
   48CHL1  H12B 5991   0.599   0.727   9.389  0.6691  0.0644 -1.7358
   48CHL1   C11 5992   0.468   0.851   9.486 -0.8534 -0.3733 -0.2740
   48CHL1  H11A 5993   0.380   0.918   9.475 -0.2707  0.4193 -0.2070
   48CHL1  H11B 5994   0.442   0.775   9.563  1.9856  0.7126  1.9385
   48CHL1    C9 5995   0.584   0.949   9.528 -0.8326 -0.0119 -0.3404
   48CHL1    H9 5996   0.668   0.879   9.547 -0.8976 -0.4130 -1.4300
   48CHL1   C10 5997   0.556   1.014   9.666 -0.0784 -0.2677 -0.3410
   48CHL1   C19 5998   0.424   1.098   9.664 -0.3450 -0.3605 -0.1973
   48CHL1  H19A 5999   0.436   1.187   9.599 -2.1054 -1.4598 -2.1740
   48CHL1  H19B 6000   0.339   1.036   9.627  0.9624 -2.1166 -0.3611
   48CHL1  H19C 6001   0.393   1.135   9.764  0.2960  0.3315 -0.2460
   48CHL1    C1 6002   0.551   0.902   9.775  0.7018 -0.1764  0.5605
   48CHL1   H1A 6003   0.465   0.834   9.761  3.9934 -4.3153 -1.9880
   48CHL1   H1B 6004   0.639   0.836   9.760  0.2753 -0.5054 -0.5198
   48CHL1    C2 6005   0.547   0.948   9.921 -0.4425 -0.4344  0.1691
   48CHL1   H2A 6006   0.541   0.862   9.991  0.0139  0.3931  1.2437
   48CHL1   H2B 6007   0.459   1.016   9.930  0.3448  0.6384 -0.0666
   48CHL1   C20 6008   0.542   0.762   9.017  0.4057  0.4381 -0.0513
   48CHL1   H20 6009   0.444   0.812   9.009  0.3235  0.2267 -0.4014
   48CHL1   C21 6010   0.515   0.612   9.067  0.2105  0.9788  0.0948
   48CHL1  H21A 6011   0.597   0.551   9.111 -1.0249 -0.3098  0.7122
   48CHL1  H21B 6012   0.475   0.545   8.987  2.0600 -1.2519  0.9371
   48CHL1  H21C 6013   0.431   0.622   9.138 -1.1444 -0.8064 -1.1499
   48CHL1   C22 6014   0.608   0.760   8.876  0.3657  0.5678  0.9364
   48CHL1  H22A 6015   0.624   0.865   8.844  0.4816  0.6594  1.2945
   48CHL1  H22B 6016   0.709   0.712   8.883 -0.4879 -1.4021  0.5296
   48CHL1   C23 6017   0.518   0.710   8.763 -0.6736 -0.8490 -0.6657
   48CHL1  H23A 6018   0.478   0.607   8.774 -3.7025 -0.1475 -3.4467
   48CHL1  H23B 6019   0.421   0.765   8.764 -0.3701 -0.3022 -0.7481
   48CHL1   C24 6020   0.593   0.712   8.632 -0.4438  0.4314  0.4251
   48CHL1  H24A 6021   0.600   0.819   8.601  0.4177  0.4138  0.5462
   48CHL1  H24B 6022   0.694   0.675   8.661 -1.1073 -0.2955  1.9260
   48CHL1   C25 6023   0.530   0.628   8.527 -0.2806 -0.0576  0.8472
   48CHL1   H25 6024   0.540   0.524   8.564 -0.8525  0.1025  1.4763
   48CHL1   C26 6025   0.387   0.662   8.496 -0.0954 -0.2219  0.6899
   48CHL1  H26A 6026   0.325   0.631   8.584 -0.5166  0.2201  0.5508
   48CHL1  H26B 6027   0.371   0.767   8.464  0.8378 -0.4277 -0.5088
   48CHL1  H26C 6028   0.365   0.593   8.412  1.7035  0.1367 -0.1054
   48CHL1   C27 6029   0.627   0.615   8.399  0.2559 -0.4118 -0.4815
   48CHL1  H27A 6030   0.588   0.539   8.328  1.1167 -1.0410 -0.3073
   48CHL1  H27B 6031   0.626   0.713   8.347 -0.2940 -0.9782 -1.5694
   48CHL1  H27C 6032   0.731   0.600   8.434 -0.9877  1.5900  5.0994
   49CHL1    C3 6033   6.538   5.268  10.069  0.4950 -0.5406  0.3972
   49CHL1    H3 6034   6.647   5.254  10.053  0.9026  1.2032  1.3822
   49CHL1    O3 6035   6.513   5.298  10.202 -0.1798  0.5909 -0.5874
   49CHL1   H3' 6036   6.419   5.319  10.207 -0.4656 -0.8277  0.6498
   49CHL1    C4 6037   6.494   5.381   9.988  0.3240  0.6543 -0.3840
   49CHL1   H4A 6038   6.390   5.412  10.011  0.3988  0.4107  0.2840
   49CHL1   H4B 6039   6.551   5.473  10.015 -0.6520  1.1741 -0.0458
   49CHL1    C5 6040   6.512   5.347   9.840  0.3612 -0.0285 -0.1689
   49CHL1    C6 6041   6.586   5.424   9.757  0.0278  0.0749 -0.2274
   49CHL1    H6 6042   6.633   5.516   9.794  2.4514 -1.0026 -0.4529
   49CHL1    C7 6043   6.617   5.385   9.615 -0.4026 -0.4180 -0.3097
   49CHL1   H7A 6044   6.615   5.474   9.549 -3.0512  0.5708  0.9613
   49CHL1   H7B 6045   6.705   5.317   9.617 -1.4051 -1.7587 -0.7928
   49CHL1    C8 6046   6.512   5.292   9.541  0.3849 -0.0964 -0.9732
   49CHL1    H8 6047   6.415   5.346   9.539 -0.1992 -0.8790  1.6058
   49CHL1   C14 6048   6.549   5.241   9.411  0.1282  0.8380  0.1796
   49CHL1   H14 6049   6.645   5.188   9.431  0.5394  1.3040 -0.5321
   49CHL1   C15 6050   6.567   5.332   9.289  0.8959  0.6542 -1.1825
   49CHL1  H15A 6051   6.481   5.402   9.282  0.4041  0.1421 -0.4973
   49CHL1  H15B 6052   6.650   5.405   9.300  0.0916  1.3347  1.0098
   49CHL1   C16 6053   6.562   5.240   9.170  0.2120  0.1157  0.4676
   49CHL1  H16A 6054   6.490   5.281   9.096 -1.4965 -1.8908  0.9164
   49CHL1  H16B 6055   6.663   5.224   9.128 -0.3042 -2.0804 -0.0554
   49CHL1   C17 6056   6.506   5.105   9.224 -0.5739  0.8352 -0.1263
   49CHL1   H17 6057   6.596   5.047   9.253 -0.9643 -0.0779 -0.7067
   49CHL1   C13 6058   6.450   5.138   9.363  0.8636  0.8408  0.4009
   49CHL1   C18 6059   6.312   5.192   9.348  1.3200 -0.0702  0.0079
   49CHL1  H18A 6060   6.244   5.116   9.304 -0.5713  0.0568  2.4755
   49CHL1  H18B 6061   6.271   5.224   9.446  0.4106 -3.4211  0.8245
   49CHL1  H18C 6062   6.314   5.272   9.270 -0.4627  0.0337  0.0322
   49CHL1   C12 6063   6.444   5.010   9.453  0.0044 -0.4413  0.2065
   49CHL1  H12A 6064   6.367   4.941   9.412 -0.5106 -0.3193  0.9469
   49CHL1  H12B 6065   6.535   4.947   9.452 -0.0582 -0.5352  0.3168
   49CHL1   C11 6066   6.405   5.053   9.589  0.0332  0.1356  0.0545
   49CHL1  H11A 6067   6.298   5.074   9.610 -0.2410 -0.7643 -0.3857
   49CHL1  H11B 6068   6.414   4.960   9.648 -1.9226 -1.0743 -1.4370
   49CHL1    C9 6069   6.496   5.171   9.643 -0.0113 -0.2478  0.7444
   49CHL1    H9 6070   6.598   5.129   9.649  0.3522  0.4451 -0.3152
   49CHL1   C10 6071   6.455   5.210   9.787  0.3590 -0.9673  0.5149
   49CHL1   C19 6072   6.301   5.227   9.806 -0.3240  0.2766  0.1055
   49CHL1  H19A 6073   6.252   5.293   9.731 -1.3639 -0.7308 -0.1222
   49CHL1  H19B 6074   6.246   5.131   9.797 -1.3318  1.0613 -3.8654
   49CHL1  H19C 6075   6.288   5.270   9.908  2.3757  1.5525 -0.0133
   49CHL1    C1 6076   6.509   5.103   9.881  0.6510  0.1035 -0.5202
   49CHL1   H1A 6077   6.457   5.006   9.865 -0.4006  0.0368  2.5914
   49CHL1   H1B 6078   6.617   5.078   9.871  0.3453 -0.9613 -1.2930
   49CHL1    C2 6079   6.476   5.132  10.032  0.0898 -0.2579 -0.6249
   49CHL1   H2A 6080   6.525   5.049  10.087 -1.7516 -0.9609  0.0500
   49CHL1   H2B 6081   6.370   5.135  10.067  0.2779  2.1057 -0.0368
   49CHL1   C20 6082   6.431   5.007   9.130  0.1985  0.3112  0.5307
   49CHL1   H20 6083   6.373   4.946   9.203  1.4247 -0.7583  0.6574
   49CHL1   C21 6084   6.532   4.928   9.050  0.0430 -0.1191  0.5027
   49CHL1  H21A 6085   6.586   4.868   9.125 -1.5060  0.4405  2.1427
   49CHL1  H21B 6086   6.600   4.985   8.983 -0.0089 -1.8757 -1.1481
   49CHL1  H21C 6087   6.477   4.857   8.985  0.0313 -1.8962  2.3513
   49CHL1   C22 6088   6.332   5.081   9.044  1.0908  0.7973 -0.1757
   49CHL1  H22A 6089   6.295   5.169   9.101  0.3393 -1.7213  3.5415
   49CHL1  H22B 6090   6.388   5.110   8.952  2.4592 -3.0188 -0.7424
   49CHL1   C23 6091   6.205   4.999   8.999 -1.1017  0.8870  0.2385
   49CHL1  H23A 6092   6.225   4.909   8.938 -0.6096  0.8104  0.5124
   49CHL1  H23B 6093   6.147   4.969   9.089 -0.2793  0.7652  0.7316
   49CHL1   C24 6094   6.112   5.080   8.904  0.6300 -0.0626 -0.1342
   49CHL1  H24A 6095   6.082   5.168   8.965  1.1706  0.6489 -0.8684
   49CHL1  H24B 6096   6.159   5.115   8.809 -2.1843  3.2155 -0.5486
   49CHL1   C25 6097   5.978   5.014   8.863 -0.3852  0.1414 -0.4726
   49CHL1   H25 6098   5.995   4.925   8.799  0.5438  0.6988 -1.0164
   49CHL1   C26 6099   5.908   4.972   8.990 -0.4576  0.5342  0.5382
   49CHL1  H26A 6100   5.963   4.887   9.037 -0.4922  0.0125 -0.3516
   49CHL1  H26B 6101   5.900   5.056   9.063  0.5304  1.0566  0.0773
   49CHL1  H26C 6102   5.804   4.938   8.972 -0.1557  0.7935 -2.0674
   49CHL1   C27 6103   5.888   5.111   8.788  0.8361 -0.4539 -0.0549
   49CHL1  H27A 6104   5.802   5.059   8.741  0.1078  0.1950  0.5293
   49CHL1  H27B 6105   5.851   5.197   8.849 -2.8993 -2.4566  0.8024
   49CHL1  H27C 6106   5.951   5.157   8.708 -0.4578  0.2767 -0.7082
   50CHL1    C3 6107   3.936   6.156  10.087 -0.3650 -0.8373  0.3181
   50CHL1    H3 6108   3.892   6.054  10.079 -0.8518 -0.5743 -0.5867
   50CHL1    O3 6109   3.986   6.196  10.218  0.2094 -0.3126  0.1134
   50CHL1   H3' 6110   3.908   6.237  10.257  0.8068 -0.2194  1.2551
   50CHL1    C4 6111   4.056   6.152   9.984 -0.1692 -0.2297  0.0083
   50CHL1   H4A 6112   4.120   6.242   9.992  0.1663 -0.4531 -0.1575
   50CHL1   H4B 6113   4.123   6.075  10.027 -0.0726 -0.0976  0.0937
   50CHL1    C5 6114   4.010   6.149   9.842 -0.4928  1.0865  0.3160
   50CHL1    C6 6115   4.054   6.048   9.766  0.8404 -0.5521  0.7545
   50CHL1    H6 6116   4.128   5.973   9.800  0.2848 -1.7337 -0.5735
   50CHL1    C7 6117   4.014   6.029   9.625  0.0761  0.3105  0.3531
   50CHL1   H7A 6118   4.080   5.964   9.564 -0.5550 -2.0524  2.0666
   50CHL1   H7B 6119   3.923   5.967   9.640  0.3738 -0.3478 -0.5239
   50CHL1    C8 6120   3.959   6.158   9.564  0.3531 -0.0403  0.2197
   50CHL1    H8 6121   4.038   6.236   9.559 -0.5292  0.8046 -1.4235
   50CHL1   C14 6122   3.898   6.128   9.429 -0.1007  1.0726  0.1850
   50CHL1   H14 6123   3.808   6.065   9.447  0.8126 -0.6191 -0.9197
   50CHL1   C15 6124   3.976   6.048   9.328  0.5711 -0.1198 -0.2063
   50CHL1  H15A 6125   4.084   6.072   9.331  1.1988 -2.4132 -2.1307
   50CHL1  H15B 6126   3.967   5.938   9.335  2.1391 -0.3683 -1.6073
   50CHL1   C16 6127   3.920   6.096   9.191  0.4506  0.2413 -0.9174
   50CHL1  H16A 6128   3.996   6.155   9.135 -0.4317  2.1520 -0.2047
   50CHL1  H16B 6129   3.890   5.999   9.145 -0.9870  0.3843 -0.3322
   50CHL1   C17 6130   3.800   6.188   9.221 -0.5340 -0.3938 -0.7506
   50CHL1   H17 6131   3.715   6.119   9.240 -1.5091  1.0999  0.5317
   50CHL1   C13 6132   3.835   6.249   9.355  0.0029 -0.6248 -0.6464
   50CHL1   C18 6133   3.945   6.362   9.326  0.1880  0.3035 -0.0232
   50CHL1  H18A 6134   3.995   6.396   9.419 -0.1827 -4.1399  2.0441
   50CHL1  H18B 6135   4.022   6.323   9.256  1.0444  0.6358  0.7148
   50CHL1  H18C 6136   3.891   6.443   9.273  1.7705  2.1296  1.0445
   50CHL1   C12 6137   3.723   6.294   9.449 -0.5524  0.1593  0.2340
   50CHL1  H12A 6138   3.688   6.389   9.403  0.6610 -0.0905 -1.2701
   50CHL1  H12B 6139   3.633   6.229   9.453  0.4620 -1.2420  0.8740
   50CHL1   C11 6140   3.770   6.335   9.591  0.4018  0.8149  0.3131
   50CHL1  H11A 6141   3.838   6.422   9.582 -0.4476  1.5186  0.5395
   50CHL1  H11B 6142   3.681   6.359   9.652  0.2082 -1.8644  1.2325
   50CHL1    C9 6143   3.853   6.219   9.664 -0.5361 -0.4644  0.1041
   50CHL1    H9 6144   3.775   6.140   9.674 -1.2504  0.4691  2.9928
   50CHL1   C10 6145   3.902   6.252   9.801 -0.6787 -0.6202  0.9394
   50CHL1   C19 6146   3.965   6.393   9.813  0.0521  0.6406  0.5497
   50CHL1  H19A 6147   3.986   6.421   9.919 -1.0743 -0.1149  0.9880
   50CHL1  H19B 6148   4.046   6.418   9.741 -1.1471  1.0738 -0.6970
   50CHL1  H19C 6149   3.881   6.459   9.784 -0.2703  0.1972  0.4774
   50CHL1    C1 6150   3.790   6.239   9.904  0.6877 -0.1585 -0.2509
   50CHL1   H1A 6151   3.724   6.324   9.877  0.5134 -0.0324  0.5578
   50CHL1   H1B 6152   3.718   6.154   9.893  1.0342 -0.4616 -0.2023
   50CHL1    C2 6153   3.824   6.255  10.049  0.9776 -0.3939 -0.2771
   50CHL1   H2A 6154   3.737   6.231  10.114  3.6130 -0.7036  3.3941
   50CHL1   H2B 6155   3.841   6.362  10.072 -0.3323 -0.4060  0.8851
   50CHL1   C20 6156   3.766   6.280   9.098 -0.3618  0.3210 -0.5517
   50CHL1   H20 6157   3.845   6.358   9.094 -0.8451  0.8288 -0.3811
   50CHL1   C21 6158   3.620   6.341   9.110  0.0387 -0.1426 -0.0780
   50CHL1  H21A 6159   3.605   6.422   9.036 -0.4073  1.1618  1.3666
   50CHL1  H21B 6160   3.605   6.385   9.211  3.5633  2.6193 -0.5710
   50CHL1  H21C 6161   3.534   6.272   9.095 -1.2778  1.5156 -0.4676
   50CHL1   C22 6162   3.781   6.217   8.948  0.3066  0.6044 -0.8031
   50CHL1  H22A 6163   3.762   6.307   8.886  3.9094  3.0999  1.3149
   50CHL1  H22B 6164   3.891   6.200   8.951  0.4498  1.5563  0.6562
   50CHL1   C23 6165   3.689   6.104   8.915 -0.0736  0.3590 -0.6052
   50CHL1  H23A 6166   3.732   6.012   8.961  1.8019  1.5299  0.1048
   50CHL1  H23B 6167   3.598   6.125   8.976  0.3314 -0.2944  0.2560
   50CHL1   C24 6168   3.661   6.099   8.771 -0.1089  0.3131  0.8137
   50CHL1  H24A 6169   3.639   6.200   8.730  0.0539  1.8945  4.3198
   50CHL1  H24B 6170   3.752   6.074   8.712 -0.1216  1.4328  0.2930
   50CHL1   C25 6171   3.563   5.990   8.732 -0.3155 -0.0292 -0.1349
   50CHL1   H25 6172   3.608   5.891   8.752 -0.5070 -0.3374 -1.1526
   50CHL1   C26 6173   3.432   6.008   8.813 -0.4357  0.5236  0.2748
   50CHL1  H26A 6174   3.440   5.984   8.921 -1.5161 -0.1045  0.2236
   50CHL1  H26B 6175   3.386   6.108   8.799 -1.1666  0.3688  1.4063
   50CHL1  H26C 6176   3.360   5.934   8.771  0.9797 -1.1283  0.6116
   50CHL1   C27 6177   3.537   5.995   8.579  0.8922  0.3090 -0.9879
   50CHL1  H27A 6178   3.626   5.958   8.524  0.4027 -1.2692 -0.7858
   50CHL1  H27B 6179   3.451   5.928   8.556  0.1156  0.0046  2.3027
   50CHL1  H27C 6180   3.510   6.090   8.527 -4.7721 -0.6015 -0.4216
   51CHL1    C3 6181   4.358   0.985  10.182 -0.2779 -0.0127 -0.0142
   51CHL1    H3 6182   4.331   0.886  10.139 -1.1898 -0.7289  2.0514
   51CHL1    O3 6183   4.348   0.982  10.318  0.2124 -0.3573 -0.4005
   51CHL1   H3' 6184   4.366   1.071  10.348  0.1358  0.0505 -1.5087
   51CHL1    C4 6185   4.504   1.027  10.145  0.3145 -0.3025 -0.2319
   51CHL1   H4A 6186   4.529   1.118  10.205 -2.3325 -1.8597  3.5962
   51CHL1   H4B 6187   4.574   0.951  10.186  2.2727  0.9243 -1.0914
   51CHL1    C5 6188   4.525   1.047   9.997 -0.0900 -0.4984 -0.0295
   51CHL1    C6 6189   4.621   0.982   9.928  0.6047 -0.0630  0.0870
   51CHL1    H6 6190   4.692   0.919   9.983  2.7943  1.5741 -0.7496
   51CHL1    C7 6191   4.653   0.999   9.782  0.4080  0.0923  1.0622
   51CHL1   H7A 6192   4.760   1.019   9.761 -0.3429  2.0168 -1.2909
   51CHL1   H7B 6193   4.612   0.915   9.722 -1.5502  2.6671 -1.5060
   51CHL1    C8 6194   4.570   1.116   9.717 -0.5011 -0.3984  0.1413
   51CHL1    H8 6195   4.622   1.209   9.748  2.3014 -2.2694  1.4495
   51CHL1   C14 6196   4.577   1.114   9.559  0.6207 -0.1427 -0.3153
   51CHL1   H14 6197   4.519   1.021   9.543 -2.0032  1.5365 -1.3113
   51CHL1   C15 6198   4.718   1.113   9.490  0.0499 -0.1212 -0.0077
   51CHL1  H15A 6199   4.793   1.187   9.525 -1.0782  0.3776  1.4636
   51CHL1  H15B 6200   4.763   1.012   9.490 -0.6819 -0.4952 -2.0113
   51CHL1   C16 6201   4.682   1.156   9.347 -0.1719 -0.2675 -0.1843
   51CHL1  H16A 6202   4.747   1.245   9.334  1.2683 -1.0503  1.2805
   51CHL1  H16B 6203   4.709   1.079   9.271  2.4172  0.1129  0.2604
   51CHL1   C17 6204   4.528   1.186   9.340 -0.1283 -0.8385 -0.4307
   51CHL1   H17 6205   4.477   1.090   9.318  0.1877 -0.7435 -1.6502
   51CHL1   C13 6206   4.490   1.224   9.486 -0.2924  1.2517  0.2476
   51CHL1   C18 6207   4.547   1.360   9.536  0.1263  0.0038  0.0831
   51CHL1  H18A 6208   4.524   1.451   9.477  2.4034  1.6066  1.5533
   51CHL1  H18B 6209   4.514   1.378   9.641  0.0458  0.8498 -0.0794
   51CHL1  H18C 6210   4.657   1.353   9.544  0.3534  2.9069  0.2200
   51CHL1   C12 6211   4.345   1.194   9.532 -0.1295 -0.7618 -0.2568
   51CHL1  H12A 6212   4.269   1.261   9.486 -0.4875 -0.6977  0.4046
   51CHL1  H12B 6213   4.326   1.085   9.522 -0.7793 -0.7364  0.5279
   51CHL1   C11 6214   4.329   1.220   9.691 -0.5000  0.4448  0.3225
   51CHL1  H11A 6215   4.343   1.324   9.727 -1.2660  0.1069  1.6617
   51CHL1  H11B 6216   4.224   1.198   9.718 -0.2425 -1.3632 -0.0226
   51CHL1    C9 6217   4.426   1.122   9.768 -0.1097  0.1486 -1.0860
   51CHL1    H9 6218   4.383   1.026   9.734  0.7804 -0.8797  0.5464
   51CHL1   C10 6219   4.417   1.137   9.928 -0.0384 -0.3737 -0.0529
   51CHL1   C19 6220   4.442   1.285   9.966  0.3486 -0.6490  0.3521
   51CHL1  H19A 6221   4.350   1.345   9.954  0.5901  0.4338  3.2634
   51CHL1  H19B 6222   4.477   1.291  10.071  0.2954 -0.9799  0.3915
   51CHL1  H19C 6223   4.527   1.325   9.907  1.9237 -2.3513  1.3428
   51CHL1    C1 6224   4.278   1.092   9.965  0.2592 -0.0192  0.0588
   51CHL1   H1A 6225   4.203   1.161   9.921  0.2603 -1.1600 -1.8572
   51CHL1   H1B 6226   4.265   0.983   9.946 -1.1526 -0.0136  0.8588
   51CHL1    C2 6227   4.261   1.086  10.121 -0.0024 -0.1233 -0.7230
   51CHL1   H2A 6228   4.160   1.047  10.147 -1.2302  2.6666 -0.9702
   51CHL1   H2B 6229   4.268   1.186  10.169  0.8062  0.3275 -1.7521
   51CHL1   C20 6230   4.499   1.291   9.234 -0.1580 -1.1017  0.3493
   51CHL1   H20 6231   4.530   1.389   9.276 -2.1418  0.2801 -1.1664
   51CHL1   C21 6232   4.344   1.313   9.201  0.5905  0.1826 -0.2223
   51CHL1  H21A 6233   4.297   1.222   9.158 -1.6416  0.9496  0.4289
   51CHL1  H21B 6234   4.334   1.390   9.121 -0.1512 -2.0657 -2.4271
   51CHL1  H21C 6235   4.276   1.335   9.286  1.0522 -1.1041  0.5041
   51CHL1   C22 6236   4.587   1.269   9.101 -0.0023  0.5107 -0.2030
   51CHL1  H22A 6237   4.691   1.305   9.119 -0.4382  3.0559 -2.1266
   51CHL1  H22B 6238   4.573   1.163   9.072  0.2593  0.6452 -0.8234
   51CHL1   C23 6239   4.540   1.346   8.976 -0.0271 -0.0650 -0.6052
   51CHL1  H23A 6240   4.438   1.313   8.948  0.0409 -1.3937  0.5960
   51CHL1  H23B 6241   4.543   1.452   9.009 -1.1849 -0.7176  1.7664
   51CHL1   C24 6242   4.630   1.309   8.855 -0.1379 -0.0926  0.4480
   51CHL1  H24A 6243   4.719   1.373   8.873  0.9997 -1.7528  0.9863
   51CHL1  H24B 6244   4.666   1.205   8.847 -0.0415 -0.1615  1.6054
   51CHL1   C25 6245   4.559   1.348   8.722  0.3386  0.1739  0.7048
   51CHL1   H25 6246   4.519   1.451   8.737  0.2126  0.2358 -0.0158
   51CHL1   C26 6247   4.660   1.358   8.605  0.1437 -0.0505 -0.2419
   51CHL1  H26A 6248   4.684   1.254   8.575  1.3939  0.3223 -0.5849
   51CHL1  H26B 6249   4.632   1.405   8.509  0.1068 -0.2391 -0.3246
   51CHL1  H26C 6250   4.757   1.389   8.648 -0.3015 -0.6180  1.2380
   51CHL1   C27 6251   4.442   1.253   8.680  0.2908 -0.5843  0.1216
   51CHL1  H27A 6252   4.474   1.147   8.671 -0.3078 -0.9345  1.7820
   51CHL1  H27B 6253   4.368   1.247   8.763  0.6911 -2.2367  0.3916
   51CHL1  H27C 6254   4.400   1.286   8.583  4.8569  0.3415 -1.8089
   52CHL1    C3 6255   2.073   0.815   9.901 -0.0814  0.1436  0.1437
   52CHL1    H3 6256   2.178   0.781   9.903 -0.0707  0.1998  1.4215
   52CHL1    O3 6257   2.043   0.841  10.039 -0.0425 -0.3808 -0.7379
   52CHL1   H3' 6258   1.964   0.790  10.059  0.7035 -0.9674  0.8686
   52CHL1    C4 6259   2.067   0.943   9.824 -0.0679 -0.2983  0.1159
   52CHL1   H4A 6260   1.985   1.016   9.846 -1.0218 -1.3832  0.2459
   52CHL1   H4B 6261   2.160   0.991   9.860 -0.3839  2.4015 -2.3203
   52CHL1    C5 6262   2.081   0.937   9.680 -0.1519  0.0583  0.0068
   52CHL1    C6 6263   2.172   1.015   9.618  0.2345  0.3517 -0.7895
   52CHL1    H6 6264   2.236   1.088   9.670  2.8443  0.3839 -3.8092
   52CHL1    C7 6265   2.204   0.999   9.478 -0.3947 -0.2674  0.6389
   52CHL1   H7A 6266   2.217   1.099   9.431 -2.4100 -0.8744 -1.4070
   52CHL1   H7B 6267   2.303   0.951   9.458 -0.1727  1.3910 -3.0633
   52CHL1    C8 6268   2.088   0.926   9.403  0.5656  0.3389 -0.4588
   52CHL1    H8 6269   1.999   0.991   9.407  1.0981  1.0358  1.0633
   52CHL1   C14 6270   2.139   0.895   9.264  0.1532  0.0086  0.0763
   52CHL1   H14 6271   2.225   0.826   9.276  0.2238  0.4773  3.1617
   52CHL1   C15 6272   2.181   1.016   9.180 -0.0108 -0.2484 -0.6157
   52CHL1  H15A 6273   2.099   1.089   9.163 -1.5331 -2.1615 -1.9723
   52CHL1  H15B 6274   2.267   1.069   9.225 -1.0795  2.3077 -1.4088
   52CHL1   C16 6275   2.201   0.949   9.040 -0.4819  0.2816 -0.0426
   52CHL1  H16A 6276   2.152   1.017   8.967 -0.7447  1.3151  1.0484
   52CHL1  H16B 6277   2.308   0.957   9.013 -0.7735  0.7594 -1.0842
   52CHL1   C17 6278   2.146   0.804   9.045 -0.3049 -0.2339 -0.0375
   52CHL1   H17 6279   2.230   0.739   9.076  1.7902  0.9278 -2.8269
   52CHL1   C13 6280   2.051   0.812   9.173  0.0844 -0.0628  0.4908
   52CHL1   C18 6281   1.917   0.885   9.140 -0.1861  0.1849 -0.8480
   52CHL1  H18A 6282   1.849   0.814   9.087  0.3189  0.9221 -2.5404
   52CHL1  H18B 6283   1.871   0.921   9.235  1.5402  0.4860 -0.0967
   52CHL1  H18C 6284   1.941   0.979   9.085 -1.3900  0.1995 -1.3889
   52CHL1   C12 6285   2.031   0.683   9.244  0.5196  0.1101 -0.4008
   52CHL1  H12A 6286   1.969   0.621   9.176 -1.3122 -0.5631  1.7234
   52CHL1  H12B 6287   2.130   0.633   9.250  0.4494 -0.2843 -2.0616
   52CHL1   C11 6288   1.966   0.704   9.384 -0.1331 -0.4991 -0.0769
   52CHL1  H11A 6289   1.867   0.754   9.377 -0.4705 -1.1581 -0.1073
   52CHL1  H11B 6290   1.952   0.605   9.433 -0.2568 -0.0631  0.7758
   52CHL1    C9 6291   2.058   0.795   9.472  0.3451 -0.7768  0.2117
   52CHL1    H9 6292   2.154   0.739   9.484  0.6948 -0.8707 -2.5030
   52CHL1   C10 6293   2.002   0.818   9.615  0.8343  0.3685 -0.7222
   52CHL1   C19 6294   1.856   0.863   9.609 -0.1577 -0.1224  0.3879
   52CHL1  H19A 6295   1.841   0.937   9.527 -0.7950 -1.2387 -0.5411
   52CHL1  H19B 6296   1.801   0.769   9.585 -0.7387  0.4230 -0.4908
   52CHL1  H19C 6297   1.821   0.905   9.706 -0.6128  0.3964  0.0090
   52CHL1    C1 6298   2.003   0.690   9.702  0.0194 -0.6790 -0.2425
   52CHL1   H1A 6299   1.931   0.616   9.662 -2.5920  0.4299  2.0597
   52CHL1   H1B 6300   2.104   0.645   9.694  0.1153 -0.0977 -3.8608
   52CHL1    C2 6301   1.970   0.709   9.854 -0.2264 -0.4149  0.2181
   52CHL1   H2A 6302   1.986   0.611   9.905 -0.0845  0.1418  1.2645
   52CHL1   H2B 6303   1.865   0.740   9.871 -0.7296 -0.4683 -2.3258
   52CHL1   C20 6304   2.088   0.754   8.913  0.3276 -0.0941 -0.6743
   52CHL1   H20 6305   1.986   0.797   8.899  0.0097 -1.1292 -1.6440
   52CHL1   C21 6306   2.070   0.601   8.922 -0.2667  0.4739 -0.9524
   52CHL1  H21A 6307   1.993   0.552   8.985 -1.2128 -1.4871 -3.4639
   52CHL1  H21B 6308   2.165   0.553   8.953  0.1225  1.4491 -0.5669
   52CHL1  H21C 6309   2.028   0.568   8.825  1.2801  0.5069 -1.6711
   52CHL1   C22 6310   2.162   0.794   8.784 -0.1009  0.0802 -0.5510
   52CHL1  H22A 6311   2.186   0.902   8.799  0.5507 -0.2843  1.4117
   52CHL1  H22B 6312   2.254   0.732   8.782  0.3559  0.7563 -1.0062
   52CHL1   C23 6313   2.083   0.785   8.657  0.5136 -0.4964 -0.5217
   52CHL1  H23A 6314   2.143   0.795   8.563 -1.4549  0.1770 -1.7715
   52CHL1  H23B 6315   2.038   0.684   8.649 -0.0270 -0.1635 -2.3244
   52CHL1   C24 6316   1.953   0.878   8.644 -0.7077  0.4164  0.2139
   52CHL1  H24A 6317   1.882   0.872   8.729 -1.2171  1.6151 -0.1205
   52CHL1  H24B 6318   1.984   0.984   8.643  0.7861  0.0329 -1.6114
   52CHL1   C25 6319   1.880   0.858   8.509  0.2355  0.1523  0.6330
   52CHL1   H25 6320   1.878   0.748   8.498  2.0466 -0.0443  1.8877
   52CHL1   C26 6321   1.737   0.911   8.519 -1.1170 -0.3108  0.0606
   52CHL1  H26A 6322   1.681   0.879   8.609  1.0576 -2.7558  0.7000
   52CHL1  H26B 6323   1.741   1.021   8.524 -2.3500 -0.0459 -2.7788
   52CHL1  H26C 6324   1.674   0.868   8.438 -1.9690 -0.6895  0.9012
   52CHL1   C27 6325   1.961   0.930   8.395 -0.3025  0.4034 -0.3901
   52CHL1  H27A 6326   1.904   0.911   8.301 -2.6021 -1.0785  1.1839
   52CHL1  H27B 6327   1.968   1.040   8.401 -1.1541  0.5019 -0.9638
   52CHL1  H27C 6328   2.064   0.888   8.392 -1.0127 -1.5112 -3.9804
   53CHL1    C3 6329   1.042   0.844   9.907 -0.4005  0.4439  0.2331
   53CHL1    H3 6330   0.945   0.790   9.900  0.5378 -1.0883 -2.5271
   53CHL1    O3 6331   1.046   0.900  10.032 -0.2114 -0.1829  0.2673
   53CHL1   H3' 6332   1.140   0.905  10.050  0.3888 -1.2111 -2.1788
   53CHL1    C4 6333   1.160   0.740   9.880 -0.3313  0.5508  0.4330
   53CHL1   H4A 6334   1.261   0.785   9.872  0.9501 -2.4604 -2.6961
   53CHL1   H4B 6335   1.166   0.674   9.970  0.1355  0.2496  0.1826
   53CHL1    C5 6336   1.140   0.679   9.742  0.3765  0.6340  0.1784
   53CHL1    C6 6337   1.123   0.553   9.726  0.1917  0.4537  0.8203
   53CHL1    H6 6338   1.128   0.495   9.819 -0.2146  0.1997  0.6889
   53CHL1    C7 6339   1.109   0.485   9.590  0.7259 -0.7259  0.7547
   53CHL1   H7A 6340   1.176   0.397   9.601  1.1172 -0.2592  2.4703
   53CHL1   H7B 6341   1.006   0.447   9.570  0.8856 -0.7033 -0.1540
   53CHL1    C8 6342   1.154   0.574   9.472 -0.0469 -0.2129 -0.5287
   53CHL1    H8 6343   1.264   0.589   9.479  0.1383  1.9415 -4.9614
   53CHL1   C14 6344   1.121   0.502   9.337  0.0805 -0.6197 -0.0381
   53CHL1   H14 6345   1.012   0.484   9.334  0.2352 -1.4199 -1.6300
   53CHL1   C15 6346   1.189   0.366   9.306  0.2589 -0.3357  0.1348
   53CHL1  H15A 6347   1.298   0.369   9.326  0.2419  1.2328  0.1134
   53CHL1  H15B 6348   1.125   0.300   9.370  2.5001 -1.1164  1.6929
   53CHL1   C16 6349   1.173   0.367   9.151  0.5350  0.5188  0.2518
   53CHL1  H16A 6350   1.277   0.363   9.112 -0.3883  0.1261 -2.3908
   53CHL1  H16B 6351   1.121   0.274   9.121  0.8398  0.5750 -0.4719
   53CHL1   C17 6352   1.109   0.496   9.098  0.1032 -0.0530  1.0271
   53CHL1   H17 6353   0.999   0.483   9.109 -0.0979 -0.0176 -0.7139
   53CHL1   C13 6354   1.145   0.594   9.212  0.9557 -0.1696  0.6148
   53CHL1   C18 6355   1.296   0.636   9.205 -0.2708  0.0175 -0.1907
   53CHL1  H18A 6356   1.362   0.548   9.219 -1.2142 -1.0600 -2.0506
   53CHL1  H18B 6357   1.328   0.673   9.105 -1.4247 -0.0363 -0.5950
   53CHL1  H18C 6358   1.328   0.699   9.290 -1.2670 -1.2760  1.2092
   53CHL1   C12 6359   1.058   0.720   9.235 -0.0646 -0.1630  0.1476
   53CHL1  H12A 6360   1.038   0.781   9.144 -4.0973 -1.6378 -0.1787
   53CHL1  H12B 6361   0.953   0.685   9.249  0.6010 -2.4593 -0.2038
   53CHL1   C11 6362   1.096   0.807   9.354  0.3179 -0.1646  0.4991
   53CHL1  H11A 6363   1.197   0.848   9.332 -0.3933  0.9088 -0.8561
   53CHL1  H11B 6364   1.025   0.892   9.361 -0.1093 -0.5385  0.7522
   53CHL1    C9 6365   1.086   0.715   9.488 -0.2160  0.6602  0.0652
   53CHL1    H9 6366   0.977   0.699   9.504 -0.1615 -2.4102 -1.7533
   53CHL1   C10 6367   1.135   0.781   9.618  0.6394  0.1881 -0.1169
   53CHL1   C19 6368   1.276   0.844   9.603  0.2931  0.1140 -0.6301
   53CHL1  H19A 6369   1.353   0.765   9.594  1.0319  0.3019  2.7660
   53CHL1  H19B 6370   1.270   0.920   9.522 -0.1006  0.5284 -0.2200
   53CHL1  H19C 6371   1.299   0.898   9.697 -0.7611 -1.4849  0.6016
   53CHL1    C1 6372   1.034   0.891   9.659  0.0965 -0.1821  0.4524
   53CHL1   H1A 6373   1.036   0.972   9.582 -0.9247  0.1630  0.7728
   53CHL1   H1B 6374   0.932   0.847   9.657 -0.0553  0.1907 -0.2740
   53CHL1    C2 6375   1.043   0.949   9.800 -0.4223 -0.2891 -0.0830
   53CHL1   H2A 6376   0.953   1.013   9.811 -1.0832 -0.9924 -1.2578
   53CHL1   H2B 6377   1.133   1.014   9.807  0.3758 -1.4440  0.9504
   53CHL1   C20 6378   1.136   0.530   8.948 -0.7692  0.2482 -0.8973
   53CHL1   H20 6379   1.244   0.528   8.924 -0.7753 -1.1276 -0.9089
   53CHL1   C21 6380   1.085   0.668   8.914 -0.1983 -0.2685 -0.1995
   53CHL1  H21A 6381   0.983   0.688   8.953  0.0181  1.7280 -0.5478
   53CHL1  H21B 6382   1.091   0.685   8.804  2.8919 -0.7745 -0.1965
   53CHL1  H21C 6383   1.154   0.746   8.951  1.8718 -1.2824 -1.7352
   53CHL1   C22 6384   1.072   0.420   8.861 -0.9161 -0.4608 -0.1499
   53CHL1  H22A 6385   1.128   0.325   8.875  1.2446  0.6150 -1.0884
   53CHL1  H22B 6386   0.972   0.384   8.892 -1.4548 -0.8100 -2.1259
   53CHL1   C23 6387   1.053   0.456   8.713 -0.2101  0.1020  0.4867
   53CHL1  H23A 6388   0.987   0.544   8.693 -0.7403 -0.6338 -1.1525
   53CHL1  H23B 6389   1.150   0.474   8.663 -0.9644  0.2182 -0.9825
   53CHL1   C24 6390   0.998   0.337   8.634  0.4687 -1.4733 -0.3474
   53CHL1  H24A 6391   0.906   0.299   8.684  0.1704  0.0792  0.3425
   53CHL1  H24B 6392   0.955   0.371   8.537  0.7650  2.0165  0.6213
   53CHL1   C25 6393   1.106   0.227   8.606 -0.4811  0.3466  0.3759
   53CHL1   H25 6394   1.167   0.230   8.699 -0.0865  0.3151  0.1196
   53CHL1   C26 6395   1.035   0.094   8.581 -0.2743 -0.7222 -0.1138
   53CHL1  H26A 6396   0.988   0.057   8.675 -2.6343  2.4893  0.1283
   53CHL1  H26B 6397   0.955   0.108   8.505  1.4797  2.0233 -1.6073
   53CHL1  H26C 6398   1.104   0.021   8.534  1.7905  0.4908  0.9051
   53CHL1   C27 6399   1.194   0.275   8.494 -0.5934 -0.6183  0.3759
   53CHL1  H27A 6400   1.135   0.281   8.400 -0.7143  0.4790  0.5026
   53CHL1  H27B 6401   1.237   0.377   8.507  0.5280 -1.1394  0.8736
   53CHL1  H27C 6402   1.285   0.212   8.483 -0.8269 -0.6116 -2.6011
   54CHL1    C3 6403   1.079   1.258  10.110  0.0649 -0.2985 -0.4001
   54CHL1    H3 6404   1.063   1.153  10.076  1.0897 -0.1882 -1.2822
   54CHL1    O3 6405   1.056   1.268  10.250  0.0150 -0.3847 -0.0102
   54CHL1   H3' 6406   1.050   1.362  10.266  0.1731 -0.4609  0.4935
   54CHL1    C4 6407   1.224   1.303  10.085 -0.4596  0.1333 -0.4009
   54CHL1   H4A 6408   1.240   1.411  10.108 -1.4183  0.0623  0.6771
   54CHL1   H4B 6409   1.299   1.244  10.142  0.7391  1.3926 -0.6121
   54CHL1    C5 6410   1.249   1.295   9.937  0.4836  0.0926  0.3859
   54CHL1    C6 6411   1.346   1.214   9.880  0.5687  0.3580  0.4768
   54CHL1    H6 6412   1.419   1.162   9.944  0.8081 -0.8838 -0.7395
   54CHL1    C7 6413   1.383   1.197   9.734 -0.0962  0.7930  0.1891
   54CHL1   H7A 6414   1.493   1.184   9.720 -0.1266  1.3758 -0.6997
   54CHL1   H7B 6415   1.352   1.093   9.709  1.2790  0.3473  0.2522
   54CHL1    C8 6416   1.303   1.293   9.638 -0.4219  0.3090  1.0005
   54CHL1    H8 6417   1.348   1.395   9.630 -0.9077  0.4769  0.2304
   54CHL1   C14 6418   1.286   1.240   9.498 -1.0688  0.0325  0.1650
   54CHL1   H14 6419   1.232   1.143   9.509  1.1108 -1.4211 -1.1258
   54CHL1   C15 6420   1.423   1.199   9.430  0.1946 -0.2836  0.9187
   54CHL1  H15A 6421   1.505   1.273   9.431  1.3505 -1.5154  0.9624
   54CHL1  H15B 6422   1.453   1.110   9.489  0.5189 -1.1601 -0.5117
   54CHL1   C16 6423   1.372   1.158   9.287 -0.3162 -0.1069 -0.1962
   54CHL1  H16A 6424   1.435   1.196   9.203 -1.5340 -0.5761 -1.3681
   54CHL1  H16B 6425   1.369   1.047   9.286  0.3636 -0.1371  0.3043
   54CHL1   C17 6426   1.222   1.206   9.279  0.0014 -0.3929 -0.1670
   54CHL1   H17 6427   1.149   1.129   9.313  0.8539 -0.7942  0.7925
   54CHL1   C13 6428   1.212   1.311   9.395  0.1421  0.3366 -0.2433
   54CHL1   C18 6429   1.281   1.447   9.346  0.1894 -0.6456  0.4588
   54CHL1  H18A 6430   1.228   1.507   9.269  1.7176  0.3287  0.1176
   54CHL1  H18B 6431   1.279   1.525   9.425 -3.9918  1.1494 -1.1485
   54CHL1  H18C 6432   1.389   1.442   9.320  0.2896  4.9187 -1.3601
   54CHL1   C12 6433   1.068   1.337   9.454  0.2860  0.0952 -0.2531
   54CHL1  H12A 6434   1.027   1.416   9.389  0.8028 -1.2347 -2.2804
   54CHL1  H12B 6435   1.004   1.245   9.454 -0.3353  0.5171  0.1047
   54CHL1   C11 6436   1.080   1.396   9.599  0.0779 -0.5134  0.1279
   54CHL1  H11A 6437   1.128   1.496   9.592  1.6446 -1.1305  1.3732
   54CHL1  H11B 6438   0.977   1.412   9.637  0.8385 -0.8793  2.5687
   54CHL1    C9 6439   1.164   1.313   9.697 -0.3758  0.0478 -0.6404
   54CHL1    H9 6440   1.125   1.209   9.704 -0.4162 -0.1994 -3.5512
   54CHL1   C10 6441   1.155   1.368   9.843 -0.4949  0.3095 -0.4807
   54CHL1   C19 6442   1.191   1.516   9.841 -0.3095  0.7139  0.3757
   54CHL1  H19A 6443   1.300   1.536   9.826 -0.0312 -0.8726  0.1080
   54CHL1  H19B 6444   1.142   1.575   9.761  0.8039 -0.3297 -1.1298
   54CHL1  H19C 6445   1.155   1.565   9.934 -0.7198 -0.4778  0.8600
   54CHL1    C1 6446   1.008   1.345   9.893 -0.3789 -0.1623 -0.5254
   54CHL1   H1A 6447   0.939   1.411   9.836  0.1408  0.4626 -0.4516
   54CHL1   H1B 6448   0.977   1.240   9.879 -0.8145 -0.0631 -0.3100
   54CHL1    C2 6449   0.994   1.361  10.039 -0.2326  0.3127 -0.2417
   54CHL1   H2A 6450   0.888   1.342  10.064 -0.4878 -1.2942 -2.2642
   54CHL1   H2B 6451   1.039   1.456  10.076  3.2852 -1.2690  0.0152
   54CHL1   C20 6452   1.181   1.245   9.140  0.0676  0.2110 -0.4969
   54CHL1   H20 6453   1.247   1.326   9.103  0.1101  0.7466  0.7265
   54CHL1   C21 6454   1.033   1.293   9.140  0.0715  0.4133  0.0107
   54CHL1  H21A 6455   0.991   1.323   9.042 -0.4308 -0.0105  0.0921
   54CHL1  H21B 6456   1.029   1.384   9.205  1.3602 -0.2392  1.0599
   54CHL1  H21C 6457   0.962   1.222   9.187 -1.5850  1.5682 -0.6579
   54CHL1   C22 6458   1.190   1.122   9.044  0.5268  0.0087  0.0009
   54CHL1  H22A 6459   1.297   1.097   9.027  1.1140  0.3705  2.6599
   54CHL1  H22B 6460   1.142   1.030   9.085  3.1324 -1.3731  0.1394
   54CHL1   C23 6461   1.117   1.140   8.900  0.5730  0.7360 -0.4694
   54CHL1  H23A 6462   1.007   1.137   8.916  0.4728 -1.0274 -1.2970
   54CHL1  H23B 6463   1.149   1.239   8.859 -1.1745  1.1378 -0.9693
   54CHL1   C24 6464   1.154   1.022   8.802  0.2485  0.0314  0.1374
   54CHL1  H24A 6465   1.264   1.029   8.786  0.7148 -0.3150  2.7542
   54CHL1  H24B 6466   1.124   0.930   8.856  0.7882 -2.3875 -3.4299
   54CHL1   C25 6467   1.074   1.018   8.668  0.8067  0.0152 -0.0553
   54CHL1   H25 6468   1.060   1.125   8.640  0.4811 -0.4735 -1.9401
   54CHL1   C26 6469   1.150   0.938   8.562  0.5627  0.0512 -0.2969
   54CHL1  H26A 6470   1.259   0.960   8.555  0.5312  0.4159  0.3013
   54CHL1  H26B 6471   1.130   0.832   8.591 -0.6913  0.0604 -1.0562
   54CHL1  H26C 6472   1.102   0.953   8.463  0.1814 -2.7405 -0.6218
   54CHL1   C27 6473   0.931   0.970   8.689 -1.1675  0.2298 -0.2087
   54CHL1  H27A 6474   0.887   0.968   8.587 -1.6803 -1.2566  0.0268
   54CHL1  H27B 6475   0.955   0.867   8.723  1.0855  0.0010 -2.1842
   54CHL1  H27C 6476   0.875   1.018   8.772 -1.1142 -0.4517  0.2315
   55CHL1    C3 6477   3.718   5.831   9.953  0.3127 -0.4097 -0.2702
   55CHL1    H3 6478   3.792   5.876   9.883 -0.4919  1.9515  0.2854
   55CHL1    O3 6479   3.741   5.871  10.082  0.7110  0.4362 -0.1779
   55CHL1   H3' 6480   3.665   5.840  10.132 -0.3757  2.5702 -0.3762
   55CHL1    C4 6481   3.583   5.874   9.906 -1.0481 -0.0539 -0.3436
   55CHL1   H4A 6482   3.507   5.816   9.962 -2.3016 -0.4543 -2.3551
   55CHL1   H4B 6483   3.557   5.977   9.938  0.6165  0.4042 -0.3779
   55CHL1    C5 6484   3.562   5.844   9.759  0.1800  0.4602 -0.1627
   55CHL1    C6 6485   3.532   5.942   9.674 -0.3104 -0.7413  0.2119
   55CHL1    H6 6486   3.509   6.046   9.703 -0.7350 -0.1548 -2.0284
   55CHL1    C7 6487   3.521   5.917   9.526 -0.2495  0.1216 -0.1672
   55CHL1   H7A 6488   3.424   5.961   9.494 -0.6814 -0.5403  0.2024
   55CHL1   H7B 6489   3.600   5.968   9.468  1.2326 -1.2244  0.5991
   55CHL1    C8 6490   3.519   5.769   9.496 -0.0055 -0.4729  0.1364
   55CHL1    H8 6491   3.416   5.749   9.532  0.1956  0.7027  1.4076
   55CHL1   C14 6492   3.548   5.749   9.349  0.2303  0.2330  0.3947
   55CHL1   H14 6493   3.653   5.785   9.346  0.2046  0.3293  0.6171
   55CHL1   C15 6494   3.469   5.846   9.245  0.0495 -0.3677  1.0454
   55CHL1  H15A 6495   3.359   5.839   9.250 -0.2741 -1.6646 -3.6468
   55CHL1  H15B 6496   3.500   5.953   9.249 -0.7287 -0.1537  1.4665
   55CHL1   C16 6497   3.507   5.784   9.112 -0.0448  0.0760 -0.0916
   55CHL1  H16A 6498   3.414   5.774   9.051  0.7989  1.4300 -1.6728
   55CHL1  H16B 6499   3.560   5.851   9.041 -3.2208  1.3256 -1.4914
   55CHL1   C17 6500   3.583   5.648   9.150 -0.0487  0.6583  1.1103
   55CHL1   H17 6501   3.691   5.671   9.149  0.7466 -2.5914  0.0626
   55CHL1   C13 6502   3.554   5.607   9.290  0.0475 -0.5436 -0.3166
   55CHL1   C18 6503   3.404   5.550   9.304  0.2641 -0.4067  0.3010
   55CHL1  H18A 6504   3.381   5.533   9.411 -2.1326 -2.0515 -0.3831
   55CHL1  H18B 6505   3.324   5.621   9.275 -0.4957 -0.3955  2.2657
   55CHL1  H18C 6506   3.376   5.454   9.254 -0.2686  0.9665 -2.2262
   55CHL1   C12 6507   3.656   5.530   9.371 -0.1355  0.2273  0.2816
   55CHL1  H12A 6508   3.632   5.425   9.344 -0.5959  0.3936  0.0318
   55CHL1  H12B 6509   3.763   5.554   9.353  0.2142 -0.2288  1.6574
   55CHL1   C11 6510   3.631   5.546   9.518 -0.3445  0.0554 -0.3201
   55CHL1  H11A 6511   3.540   5.492   9.550  0.3623 -0.9069  0.1306
   55CHL1  H11B 6512   3.713   5.491   9.570  0.2433  1.6340  0.4799
   55CHL1    C9 6513   3.615   5.688   9.572 -0.6127 -0.6829 -0.6447
   55CHL1    H9 6514   3.717   5.730   9.556 -0.0087 -2.1246 -0.7371
   55CHL1   C10 6515   3.595   5.696   9.729  0.4221  0.3978 -0.0613
   55CHL1   C19 6516   3.467   5.623   9.774  0.8397  0.2699 -0.7862
   55CHL1  H19A 6517   3.373   5.674   9.744  1.1745  0.6501 -1.1979
   55CHL1  H19B 6518   3.462   5.520   9.733 -0.0831  0.4380 -1.1244
   55CHL1  H19C 6519   3.461   5.623   9.885  1.9923  1.2848 -0.7032
   55CHL1    C1 6520   3.718   5.638   9.801 -0.2329 -0.1321 -0.1614
   55CHL1   H1A 6521   3.705   5.529   9.790 -2.2743 -0.3116  2.8610
   55CHL1   H1B 6522   3.807   5.686   9.754 -1.1870  1.2004 -0.6962
   55CHL1    C2 6523   3.731   5.682   9.946 -0.2681  0.9994 -0.2328
   55CHL1   H2A 6524   3.828   5.653   9.991 -0.1080  0.4683 -0.9062
   55CHL1   H2B 6525   3.645   5.633   9.995 -0.8582  0.8002 -1.4400
   55CHL1   C20 6526   3.560   5.546   9.033 -1.2710  0.0537  0.0882
   55CHL1   H20 6527   3.452   5.527   9.016 -1.3322  0.2750  0.2301
   55CHL1   C21 6528   3.626   5.407   9.066  0.1132 -0.2063  0.7992
   55CHL1  H21A 6529   3.626   5.340   8.977  0.5127  2.5797 -1.4661
   55CHL1  H21B 6530   3.575   5.355   9.149 -3.4686  0.4545 -0.8171
   55CHL1  H21C 6531   3.731   5.436   9.089  0.6194  0.6453 -2.1251
   55CHL1   C22 6532   3.622   5.598   8.901  0.2289  0.8840  0.1117
   55CHL1  H22A 6533   3.607   5.706   8.882  0.8522  0.9062 -0.2777
   55CHL1  H22B 6534   3.731   5.583   8.909  0.0005 -0.9298  0.3998
   55CHL1   C23 6535   3.567   5.527   8.779  0.3537 -0.0934  0.3409
   55CHL1  H23A 6536   3.587   5.417   8.782 -0.2644 -0.2223  0.0363
   55CHL1  H23B 6537   3.456   5.532   8.768  0.1205  2.0804  2.8875
   55CHL1   C24 6538   3.624   5.583   8.654 -0.7949  0.0769  0.5587
   55CHL1  H24A 6539   3.622   5.693   8.672 -2.6755  0.1084  0.3794
   55CHL1  H24B 6540   3.729   5.547   8.656 -0.2997  1.2560 -1.2524
   55CHL1   C25 6541   3.559   5.542   8.513 -0.1105  0.5197  0.3082
   55CHL1   H25 6542   3.451   5.538   8.536 -0.6272 -0.0804 -1.9730
   55CHL1   C26 6543   3.576   5.656   8.415  0.4437  0.2205 -0.0152
   55CHL1  H26A 6544   3.682   5.690   8.417  0.6055 -0.3015  1.9749
   55CHL1  H26B 6545   3.553   5.610   8.316  2.1242 -1.2732  0.2324
   55CHL1  H26C 6546   3.501   5.733   8.443 -0.2026 -0.2635 -0.3667
   55CHL1   C27 6547   3.601   5.401   8.461  0.1841 -0.0910 -0.1028
   55CHL1  H27A 6548   3.604   5.323   8.540 -0.8535  0.4520  0.4988
   55CHL1  H27B 6549   3.547   5.367   8.371 -2.4008 -0.9563  1.6428
   55CHL1  H27C 6550   3.707   5.417   8.435  0.4195  0.0599  0.9058
   56CHL1    C3 6551   1.776   3.799   9.976  0.1302 -0.7865  0.2898
   56CHL1    H3 6552   1.886   3.785   9.968  0.2842  0.5394 -0.1098
   56CHL1    O3 6553   1.732   3.778  10.107  0.1958 -0.2883 -0.4403
   56CHL1   H3' 6554   1.638   3.756  10.105  0.8522 -4.1226  1.1775
   56CHL1    C4 6555   1.745   3.940   9.939  0.2083  0.0583  0.1138
   56CHL1   H4A 6556   1.640   3.968   9.961  0.0660  0.1826 -0.6939
   56CHL1   H4B 6557   1.808   4.000  10.009  1.2455 -2.4791  1.4878
   56CHL1    C5 6558   1.759   3.980   9.793 -0.6068  0.8278  0.1684
   56CHL1    C6 6559   1.838   4.080   9.756 -0.2929 -0.1976  0.5900
   56CHL1    H6 6560   1.897   4.148   9.819  1.8534  0.1451 -1.5861
   56CHL1    C7 6561   1.862   4.106   9.612  0.6742  0.2139  0.8252
   56CHL1   H7A 6562   1.863   4.217   9.604 -1.3422  0.1280 -2.6113
   56CHL1   H7B 6563   1.960   4.063   9.581 -0.5408 -1.1266 -1.3821
   56CHL1    C8 6564   1.767   4.042   9.510 -0.3282 -0.6951  0.3550
   56CHL1    H8 6565   1.674   4.102   9.504  1.0727  1.4005 -2.7199
   56CHL1   C14 6566   1.836   4.042   9.371 -0.0089 -0.1884  0.4354
   56CHL1   H14 6567   1.923   3.973   9.375 -0.4237 -1.0823 -2.6631
   56CHL1   C15 6568   1.891   4.177   9.327 -0.4534  0.2857  0.2568
   56CHL1  H15A 6569   1.829   4.265   9.357 -1.6785 -1.1740  2.2621
   56CHL1  H15B 6570   1.988   4.198   9.377 -0.8441  0.2347  1.0641
   56CHL1   C16 6571   1.909   4.161   9.175 -0.4518  0.8138  0.2406
   56CHL1  H16A 6572   1.835   4.237   9.142 -2.0549  0.3855  2.5781
   56CHL1  H16B 6573   2.010   4.179   9.134  0.0037 -0.0910  0.9386
   56CHL1   C17 6574   1.837   4.025   9.138 -0.1068 -0.4057 -0.0718
   56CHL1   H17 6575   1.920   3.952   9.149 -0.1867 -0.3579  0.9543
   56CHL1   C13 6576   1.739   4.002   9.263 -0.4715 -0.1684  0.0307
   56CHL1   C18 6577   1.617   4.095   9.248  0.9544 -0.4128  0.0013
   56CHL1  H18A 6578   1.640   4.202   9.235 -1.5304  0.1973  0.0803
   56CHL1  H18B 6579   1.556   4.058   9.163 -0.1958  2.0797 -0.3248
   56CHL1  H18C 6580   1.553   4.088   9.338  1.9782 -1.6167  0.6761
   56CHL1   C12 6581   1.696   3.859   9.299 -0.0401  0.7475 -0.2862
   56CHL1  H12A 6582   1.619   3.822   9.228  0.5125 -0.4289 -0.2953
   56CHL1  H12B 6583   1.784   3.792   9.294 -0.7586 -0.3373  0.9971
   56CHL1   C11 6584   1.640   3.834   9.439  0.1474  0.1647  0.5729
   56CHL1  H11A 6585   1.543   3.887   9.441 -0.1818 -0.2443 -1.6135
   56CHL1  H11B 6586   1.634   3.725   9.457  2.6239 -0.5552 -2.2096
   56CHL1    C9 6587   1.734   3.903   9.541  0.6930  0.0725  0.2556
   56CHL1    H9 6588   1.834   3.856   9.536  1.0960  0.7470  1.7559
   56CHL1   C10 6589   1.695   3.883   9.694 -0.0242 -0.0749 -0.0355
   56CHL1   C19 6590   1.550   3.908   9.714  0.2619 -0.2045 -0.4646
   56CHL1  H19A 6591   1.490   3.851   9.641  0.7123 -0.7566 -0.4065
   56CHL1  H19B 6592   1.510   3.891   9.817 -2.6440 -0.2325 -1.5186
   56CHL1  H19C 6593   1.527   4.017   9.711  0.3118 -0.0621  2.1072
   56CHL1    C1 6594   1.743   3.734   9.738  0.0108 -0.4102 -0.1299
   56CHL1   H1A 6595   1.675   3.658   9.693 -1.7031 -0.1269  1.8565
   56CHL1   H1B 6596   1.848   3.723   9.704  0.5088  0.7612  0.9536
   56CHL1    C2 6597   1.712   3.698   9.884  0.1543  0.0669  0.0470
   56CHL1   H2A 6598   1.752   3.597   9.908 -0.1836 -0.2019 -0.5041
   56CHL1   H2B 6599   1.605   3.696   9.911 -0.4504  1.5495 -2.0017
   56CHL1   C20 6600   1.779   4.019   8.992 -0.3316 -0.5653  0.0510
   56CHL1   H20 6601   1.685   4.077   8.986  2.1684  3.9014 -0.0747
   56CHL1   C21 6602   1.748   3.873   8.957  0.6865  0.0584  0.3134
   56CHL1  H21A 6603   1.661   3.873   8.888  0.4223 -0.7884  0.6388
   56CHL1  H21B 6604   1.732   3.810   9.047 -0.0512 -0.2498 -0.0316
   56CHL1  H21C 6605   1.832   3.831   8.897 -0.4143  3.1904 -3.9560
   56CHL1   C22 6606   1.879   4.085   8.884  0.7469  0.2815 -0.6621
   56CHL1  H22A 6607   1.877   4.195   8.901  1.0510  0.2476 -0.3993
   56CHL1  H22B 6608   1.981   4.044   8.899  0.3892  0.1090  1.5725
   56CHL1   C23 6609   1.837   4.063   8.736 -0.8921  0.0604 -0.1891
   56CHL1  H23A 6610   1.824   3.956   8.710 -3.1145  0.3110 -0.3831
   56CHL1  H23B 6611   1.738   4.108   8.713 -0.0660  1.5747 -0.9001
   56CHL1   C24 6612   1.942   4.120   8.641  0.6197 -0.8346 -0.2058
   56CHL1  H24A 6613   1.935   4.228   8.668  1.4971 -1.3766  2.4459
   56CHL1  H24B 6614   2.042   4.088   8.677  0.5525 -1.7377 -0.7857
   56CHL1   C25 6615   1.916   4.087   8.492  0.1417 -0.5549 -0.0995
   56CHL1   H25 6616   1.924   3.977   8.486  2.2985 -0.4015 -0.7242
   56CHL1   C26 6617   1.779   4.126   8.434  0.5807  0.7274  0.2148
   56CHL1  H26A 6618   1.734   4.209   8.494  0.1121  0.1305  0.7011
   56CHL1  H26B 6619   1.786   4.146   8.325 -3.0316 -0.3311 -0.3431
   56CHL1  H26C 6620   1.708   4.040   8.430  0.7524  0.6363 -1.6253
   56CHL1   C27 6621   2.044   4.135   8.412  0.4808 -0.2482 -0.4689
   56CHL1  H27A 6622   2.055   4.242   8.439 -0.9357 -0.4699  1.1786
   56CHL1  H27B 6623   2.130   4.072   8.444  0.8803 -1.3779 -3.4589
   56CHL1  H27C 6624   2.023   4.120   8.304  0.7604 -1.0569 -0.4187
   57CHL1    C3 6625   3.759   5.194  10.269  0.3850 -0.8932 -0.0073
   57CHL1    H3 6626   3.654   5.203  10.232  0.7800 -0.5313 -1.0509
   57CHL1    O3 6627   3.754   5.206  10.415  0.3553 -1.0428  0.0534
   57CHL1   H3' 6628   3.727   5.298  10.415 -1.5059 -1.5518  0.9890
   57CHL1    C4 6629   3.821   5.059  10.235 -0.5622 -0.0740  0.8368
   57CHL1   H4A 6630   3.927   5.065  10.269 -0.3816  1.9107  0.0937
   57CHL1   H4B 6631   3.770   4.975  10.287 -1.1780  0.5021  1.1784
   57CHL1    C5 6632   3.817   5.048  10.082 -0.1861  0.1559 -0.6037
   57CHL1    C6 6633   3.763   4.940  10.020  0.4263  0.2513 -0.3223
   57CHL1    H6 6634   3.709   4.865  10.080 -1.5367  0.5067 -1.6698
   57CHL1    C7 6635   3.762   4.912   9.872 -0.2036  0.6942 -0.5448
   57CHL1   H7A 6636   3.789   4.807   9.849 -2.9164 -0.1101 -0.4340
   57CHL1   H7B 6637   3.660   4.931   9.831 -0.6159  0.6170  0.4111
   57CHL1    C8 6638   3.849   5.006   9.796  0.2393  0.1704 -0.6401
   57CHL1    H8 6639   3.951   4.963   9.803 -0.3322 -1.3064 -0.8538
   57CHL1   C14 6640   3.817   5.007   9.646 -1.1336 -0.6966 -0.1340
   57CHL1   H14 6641   3.712   5.044   9.646 -0.4381  1.4436  1.0618
   57CHL1   C15 6642   3.812   4.864   9.583 -0.7638 -0.6228 -0.1861
   57CHL1  H15A 6643   3.914   4.821   9.596 -0.6766 -0.4025 -0.1298
   57CHL1  H15B 6644   3.737   4.803   9.638 -0.7952  0.5900  1.1725
   57CHL1   C16 6645   3.788   4.903   9.436 -0.0924  0.7939 -0.3776
   57CHL1  H16A 6646   3.845   4.835   9.369  0.9205  0.5755  0.6677
   57CHL1  H16B 6647   3.684   4.882   9.405  0.3483  0.9566 -2.0304
   57CHL1   C17 6648   3.816   5.058   9.424  0.3683 -0.9900 -0.0345
   57CHL1   H17 6649   3.715   5.103   9.431 -0.3165 -2.4083 -0.4550
   57CHL1   C13 6650   3.891   5.100   9.550  0.2020 -0.5277 -0.8210
   57CHL1   C18 6651   4.036   5.066   9.543 -0.4693 -0.0816  0.3901
   57CHL1  H18A 6652   4.054   4.971   9.489  2.1257 -0.2930  1.4900
   57CHL1  H18B 6653   4.094   5.140   9.485  0.2667 -0.3436  0.7794
   57CHL1  H18C 6654   4.086   5.043   9.639  2.6786  0.7788 -0.9170
   57CHL1   C12 6655   3.871   5.243   9.619  0.2741 -0.4425  0.8505
   57CHL1  H12A 6656   3.916   5.318   9.551 -2.3778  0.5379  0.0988
   57CHL1  H12B 6657   3.762   5.259   9.618 -0.2440 -3.1460 -1.9303
   57CHL1   C11 6658   3.934   5.252   9.762  0.4958  0.2967  0.3457
   57CHL1  H11A 6659   4.037   5.211   9.758  0.3965 -0.3675  2.9454
   57CHL1  H11B 6660   3.940   5.357   9.798  2.3577  0.2678  0.2314
   57CHL1    C9 6661   3.845   5.150   9.850 -0.1585 -0.2956  0.2858
   57CHL1    H9 6662   3.738   5.177   9.853 -0.2091 -0.5332  0.7173
   57CHL1   C10 6663   3.883   5.161  10.000 -0.1374  0.4759 -0.0363
   57CHL1   C19 6664   4.036   5.146  10.019 -0.2550 -0.3881  0.2710
   57CHL1  H19A 6665   4.083   5.064   9.961  1.8468 -0.3070  1.7631
   57CHL1  H19B 6666   4.090   5.242  10.002  0.2565 -0.9540 -1.5584
   57CHL1  H19C 6667   4.057   5.118  10.124 -0.5735 -3.0923 -0.3125
   57CHL1    C1 6668   3.835   5.300  10.057  0.8170 -0.2104  0.1091
   57CHL1   H1A 6669   3.909   5.369  10.011  0.5732  0.0869  0.1596
   57CHL1   H1B 6670   3.737   5.333  10.017 -0.2112 -1.2516  1.6680
   57CHL1    C2 6671   3.835   5.310  10.210 -0.0899 -0.3242 -0.3926
   57CHL1   H2A 6672   3.788   5.406  10.239  0.4861 -0.3217  0.5579
   57CHL1   H2B 6673   3.936   5.331  10.252 -0.2862  1.9101 -0.8794
   57CHL1   C20 6674   3.870   5.093   9.279  0.5098  0.4259  0.0554
   57CHL1   H20 6675   3.967   5.044   9.254  0.5433  0.3136  0.3915
   57CHL1   C21 6676   3.889   5.248   9.275 -0.3142  0.1535 -0.0618
   57CHL1  H21A 6677   3.896   5.280   9.168 -1.4719  0.9627  0.0899
   57CHL1  H21B 6678   3.982   5.273   9.330  0.5707 -1.3447 -0.7902
   57CHL1  H21C 6679   3.806   5.298   9.328  0.7425 -0.2626  2.0676
   57CHL1   C22 6680   3.769   5.043   9.175 -1.0276 -0.0927 -0.7672
   57CHL1  H22A 6681   3.713   4.956   9.216  1.2368 -1.6853 -0.8166
   57CHL1  H22B 6682   3.693   5.122   9.161 -1.9483 -0.6081  1.0708
   57CHL1   C23 6683   3.841   5.001   9.044 -0.7246 -0.3098 -0.6030
   57CHL1  H23A 6684   3.897   4.907   9.059  1.3624  0.9857  0.1912
   57CHL1  H23B 6685   3.749   4.972   8.990 -3.1339 -0.5912  3.2282
   57CHL1   C24 6686   3.927   5.105   8.962 -1.1441  0.0902 -0.0316
   57CHL1  H24A 6687   3.863   5.196   8.954 -1.2086  0.0837  0.3792
   57CHL1  H24B 6688   4.020   5.130   9.017 -0.0062  0.6793 -2.1315
   57CHL1   C25 6689   3.955   5.055   8.822 -1.1307  0.1743 -0.3975
   57CHL1   H25 6690   3.858   5.032   8.773 -0.4053  0.4028 -2.0168
   57CHL1   C26 6691   4.008   5.174   8.732  0.8683 -0.8574 -0.0269
   57CHL1  H26A 6692   4.090   5.237   8.771  2.1833 -1.7505 -1.2200
   57CHL1  H26B 6693   4.032   5.149   8.626  0.5476  0.1468 -0.3483
   57CHL1  H26C 6694   3.920   5.242   8.733  1.0610 -0.5699 -0.9392
   57CHL1   C27 6695   4.049   4.937   8.808 -0.3313  0.4598  0.1587
   57CHL1  H27A 6696   4.048   4.893   8.706  0.6301  0.0923  0.2910
   57CHL1  H27B 6697   4.149   4.969   8.844 -0.4287  0.1035  0.7710
   57CHL1  H27C 6698   4.028   4.848   8.871 -0.2163 -1.5672 -2.4830
   58CHL1    C3 6699   5.420   3.995   9.940  0.1789 -0.6160 -0.6666
   58CHL1    H3 6700   5.315   4.013   9.972  1.0558  2.4515  0.8333
   58CHL1    O3 6701   5.500   3.955  10.048 -0.2022  0.3277  0.1083
   58CHL1   H3' 6702   5.465   3.873  10.084 -1.1567  0.2224 -1.0009
   58CHL1    C4 6703   5.431   3.890   9.824  0.1575  0.4495  0.0905
   58CHL1   H4A 6704   5.531   3.848   9.803 -0.8010 -2.2911  0.5489
   58CHL1   H4B 6705   5.376   3.803   9.866  0.2256  0.5286  0.3430
   58CHL1    C5 6706   5.370   3.938   9.688 -0.4570  0.1352 -0.0765
   58CHL1    C6 6707   5.267   3.869   9.637  0.3212  0.7752  0.5172
   58CHL1    H6 6708   5.223   3.775   9.673 -2.6291  1.3026 -1.3660
   58CHL1    C7 6709   5.201   3.903   9.508 -0.0433  0.0599  0.5733
   58CHL1   H7A 6710   5.197   3.810   9.448 -1.3252 -0.3314  1.2266
   58CHL1   H7B 6711   5.094   3.931   9.516  0.4773  2.2445  0.5935
   58CHL1    C8 6712   5.292   4.012   9.441 -0.4094 -0.4512 -0.9936
   58CHL1    H8 6713   5.385   3.960   9.412 -0.1072 -0.3991 -0.1254
   58CHL1   C14 6714   5.225   4.056   9.310  0.1849 -0.4693 -0.1508
   58CHL1   H14 6715   5.135   4.106   9.351  1.7009  0.6813  1.9226
   58CHL1   C15 6716   5.177   3.945   9.216 -0.3459  0.3780  0.4327
   58CHL1  H15A 6717   5.249   3.861   9.208 -0.1339  0.4801  1.2582
   58CHL1  H15B 6718   5.080   3.907   9.256  0.6013 -0.4916  1.9879
   58CHL1   C16 6719   5.160   4.014   9.081  0.0734 -0.4478  0.1655
   58CHL1  H16A 6720   5.234   3.963   9.015  1.0862  0.1936  0.7774
   58CHL1  H16B 6721   5.058   4.018   9.037  0.6313  2.5737 -1.0784
   58CHL1   C17 6722   5.199   4.169   9.101 -0.0026  0.6089 -0.5921
   58CHL1   H17 6723   5.112   4.210   9.157  0.9065 -0.1889  1.5397
   58CHL1   C13 6724   5.299   4.157   9.217  0.0761  0.3710 -0.1627
   58CHL1   C18 6725   5.431   4.100   9.162  0.1099  0.0584 -0.0488
   58CHL1  H18A 6726   5.494   4.071   9.248  2.1085  0.6261 -1.2641
   58CHL1  H18B 6727   5.428   4.008   9.100 -0.8897  0.7179 -1.0336
   58CHL1  H18C 6728   5.492   4.184   9.122  0.0494 -0.2177 -0.7385
   58CHL1   C12 6729   5.324   4.280   9.312  0.2744  0.6483 -0.0456
   58CHL1  H12A 6730   5.388   4.358   9.265  3.0416  0.3484  2.8488
   58CHL1  H12B 6731   5.227   4.328   9.336 -1.0203 -1.8726  0.1236
   58CHL1   C11 6732   5.397   4.247   9.442 -0.0224  0.1243 -0.0572
   58CHL1  H11A 6733   5.502   4.225   9.412 -0.4349 -2.8067  0.4159
   58CHL1  H11B 6734   5.391   4.341   9.502 -1.0731  0.9556 -1.4168
   58CHL1    C9 6735   5.334   4.130   9.525 -0.2719  0.9222 -0.5068
   58CHL1    H9 6736   5.239   4.168   9.568 -0.1360  0.1704  0.4939
   58CHL1   C10 6737   5.414   4.076   9.643 -1.0064  0.1663  0.4674
   58CHL1   C19 6738   5.564   4.070   9.599 -0.5448  0.5509 -0.7264
   58CHL1  H19A 6739   5.628   4.025   9.678 -0.4163  1.8537 -0.0531
   58CHL1  H19B 6740   5.577   4.003   9.511  0.4953  0.9576 -0.8968
   58CHL1  H19C 6741   5.611   4.166   9.570 -0.5745 -0.2086 -3.6950
   58CHL1    C1 6742   5.396   4.177   9.760 -0.1616  0.1008  0.1545
   58CHL1   H1A 6743   5.431   4.272   9.715 -0.4901  0.0477 -0.2108
   58CHL1   H1B 6744   5.289   4.180   9.789  0.4038 -0.0437  2.4879
   58CHL1    C2 6745   5.464   4.128   9.891  0.4300 -0.2183 -1.0240
   58CHL1   H2A 6746   5.450   4.208   9.966  0.8776  0.2970 -1.4753
   58CHL1   H2B 6747   5.575   4.125   9.884  0.4058 -0.6025 -1.3045
   58CHL1   C20 6748   5.232   4.251   8.979 -0.3726  0.4561  0.3345
   58CHL1   H20 6749   5.330   4.294   9.007  0.2914 -2.4604  3.0115
   58CHL1   C21 6750   5.128   4.356   8.967  0.2461  0.1076  0.6311
   58CHL1  H21A 6751   5.118   4.428   9.051  0.5812 -0.1722  0.9149
   58CHL1  H21B 6752   5.025   4.314   8.967 -0.3112  1.4340  0.3326
   58CHL1  H21C 6753   5.130   4.407   8.868 -0.5803  0.9352  1.0193
   58CHL1   C22 6754   5.265   4.175   8.848 -0.0234  0.3857 -0.2293
   58CHL1  H22A 6755   5.327   4.087   8.874 -0.0180  0.7289  0.9528
   58CHL1  H22B 6756   5.170   4.136   8.806 -0.2852  0.0162  0.6989
   58CHL1   C23 6757   5.332   4.268   8.745  0.3255 -0.0686 -0.2904
   58CHL1  H23A 6758   5.262   4.353   8.726 -0.4914 -0.1951  1.9327
   58CHL1  H23B 6759   5.417   4.301   8.808  1.7997 -1.5159 -1.4390
   58CHL1   C24 6760   5.380   4.196   8.620 -0.4677 -0.2972  0.1734
   58CHL1  H24A 6761   5.457   4.122   8.652 -1.0160 -1.1154 -0.3460
   58CHL1  H24B 6762   5.297   4.145   8.566  1.6964 -1.9800 -1.8004
   58CHL1   C25 6763   5.440   4.302   8.532  0.7249  0.3311  0.7480
   58CHL1   H25 6764   5.498   4.376   8.591  2.7288 -0.3328 -0.2948
   58CHL1   C26 6765   5.543   4.227   8.443 -0.2935 -0.0807  0.4763
   58CHL1  H26A 6766   5.489   4.164   8.369  0.2629 -0.3754  0.3129
   58CHL1  H26B 6767   5.595   4.309   8.388  2.1646  0.4447  3.3308
   58CHL1  H26C 6768   5.611   4.159   8.500  0.3864  0.1758 -0.0120
   58CHL1   C27 6769   5.331   4.379   8.457 -0.3162  0.4852  0.1222
   58CHL1  H27A 6770   5.285   4.330   8.368  1.0632  1.1733 -1.0113
   58CHL1  H27B 6771   5.248   4.404   8.526 -0.0711  0.2685  0.4989
   58CHL1  H27C 6772   5.367   4.480   8.429 -0.4651  0.7511  0.8862
   59CHL1    C3 6773   5.167   4.234  10.398 -0.3675 -0.0354  0.2079
   59CHL1    H3 6774   5.271   4.241  10.358  0.3912 -1.7482  1.7677
   59CHL1    O3 6775   5.158   4.251  10.537 -0.1275 -0.3066  0.0993
   59CHL1   H3' 6776   5.201   4.336  10.552  0.6822 -0.5189 -0.8829
   59CHL1    C4 6777   5.100   4.359  10.333  0.4245 -0.3069 -0.5730
   59CHL1   H4A 6778   4.998   4.377  10.374 -0.2443  4.0622 -3.5121
   59CHL1   H4B 6779   5.140   4.461  10.352 -1.0909  0.5815 -1.9000
   59CHL1    C5 6780   5.097   4.348  10.181 -0.1982  0.2666 -0.6604
   59CHL1    C6 6781   5.153   4.431  10.092 -0.0191  0.4804 -0.0034
   59CHL1    H6 6782   5.198   4.523  10.130 -1.2208  1.2034 -0.2788
   59CHL1    C7 6783   5.127   4.420   9.944  0.4170  0.3532  0.3634
   59CHL1   H7A 6784   5.113   4.522   9.901 -0.7931  0.4131  0.8530
   59CHL1   H7B 6785   5.216   4.377   9.894 -0.0426 -2.2686  1.6580
   59CHL1    C8 6786   5.006   4.335   9.906 -0.2179  0.4322 -0.4010
   59CHL1    H8 6787   4.914   4.379   9.952 -0.0587 -1.6602  2.1994
   59CHL1   C14 6788   4.997   4.317   9.760 -0.3207  0.9219  0.0192
   59CHL1   H14 6789   5.094   4.271   9.731  0.2142  0.7251  2.0062
   59CHL1   C15 6790   4.992   4.442   9.665 -0.2782 -0.4519 -0.8175
   59CHL1  H15A 6791   4.919   4.514   9.709  1.9596  0.2685  2.0017
   59CHL1  H15B 6792   5.081   4.508   9.667 -1.2616  0.9001  0.2308
   59CHL1   C16 6793   4.969   4.381   9.536  1.0034  0.6083  1.0595
   59CHL1  H16A 6794   4.890   4.429   9.474 -2.4564 -2.7217  2.5291
   59CHL1  H16B 6795   5.061   4.377   9.474  0.8010  0.9358  0.7308
   59CHL1   C17 6796   4.903   4.238   9.562  0.1921  0.0704 -0.0178
   59CHL1   H17 6797   4.983   4.164   9.540  0.4038 -0.5142  2.4554
   59CHL1   C13 6798   4.883   4.224   9.715 -0.2781  0.6154 -0.5714
   59CHL1   C18 6799   4.746   4.296   9.752  0.0020  0.2857  0.2626
   59CHL1  H18A 6800   4.732   4.313   9.861 -1.5602 -1.1450  0.3162
   59CHL1  H18B 6801   4.738   4.400   9.714 -1.0778  1.1774  2.6933
   59CHL1  H18C 6802   4.656   4.249   9.707  0.4500 -0.3531  0.0327
   59CHL1   C12 6803   4.917   4.087   9.775 -0.3674  0.1660 -0.3949
   59CHL1  H12A 6804   4.852   4.005   9.738 -0.3051 -0.1891  0.2812
   59CHL1  H12B 6805   5.025   4.060   9.766 -0.4603 -0.2889 -0.1467
   59CHL1   C11 6806   4.923   4.100   9.928  0.0780  0.2056  0.0744
   59CHL1  H11A 6807   4.822   4.141   9.953  2.1314  5.1920  1.3532
   59CHL1  H11B 6808   4.933   4.007   9.988 -0.6410  1.1280  1.6901
   59CHL1    C9 6809   5.021   4.207   9.983  0.2010 -0.1033 -0.2311
   59CHL1    H9 6810   5.122   4.164   9.965 -0.3875 -1.2878 -0.8310
   59CHL1   C10 6811   5.018   4.218  10.139  0.1319 -0.3656 -0.1995
   59CHL1   C19 6812   4.872   4.223  10.184  1.0904  0.0757  0.1853
   59CHL1  H19A 6813   4.860   4.233  10.294 -1.0345 -0.2949  0.0257
   59CHL1  H19B 6814   4.806   4.298  10.134  2.3201  1.0119 -0.0757
   59CHL1  H19C 6815   4.826   4.125  10.159  1.5561 -0.3662  1.0356
   59CHL1    C1 6816   5.084   4.097  10.211  0.3202 -0.3224  0.3508
   59CHL1   H1A 6817   5.031   4.001  10.195  1.6843 -0.9611 -0.4835
   59CHL1   H1B 6818   5.188   4.084  10.175  1.0342  0.9219  1.8490
   59CHL1    C2 6819   5.100   4.104  10.366 -0.4756  0.4789  0.9204
   59CHL1   H2A 6820   5.155   4.014  10.399  0.2973 -0.5616 -2.7276
   59CHL1   H2B 6821   4.993   4.105  10.398 -1.2896  2.2910 -1.5387
   59CHL1   C20 6822   4.790   4.196   9.471 -0.9086 -0.3422  0.0010
   59CHL1   H20 6823   4.701   4.257   9.497  0.7921  2.1485  0.2683
   59CHL1   C21 6824   4.748   4.052   9.498 -0.1233  0.2700  0.2481
   59CHL1  H21A 6825   4.693   4.049   9.595 -0.1792  0.6856  0.2325
   59CHL1  H21B 6826   4.842   3.993   9.493 -0.8094 -0.8173 -0.0556
   59CHL1  H21C 6827   4.676   4.019   9.421  1.0262  1.5688 -1.4677
   59CHL1   C22 6828   4.816   4.218   9.323  0.6465  0.3360  0.2213
   59CHL1  H22A 6829   4.885   4.302   9.300  1.3779 -0.6809 -1.5010
   59CHL1  H22B 6830   4.861   4.126   9.280 -3.8835 -1.8085 -0.5163
   59CHL1   C23 6831   4.682   4.238   9.244 -0.6864 -0.0469  0.5960
   59CHL1  H23A 6832   4.607   4.164   9.279 -3.0466  2.0454  0.2492
   59CHL1  H23B 6833   4.640   4.331   9.288 -0.4363 -0.7933  2.5114
   59CHL1   C24 6834   4.686   4.230   9.092  0.0817  0.1781  0.6574
   59CHL1  H24A 6835   4.588   4.255   9.045  0.6490 -0.5672 -0.9684
   59CHL1  H24B 6836   4.761   4.301   9.053  0.9465 -0.1399  1.7095
   59CHL1   C25 6837   4.712   4.084   9.029  0.6516  0.0520 -0.9100
   59CHL1   H25 6838   4.814   4.058   9.065  0.6217 -0.5797 -1.2836
   59CHL1   C26 6839   4.600   3.979   9.060 -0.4855 -0.0371  0.2382
   59CHL1  H26A 6840   4.622   3.878   9.020 -1.0016  0.0095 -0.1839
   59CHL1  H26B 6841   4.576   3.974   9.169 -3.1900  0.6833 -0.2447
   59CHL1  H26C 6842   4.511   4.016   9.005 -1.4909 -0.6408  1.4029
   59CHL1   C27 6843   4.744   4.088   8.877  0.1710  0.1817 -0.3063
   59CHL1  H27A 6844   4.797   4.185   8.863  0.3763  0.0815 -0.2337
   59CHL1  H27B 6845   4.801   4.002   8.835 -1.0595 -1.3752  1.0659
   59CHL1  H27C 6846   4.649   4.093   8.820  0.7606  0.3686 -1.3041
   60CHL1    C3 6847   0.235   3.625  10.342  0.3505  1.1269 -0.7717
   60CHL1    H3 6848   0.153   3.696  10.365 -2.0854 -2.2070  2.0363
   60CHL1    O3 6849   0.309   3.585  10.460 -0.5132  0.1016 -0.3198
   60CHL1   H3' 6850   0.338   3.672  10.490  2.3226 -1.0781  0.7336
   60CHL1    C4 6851   0.166   3.491  10.284  0.1510  0.0852  0.6214
   60CHL1   H4A 6852   0.249   3.420  10.263 -0.4059 -0.6026  0.7236
   60CHL1   H4B 6853   0.087   3.460  10.355 -2.0296  1.4557 -1.0467
   60CHL1    C5 6854   0.109   3.515  10.145 -0.2908  0.6239 -0.3049
   60CHL1    C6 6855  -0.019   3.482  10.130 -0.4745  0.3240 -0.5716
   60CHL1    H6 6856  -0.075   3.432  10.211  1.2745 -1.4079 -0.3604
   60CHL1    C7 6857  -0.092   3.496  10.000 -0.3639  0.3905 -0.0058
   60CHL1   H7A 6858  -0.154   3.406   9.982 -2.2326  1.6586 -0.1332
   60CHL1   H7B 6859  -0.158   3.585  10.001 -0.0389  0.6604  2.0513
   60CHL1    C8 6860   0.008   3.529   9.880  0.0707  0.9614  0.1524
   60CHL1    H8 6861   0.059   3.432   9.860  0.2282  0.8449  1.0959
   60CHL1   C14 6862  -0.066   3.575   9.761  0.3931 -0.0158 -0.2894
   60CHL1   H14 6863  -0.112   3.667   9.802 -0.0283 -0.4169  0.1480
   60CHL1   C15 6864  -0.191   3.498   9.715 -0.1309  0.0625  0.0795
   60CHL1  H15A 6865  -0.166   3.391   9.698 -2.1402 -0.2923 -1.0331
   60CHL1  H15B 6866  -0.280   3.514   9.779 -1.1559  1.8222 -1.6553
   60CHL1   C16 6867  -0.211   3.550   9.574  0.0059  0.6039  0.4359
   60CHL1  H16A 6868  -0.218   3.463   9.505  2.0219 -0.6090  1.6412
   60CHL1  H16B 6869  -0.309   3.600   9.566 -0.0633  0.4062  0.0036
   60CHL1   C17 6870  -0.096   3.646   9.540  0.3313  0.2610 -0.3889
   60CHL1   H17 6871  -0.141   3.746   9.561 -1.1738 -0.6538  0.9247
   60CHL1   C13 6872   0.019   3.604   9.634 -0.4069  0.1052  0.1168
   60CHL1   C18 6873   0.082   3.469   9.581 -0.7973 -0.0169 -0.4761
   60CHL1  H18A 6874   0.139   3.479   9.487  0.3770  2.3559  0.4234
   60CHL1  H18B 6875   0.147   3.428   9.661 -1.0224 -0.7214 -0.6396
   60CHL1  H18C 6876   0.003   3.391   9.569 -2.8953  1.7846  0.8605
   60CHL1   C12 6877   0.122   3.712   9.677 -0.2247 -0.0561 -0.0441
   60CHL1  H12A 6878   0.194   3.734   9.596  0.9005 -1.4087  0.5475
   60CHL1  H12B 6879   0.072   3.800   9.725 -2.3077 -0.9562 -0.4671
   60CHL1   C11 6880   0.198   3.672   9.798 -0.1399 -0.3649 -0.2281
   60CHL1  H11A 6881   0.256   3.584   9.761 -1.7157 -1.0872 -1.0843
   60CHL1  H11B 6882   0.259   3.759   9.830 -1.2635  0.2312  0.3527
   60CHL1    C9 6883   0.113   3.628   9.921 -0.3662 -0.2146  0.0110
   60CHL1    H9 6884   0.068   3.721   9.962 -0.7080 -1.2592  2.1081
   60CHL1   C10 6885   0.199   3.583  10.043 -0.0789 -0.0596 -1.0038
   60CHL1   C19 6886   0.315   3.485   9.998  0.1933  0.0574 -0.3025
   60CHL1  H19A 6887   0.376   3.518   9.911  0.8502 -0.2963  0.0216
   60CHL1  H19B 6888   0.383   3.466  10.084 -1.1371  1.9196  1.2630
   60CHL1  H19C 6889   0.264   3.391   9.970  1.1431 -1.1640  1.8317
   60CHL1    C1 6890   0.266   3.707  10.109  0.1674  0.3582  0.8667
   60CHL1   H1A 6891   0.326   3.764  10.035  1.1593 -2.5653 -0.7409
   60CHL1   H1B 6892   0.188   3.780  10.140  0.5784  1.1908 -0.0040
   60CHL1    C2 6893   0.333   3.687  10.245  0.2996 -0.2481  0.4792
   60CHL1   H2A 6894   0.372   3.787  10.275 -0.9794  0.3521  0.1968
   60CHL1   H2B 6895   0.425   3.624  10.236 -0.5787 -1.6674  1.1479
   60CHL1   C20 6896  -0.070   3.643   9.391  0.1433  0.3660  0.1545
   60CHL1   H20 6897  -0.046   3.537   9.369  0.2453  0.5434 -0.5987
   60CHL1   C21 6898   0.049   3.727   9.352  0.1372  0.0474 -0.2070
   60CHL1  H21A 6899   0.032   3.832   9.382  3.2034  0.9507 -1.2460
   60CHL1  H21B 6900   0.059   3.731   9.241  3.4790  1.0639  0.0135
   60CHL1  H21C 6901   0.145   3.692   9.396 -1.5373 -2.7053  1.5393
   60CHL1   C22 6902  -0.194   3.677   9.302  0.1801  0.2221 -0.4225
   60CHL1  H22A 6903  -0.269   3.595   9.311  0.3121 -0.0378 -1.5744
   60CHL1  H22B 6904  -0.247   3.769   9.335 -0.2401 -0.2717  0.3047
   60CHL1   C23 6905  -0.164   3.692   9.155 -0.1024 -0.2534 -0.2694
   60CHL1  H23A 6906  -0.091   3.773   9.135 -1.0100  0.7734  0.4951
   60CHL1  H23B 6907  -0.114   3.597   9.127  0.3234 -0.1332  0.0802
   60CHL1   C24 6908  -0.296   3.701   9.068  0.2724 -0.7604  0.5532
   60CHL1  H24A 6909  -0.359   3.620   9.111 -2.1071  0.4898 -0.3940
   60CHL1  H24B 6910  -0.349   3.797   9.087  0.4943 -0.8633  1.7601
   60CHL1   C25 6911  -0.272   3.687   8.924  0.5874 -0.6950 -0.0470
   60CHL1   H25 6912  -0.191   3.758   8.896  0.7014 -0.9331 -0.3206
   60CHL1   C26 6913  -0.227   3.555   8.870  0.0978 -0.6065 -0.2801
   60CHL1  H26A 6914  -0.221   3.562   8.760 -0.3562  1.6452 -0.2128
   60CHL1  H26B 6915  -0.129   3.523   8.913 -0.4801 -1.5409  0.3767
   60CHL1  H26C 6916  -0.306   3.481   8.894 -0.1539 -0.7032 -1.3770
   60CHL1   C27 6917  -0.401   3.732   8.848  0.5695  0.1183  0.2713
   60CHL1  H27A 6918  -0.391   3.723   8.738  0.1541 -2.4924  0.3823
   60CHL1  H27B 6919  -0.493   3.677   8.876  0.3930  0.0127 -0.5047
   60CHL1  H27C 6920  -0.426   3.838   8.869  0.2219  0.1482 -0.2848
   61CHL1    C3 6921   1.582   2.149  10.149  0.8484 -0.1115 -0.0426
   61CHL1    H3 6922   1.584   2.038  10.140  2.0150 -0.0078 -1.4204
   61CHL1    O3 6923   1.556   2.180  10.290 -0.3521 -0.4458  0.1961
   61CHL1   H3' 6924   1.506   2.262  10.289  0.8128  0.2900 -0.3542
   61CHL1    C4 6925   1.717   2.206  10.109 -0.4835  0.4789 -0.0479
   61CHL1   H4A 6926   1.709   2.316  10.123 -0.0323  0.5170 -0.0842
   61CHL1   H4B 6927   1.799   2.165  10.171  1.2702  1.5572 -1.5615
   61CHL1    C5 6928   1.749   2.194   9.961 -0.0068  0.1463  0.4789
   61CHL1    C6 6929   1.867   2.162   9.904 -0.1517 -0.4677 -0.3792
   61CHL1    H6 6930   1.952   2.143   9.971 -1.0838  1.3435  1.4273
   61CHL1    C7 6931   1.904   2.172   9.759 -0.3489 -0.2639  0.1348
   61CHL1   H7A 6932   1.995   2.235   9.752 -1.3043  1.5714  2.5886
   61CHL1   H7B 6933   1.929   2.067   9.731 -0.3679  0.1264 -1.3763
   61CHL1    C8 6934   1.793   2.232   9.674  0.1156  0.4117 -0.0292
   61CHL1    H8 6935   1.803   2.342   9.690  0.3422  0.2015  1.3631
   61CHL1   C14 6936   1.818   2.202   9.522 -1.1387  0.0563 -0.7167
   61CHL1   H14 6937   1.826   2.091   9.520  3.0529  0.1912  0.2176
   61CHL1   C15 6938   1.955   2.239   9.464 -0.0041 -0.2669  0.2875
   61CHL1  H15A 6939   1.974   2.348   9.478 -1.7917  0.3834 -1.7550
   61CHL1  H15B 6940   2.039   2.186   9.513  0.9445  3.0611  2.6536
   61CHL1   C16 6941   1.927   2.221   9.314  0.4924 -0.6373 -0.2669
   61CHL1  H16A 6942   1.956   2.318   9.268 -0.3839  0.2800  1.0521
   61CHL1  H16B 6943   1.991   2.143   9.266 -0.7443 -2.1184  0.3806
   61CHL1   C17 6944   1.769   2.209   9.296  0.1212 -0.1212 -0.3588
   61CHL1   H17 6945   1.759   2.099   9.298  1.2470 -0.2617 -1.5091
   61CHL1   C13 6946   1.711   2.256   9.429 -0.0321  0.0396  0.3872
   61CHL1   C18 6947   1.713   2.410   9.426 -0.0758 -0.2938 -0.1195
   61CHL1  H18A 6948   1.630   2.458   9.369 -0.1239 -0.0941  0.1144
   61CHL1  H18B 6949   1.707   2.450   9.530 -0.0877  0.5611 -0.4379
   61CHL1  H18C 6950   1.806   2.450   9.381 -0.7651  0.6337 -0.7589
   61CHL1   C12 6951   1.579   2.192   9.467  1.1421  0.2769  0.4033
   61CHL1  H12A 6952   1.489   2.223   9.410 -0.2160 -1.1309  1.6633
   61CHL1  H12B 6953   1.589   2.081   9.460  1.2090  0.3822 -1.9648
   61CHL1   C11 6954   1.548   2.237   9.612 -0.4466  0.0567 -0.3613
   61CHL1  H11A 6955   1.549   2.348   9.615 -0.5659  0.1000 -1.3319
   61CHL1  H11B 6956   1.444   2.204   9.633 -1.1372  1.4100 -1.4436
   61CHL1    C9 6957   1.651   2.188   9.714  0.0083 -0.6622  0.4708
   61CHL1    H9 6958   1.659   2.077   9.707  1.7059 -0.5958  0.9701
   61CHL1   C10 6959   1.629   2.237   9.859 -0.7370 -0.2965 -0.4067
   61CHL1   C19 6960   1.622   2.390   9.864  0.1233 -0.2110 -0.0819
   61CHL1  H19A 6961   1.719   2.440   9.844  0.2261 -0.2949  0.2030
   61CHL1  H19B 6962   1.543   2.432   9.798 -1.4388 -2.7494  0.0014
   61CHL1  H19C 6963   1.610   2.425   9.969 -0.5822  4.6194 -1.5281
   61CHL1    C1 6964   1.497   2.172   9.918  0.0008 -0.1059 -0.3785
   61CHL1   H1A 6965   1.409   2.211   9.864 -0.3211 -1.5766 -0.9662
   61CHL1   H1B 6966   1.494   2.062   9.903  0.1524 -0.1664  0.0170
   61CHL1    C2 6967   1.465   2.196  10.068 -0.3854 -0.2099 -0.1863
   61CHL1   H2A 6968   1.371   2.142  10.091  0.9301 -2.0858  1.0676
   61CHL1   H2B 6969   1.451   2.305  10.083  2.7622  0.4383 -1.0837
   61CHL1   C20 6970   1.726   2.261   9.158 -1.0225 -0.4814  0.3425
   61CHL1   H20 6971   1.736   2.372   9.164  0.9929 -0.6573  0.8845
   61CHL1   C21 6972   1.585   2.227   9.120 -0.0894  0.3152 -0.2854
   61CHL1  H21A 6973   1.585   2.120   9.090  0.8680  0.6565 -1.5635
   61CHL1  H21B 6974   1.561   2.299   9.040  1.0474 -1.3229 -2.1832
   61CHL1  H21C 6975   1.510   2.241   9.201 -0.7720 -0.0604 -0.8404
   61CHL1   C22 6976   1.824   2.208   9.049 -0.2997 -0.7521  0.4871
   61CHL1  H22A 6977   1.922   2.258   9.063 -1.5999  2.2665 -0.1752
   61CHL1  H22B 6978   1.826   2.097   9.053  2.9837 -0.8126 -0.2734
   61CHL1   C23 6979   1.779   2.253   8.903  0.1035 -0.8122  0.5359
   61CHL1  H23A 6980   1.682   2.208   8.875 -0.0121 -0.4630  0.3719
   61CHL1  H23B 6981   1.776   2.364   8.903  0.5322 -0.7660 -1.4489
   61CHL1   C24 6982   1.895   2.212   8.799  0.5051  0.2741 -0.0639
   61CHL1  H24A 6983   1.920   2.104   8.810 -1.5622 -0.0461  2.3212
   61CHL1  H24B 6984   1.844   2.198   8.701 -0.7504 -1.3141  0.7723
   61CHL1   C25 6985   2.014   2.311   8.781 -0.0486  0.5968 -0.7279
   61CHL1   H25 6986   2.050   2.333   8.884 -0.5678 -2.0395  0.1006
   61CHL1   C26 6987   2.112   2.237   8.692 -0.5264 -0.5229  0.4498
   61CHL1  H26A 6988   2.134   2.131   8.715  0.3593 -0.3744  0.3167
   61CHL1  H26B 6989   2.084   2.247   8.585 -1.9744 -1.0166  0.7564
   61CHL1  H26C 6990   2.210   2.290   8.697 -0.5288 -0.2513 -1.5499
   61CHL1   C27 6991   1.962   2.442   8.716  0.0236  0.1071  0.8412
   61CHL1  H27A 6992   2.043   2.511   8.684  0.7598 -0.6468  1.0419
   61CHL1  H27B 6993   1.899   2.422   8.626 -1.2710  2.6660  1.0898
   61CHL1  H27C 6994   1.899   2.493   8.791 -0.7886 -2.1605  1.7731
   62CHL1    C3 6995   2.693   0.492   9.871 -0.4913 -0.4503  0.4937
   62CHL1    H3 6996   2.708   0.594   9.829 -0.5244 -1.0061 -0.9346
   62CHL1    O3 6997   2.701   0.501  10.008 -0.1618  0.3843 -0.2702
   62CHL1   H3' 6998   2.653   0.425  10.044 -0.7713  0.5392 -0.7410
   62CHL1    C4 6999   2.544   0.453   9.836 -0.1576 -0.2531  0.1628
   62CHL1   H4A 7000   2.525   0.356   9.888  1.7420  0.8022  3.0994
   62CHL1   H4B 7001   2.473   0.530   9.874 -2.9896 -0.2874 -4.2518
   62CHL1    C5 7002   2.527   0.444   9.688 -0.3342  0.1355  0.7298
   62CHL1    C6 7003   2.433   0.503   9.620 -0.0574 -0.2282 -0.0817
   62CHL1    H6 7004   2.362   0.575   9.664  1.5448  0.8608  0.8080
   62CHL1    C7 7005   2.408   0.476   9.476  0.1606  0.2468  0.5162
   62CHL1   H7A 7006   2.298   0.464   9.462 -0.1506  0.4176  2.5069
   62CHL1   H7B 7007   2.440   0.568   9.422 -0.8127  0.3417  0.0581
   62CHL1    C8 7008   2.475   0.351   9.400 -0.2964  0.1667 -0.2327
   62CHL1    H8 7009   2.422   0.257   9.424  0.0564 -0.0493 -0.2947
   62CHL1   C14 7010   2.496   0.380   9.250 -0.6642 -0.5452  1.1650
   62CHL1   H14 7011   2.565   0.467   9.261  0.9851 -1.7130  0.5204
   62CHL1   C15 7012   2.375   0.423   9.169  0.0276 -0.4022 -0.2496
   62CHL1  H15A 7013   2.300   0.342   9.164  1.8548 -2.1929 -0.0936
   62CHL1  H15B 7014   2.335   0.523   9.196  1.2924 -0.4878  2.2128
   62CHL1   C16 7015   2.441   0.431   9.030 -0.5966  0.3787  0.0994
   62CHL1  H16A 7016   2.376   0.382   8.954  0.4324 -1.0469  0.0838
   62CHL1  H16B 7017   2.459   0.536   8.999  1.3325 -0.3069 -1.3160
   62CHL1   C17 7018   2.573   0.360   9.036  0.6177 -0.9670  0.1569
   62CHL1   H17 7019   2.658   0.431   9.048  0.1243 -0.1977 -0.7651
   62CHL1   C13 7020   2.580   0.288   9.164 -0.7631 -0.6749 -0.6651
   62CHL1   C18 7021   2.510   0.153   9.165 -0.0717  0.2086 -0.9954
   62CHL1  H18A 7022   2.504   0.106   9.265 -1.1251 -0.8262 -1.5287
   62CHL1  H18B 7023   2.408   0.155   9.121 -0.5047 -1.8052 -0.1733
   62CHL1  H18C 7024   2.565   0.085   9.096 -1.2612 -0.7362 -1.0486
   62CHL1   C12 7025   2.720   0.271   9.238  0.1072  0.8089 -0.4060
   62CHL1  H12A 7026   2.783   0.197   9.185  1.4495  1.3525  0.3655
   62CHL1  H12B 7027   2.774   0.366   9.218  0.0338  1.0510  0.5080
   62CHL1   C11 7028   2.706   0.241   9.385 -0.1853  0.5267  0.1344
   62CHL1  H11A 7029   2.661   0.140   9.394 -0.2736  0.5557  0.0262
   62CHL1  H11B 7030   2.800   0.236   9.443 -0.1913 -0.0756  0.0934
   62CHL1    C9 7031   2.618   0.340   9.462  0.4632 -0.5394  0.0997
   62CHL1    H9 7032   2.659   0.441   9.441 -0.0087 -0.0833  1.3022
   62CHL1   C10 7033   2.631   0.345   9.616  0.3092 -0.4231 -0.4287
   62CHL1   C19 7034   2.589   0.208   9.667 -0.2041 -0.4161 -0.4514
   62CHL1  H19A 7035   2.480   0.199   9.687 -0.4173  1.2064 -0.6870
   62CHL1  H19B 7036   2.611   0.126   9.596 -1.4115  0.0198 -1.3631
   62CHL1  H19C 7037   2.633   0.187   9.767 -0.2024  3.5827  0.5724
   62CHL1    C1 7038   2.781   0.375   9.653  0.2149  0.3152  0.3907
   62CHL1   H1A 7039   2.859   0.298   9.634  2.0620  2.0688  0.5314
   62CHL1   H1B 7040   2.819   0.471   9.613  0.3988  0.4592  0.9082
   62CHL1    C2 7041   2.795   0.393   9.807  0.3113  0.2936  0.5413
   62CHL1   H2A 7042   2.900   0.419   9.832  0.3638 -1.5212  2.4350
   62CHL1   H2B 7043   2.787   0.296   9.860  0.1822 -0.1991 -0.3565
   62CHL1   C20 7044   2.617   0.296   8.908 -0.0247  0.2857  0.0120
   62CHL1   H20 7045   2.541   0.217   8.892  1.3780 -1.2013  0.3851
   62CHL1   C21 7046   2.761   0.222   8.912  0.1292  0.3735  0.4437
   62CHL1  H21A 7047   2.844   0.288   8.946  1.4521 -1.7216  1.5053
   62CHL1  H21B 7048   2.775   0.174   8.813  0.6371 -0.0705  0.7272
   62CHL1  H21C 7049   2.752   0.150   8.996 -2.1759  0.1078  0.0279
   62CHL1   C22 7050   2.611   0.387   8.786 -0.3364  0.1501  0.0211
   62CHL1  H22A 7051   2.633   0.318   8.702 -0.4860  0.3100 -0.1506
   62CHL1  H22B 7052   2.518   0.435   8.749 -0.4252  0.6235  0.8285
   62CHL1   C23 7053   2.723   0.502   8.783  1.0374 -0.2729 -0.1110
   62CHL1  H23A 7054   2.689   0.588   8.844 -4.0831 -0.9541 -1.5522
   62CHL1  H23B 7055   2.818   0.461   8.825  0.3946 -2.2142 -0.4546
   62CHL1   C24 7056   2.753   0.556   8.643  0.4493  0.3020 -0.3707
   62CHL1  H24A 7057   2.780   0.467   8.582 -0.2680  0.3800 -0.8223
   62CHL1  H24B 7058   2.661   0.601   8.599 -0.4956 -1.2565 -0.0721
   62CHL1   C25 7059   2.858   0.672   8.631  0.4488  0.7164 -0.3269
   62CHL1   H25 7060   2.827   0.752   8.702  2.2960 -0.1901  1.6187
   62CHL1   C26 7061   2.996   0.629   8.676  0.6575  0.1118 -0.1205
   62CHL1  H26A 7062   2.990   0.613   8.786 -2.2015 -0.5105 -0.2829
   62CHL1  H26B 7063   3.025   0.531   8.632 -1.7268 -1.2896  1.2180
   62CHL1  H26C 7064   3.063   0.717   8.665  1.4906 -0.4481  0.3938
   62CHL1   C27 7065   2.867   0.732   8.486  0.3892 -0.3185 -0.8703
   62CHL1  H27A 7066   2.929   0.667   8.421  2.1857  1.1920 -0.7857
   62CHL1  H27B 7067   2.767   0.758   8.447 -0.1979  0.1291  0.8469
   62CHL1  H27C 7068   2.926   0.827   8.489  0.1982 -0.2189  0.6478
   63CHL1    C3 7069   4.050   1.589  10.330 -0.4578  0.4288 -0.2400
   63CHL1    H3 7070   3.940   1.573  10.332 -0.5721  1.1881 -0.0368
   63CHL1    O3 7071   4.121   1.617  10.455 -0.6449  0.7404 -0.0599
   63CHL1   H3' 7072   4.142   1.536  10.500 -0.7008  0.2578 -0.8828
   63CHL1    C4 7073   4.126   1.483  10.247 -0.3636 -0.7512  0.3255
   63CHL1   H4A 7074   4.233   1.511  10.238 -0.1524 -2.0049 -1.7467
   63CHL1   H4B 7075   4.132   1.390  10.308  0.6214 -0.7743  0.2125
   63CHL1    C5 7076   4.071   1.471  10.100  0.0737  0.5488 -0.0948
   63CHL1    C6 7077   4.006   1.359  10.056 -0.1227  0.0638  0.6389
   63CHL1    H6 7078   4.006   1.263  10.110  0.7814  0.6705  1.7449
   63CHL1    C7 7079   3.939   1.365   9.921 -0.0163  0.4705 -0.5939
   63CHL1   H7A 7080   3.955   1.270   9.866 -2.5187 -0.6573  0.4848
   63CHL1   H7B 7081   3.829   1.383   9.929 -0.4439 -2.1359  0.2934
   63CHL1    C8 7082   3.996   1.471   9.822  0.9492 -0.2970 -0.3875
   63CHL1    H8 7083   4.097   1.435   9.792  0.4813 -1.0894 -1.0800
   63CHL1   C14 7084   3.913   1.473   9.696 -0.0568 -0.7096  0.4842
   63CHL1   H14 7085   3.813   1.517   9.719  0.6112  0.2098  1.7756
   63CHL1   C15 7086   3.904   1.340   9.615 -0.1356  0.4018  1.1337
   63CHL1  H15A 7087   4.012   1.313   9.607 -0.4809 -0.6146 -0.8655
   63CHL1  H15B 7088   3.848   1.255   9.660  0.4201 -0.0487  1.0026
   63CHL1   C16 7089   3.866   1.379   9.474  0.0015 -0.3779  0.1440
   63CHL1  H16A 7090   3.944   1.335   9.408  1.5829  1.2097  0.8657
   63CHL1  H16B 7091   3.759   1.353   9.458 -0.2614 -0.3264  1.7417
   63CHL1   C17 7092   3.882   1.541   9.469 -0.6296  0.0779  0.2208
   63CHL1   H17 7093   3.784   1.587   9.496 -0.9145  0.8152 -1.8796
   63CHL1   C13 7094   3.967   1.574   9.595 -0.5986  0.1938  0.3888
   63CHL1   C18 7095   4.116   1.558   9.559 -0.7989  0.1811 -0.2628
   63CHL1  H18A 7096   4.186   1.556   9.646 -0.1853  1.5499 -0.6952
   63CHL1  H18B 7097   4.130   1.476   9.486 -0.5521 -0.3268  0.3410
   63CHL1  H18C 7098   4.147   1.651   9.506  1.5906 -0.1511  0.3920
   63CHL1   C12 7099   3.946   1.710   9.662 -1.0616 -0.6887  0.0475
   63CHL1  H12A 7100   3.968   1.797   9.597  0.8262 -0.0745  1.4158
   63CHL1  H12B 7101   3.838   1.718   9.685 -0.8156  2.1438  0.5619
   63CHL1   C11 7102   4.019   1.727   9.796 -0.1033  0.1201  0.0145
   63CHL1  H11A 7103   4.125   1.714   9.766  0.5504  1.3043  1.6504
   63CHL1  H11B 7104   3.993   1.823   9.845 -1.7890 -0.2415 -0.0910
   63CHL1    C9 7105   3.990   1.608   9.894 -0.3071 -0.0747  0.7315
   63CHL1    H9 7106   3.882   1.613   9.921 -1.2183  3.2829 -2.5829
   63CHL1   C10 7107   4.075   1.607  10.027 -0.5467 -0.2839 -0.1878
   63CHL1   C19 7108   4.225   1.620   9.990 -0.3432 -0.3821 -0.0983
   63CHL1  H19A 7109   4.248   1.542   9.914 -0.6664 -1.9845  1.3743
   63CHL1  H19B 7110   4.243   1.721   9.948  1.0882 -0.7683 -0.4767
   63CHL1  H19C 7111   4.295   1.629  10.075  0.4224 -0.4819 -0.7123
   63CHL1    C1 7112   4.017   1.715  10.116  0.4487  0.7479  0.5638
   63CHL1   H1A 7113   4.030   1.813  10.064  1.1892 -0.1707 -1.0542
   63CHL1   H1B 7114   3.906   1.708  10.119  0.5298 -0.2512  1.9168
   63CHL1    C2 7115   4.062   1.722  10.261  0.3627 -0.6824 -0.1689
   63CHL1   H2A 7116   3.999   1.794  10.318  0.0101 -1.0678 -0.0659
   63CHL1   H2B 7117   4.164   1.765  10.264  0.4496 -0.4761 -2.9105
   63CHL1   C20 7118   3.916   1.597   9.327 -0.3172  0.1596  0.0402
   63CHL1   H20 7119   4.025   1.607   9.308 -0.6961 -0.5530 -2.9627
   63CHL1   C21 7120   3.857   1.740   9.329  0.0944 -0.1945  0.1011
   63CHL1  H21A 7121   3.917   1.792   9.251 -0.5972 -1.5226 -1.3894
   63CHL1  H21B 7122   3.875   1.788   9.427 -0.4441  0.0324  0.0909
   63CHL1  H21C 7123   3.751   1.751   9.299  0.7702  3.2584 -1.5160
   63CHL1   C22 7124   3.864   1.503   9.215  0.7739 -0.3094  0.4568
   63CHL1  H22A 7125   3.930   1.414   9.213 -0.4980 -1.3111 -2.3252
   63CHL1  H22B 7126   3.759   1.474   9.237  0.5349  0.3165  0.1556
   63CHL1   C23 7127   3.887   1.553   9.067 -0.7936  0.2639  0.1181
   63CHL1  H23A 7128   3.811   1.630   9.040 -3.4993 -2.7305 -1.5496
   63CHL1  H23B 7129   3.996   1.576   9.066 -0.8729  0.6682 -0.8458
   63CHL1   C24 7130   3.861   1.437   8.970  0.1185  0.0666  1.3851
   63CHL1  H24A 7131   3.918   1.343   8.984 -1.4490 -1.2733 -0.7371
   63CHL1  H24B 7132   3.753   1.412   8.981  0.1339 -0.3367  0.6359
   63CHL1   C25 7133   3.881   1.480   8.824 -0.1729 -0.3877  0.4114
   63CHL1   H25 7134   3.858   1.394   8.757 -0.1894 -0.1372  0.0934
   63CHL1   C26 7135   3.804   1.606   8.775  0.5164 -0.6730 -0.3999
   63CHL1  H26A 7136   3.831   1.624   8.669  3.5139  1.8793  0.6036
   63CHL1  H26B 7137   3.695   1.589   8.781  0.3517  0.2349 -0.6177
   63CHL1  H26C 7138   3.835   1.702   8.822 -0.2485  0.4439 -2.0627
   63CHL1   C27 7139   4.030   1.504   8.792  0.3873  0.4225 -1.2735
   63CHL1  H27A 7140   4.089   1.585   8.841 -0.5025  1.7120 -2.2578
   63CHL1  H27B 7141   4.079   1.408   8.819 -1.5509 -0.2696 -0.0203
   63CHL1  H27C 7142   4.036   1.527   8.684 -0.3163 -0.2346 -1.4587
   64CHL1    C3 7143   3.452   0.599  10.043 -0.3717  0.3425 -0.0532
   64CHL1    H3 7144   3.438   0.698   9.996 -2.4641  0.3731  0.5384
   64CHL1    O3 7145   3.395   0.587  10.172  0.6390  0.3210 -0.0206
   64CHL1   H3' 7146   3.385   0.492  10.186 -3.3886  0.6934  0.9059
   64CHL1    C4 7147   3.380   0.505   9.948 -0.6397  0.0745 -0.3020
   64CHL1   H4A 7148   3.377   0.406   9.998  0.5601  1.6530  3.2146
   64CHL1   H4B 7149   3.271   0.520   9.933 -0.4602 -0.7587 -3.0287
   64CHL1    C5 7150   3.447   0.505   9.813  0.1924  0.1391 -0.2617
   64CHL1    C6 7151   3.380   0.537   9.708 -0.7474  0.6295  0.4057
   64CHL1    H6 7152   3.274   0.564   9.719 -0.8748  0.5721 -0.5223
   64CHL1    C7 7153   3.435   0.556   9.570 -0.5155 -0.5687 -0.2136
   64CHL1   H7A 7154   3.358   0.523   9.498 -0.3577  1.0424 -1.1718
   64CHL1   H7B 7155   3.459   0.663   9.550  0.6022 -1.0626 -1.6785
   64CHL1    C8 7156   3.559   0.468   9.559 -0.1717 -0.3451  0.1735
   64CHL1    H8 7157   3.540   0.359   9.558 -0.9012 -0.2199 -1.0679
   64CHL1   C14 7158   3.621   0.502   9.424 -0.0679 -0.1591  0.2335
   64CHL1   H14 7159   3.645   0.610   9.430  1.2482 -0.5162  2.0481
   64CHL1   C15 7160   3.539   0.491   9.289 -0.3410 -0.2135  0.1437
   64CHL1  H15A 7161   3.491   0.392   9.281  1.9322 -1.4927  1.2637
   64CHL1  H15B 7162   3.463   0.571   9.274  0.7871  1.0089  0.6347
   64CHL1   C16 7163   3.651   0.487   9.172 -0.1234  0.2747  0.0623
   64CHL1  H16A 7164   3.631   0.394   9.114  1.2296 -0.4449  0.7065
   64CHL1  H16B 7165   3.649   0.586   9.121 -0.0184  0.9911  1.3824
   64CHL1   C17 7166   3.786   0.494   9.249  0.2659 -0.3242  0.3787
   64CHL1   H17 7167   3.798   0.602   9.271 -0.0243  0.0720 -1.3160
   64CHL1   C13 7168   3.755   0.438   9.392 -0.1251 -0.5576  0.3791
   64CHL1   C18 7169   3.741   0.292   9.379  0.6879  0.4213 -0.2457
   64CHL1  H18A 7170   3.839   0.238   9.379  0.5238  0.1132  0.2924
   64CHL1  H18B 7171   3.686   0.257   9.469  1.0043 -0.4558 -0.3814
   64CHL1  H18C 7172   3.684   0.258   9.289  1.2560  2.7890 -1.5739
   64CHL1   C12 7173   3.859   0.466   9.492 -0.5122  0.7012  0.1842
   64CHL1  H12A 7174   3.956   0.417   9.472 -0.8787  0.8325 -2.2435
   64CHL1  H12B 7175   3.881   0.574   9.483 -0.8599  0.6903 -0.9780
   64CHL1   C11 7176   3.807   0.437   9.637  0.1697 -0.4085  0.1684
   64CHL1  H11A 7177   3.801   0.328   9.655 -3.0174 -0.3241  0.0942
   64CHL1  H11B 7178   3.885   0.484   9.701  2.1409 -3.1395 -0.0426
   64CHL1    C9 7179   3.665   0.494   9.668  0.8196 -0.2128 -0.6565
   64CHL1    H9 7180   3.680   0.604   9.674  0.7799 -0.2077 -0.6512
   64CHL1   C10 7181   3.595   0.464   9.807 -0.5144 -0.4570  0.3150
   64CHL1   C19 7182   3.603   0.313   9.837 -0.1071 -0.0636 -0.6839
   64CHL1  H19A 7183   3.535   0.280   9.918  1.8935 -0.2660  1.0011
   64CHL1  H19B 7184   3.585   0.264   9.738 -0.8216 -2.6730  0.6514
   64CHL1  H19C 7185   3.707   0.283   9.861  0.3266  0.1027 -2.1989
   64CHL1    C1 7186   3.672   0.549   9.915 -0.1213 -0.4315 -0.6975
   64CHL1   H1A 7187   3.771   0.501   9.932  0.0508 -0.1552 -0.9161
   64CHL1   H1B 7188   3.696   0.649   9.874  1.2643  0.3234  1.7336
   64CHL1    C2 7189   3.603   0.555  10.054 -0.0579  0.2761  0.4324
   64CHL1   H2A 7190   3.659   0.635  10.107 -0.2793  0.8727 -0.2206
   64CHL1   H2B 7191   3.609   0.456  10.105  0.3483  0.2540  0.3493
   64CHL1   C20 7192   3.911   0.430   9.182 -0.0574 -0.3961  0.3923
   64CHL1   H20 7193   3.966   0.356   9.245  0.6660 -0.9106 -0.8232
   64CHL1   C21 7194   4.020   0.537   9.173 -0.4209  0.0044 -0.6202
   64CHL1  H21A 7195   4.033   0.584   9.273 -0.8986 -1.9043  0.3959
   64CHL1  H21B 7196   4.008   0.614   9.095 -0.6488 -0.1198 -0.7114
   64CHL1  H21C 7197   4.115   0.489   9.139 -0.9812 -1.0690 -0.7308
   64CHL1   C22 7198   3.884   0.376   9.043 -0.3144 -0.4183  0.1523
   64CHL1  H22A 7199   3.820   0.453   8.993  0.6136  1.3911  1.6118
   64CHL1  H22B 7200   3.985   0.380   8.997 -0.7330  2.5885 -0.7546
   64CHL1   C23 7201   3.839   0.228   9.024 -0.3435 -0.7433  0.2968
   64CHL1  H23A 7202   3.741   0.224   9.074 -0.5718 -3.2031 -0.2369
   64CHL1  H23B 7203   3.814   0.208   8.918 -4.3392 -0.9984  1.1415
   64CHL1   C24 7204   3.949   0.126   9.079 -0.2649 -0.4992 -0.3716
   64CHL1  H24A 7205   4.031   0.125   9.004  0.5372 -1.9960  0.4799
   64CHL1  H24B 7206   3.997   0.156   9.175 -0.9279 -0.3427 -0.0861
   64CHL1   C25 7207   3.894  -0.019   9.096 -0.2350 -0.7552 -0.8399
   64CHL1   H25 7208   3.803  -0.002   9.157 -1.8830 -1.4286 -2.9984
   64CHL1   C26 7209   3.845  -0.081   8.964  0.0182  0.1138  0.4076
   64CHL1  H26A 7210   3.775  -0.164   8.991 -0.0511 -0.2943 -0.9521
   64CHL1  H26B 7211   3.784  -0.015   8.899 -1.1076 -0.2303  1.0773
   64CHL1  H26C 7212   3.936  -0.120   8.914  0.4839  0.2356  1.1396
   64CHL1   C27 7213   3.993  -0.116   9.171 -0.3289  0.4737  0.2718
   64CHL1  H27A 7214   4.060  -0.069   9.246  0.3195  0.9553 -0.5894
   64CHL1  H27B 7215   3.938  -0.198   9.221  1.2973 -1.3068 -0.7155
   64CHL1  H27C 7216   4.074  -0.155   9.106 -0.1290  2.2845 -0.6385
   65CHL1    C3 7217   6.041   3.212  10.081  0.0076 -0.3220  0.2767
   65CHL1    H3 7218   6.131   3.146  10.082 -0.5098 -1.0577  1.9964
   65CHL1    O3 7219   5.998   3.223  10.215  0.4349 -0.5610  0.5508
   65CHL1   H3' 7220   5.961   3.137  10.238  0.1544 -1.1308 -1.7188
   65CHL1    C4 7221   6.086   3.348  10.024 -0.2058  0.0456  0.4468
   65CHL1   H4A 7222   5.995   3.413  10.022 -0.3744 -0.2057 -0.4117
   65CHL1   H4B 7223   6.166   3.394  10.086  0.2513 -0.6442  0.3728
   65CHL1    C5 7224   6.126   3.333   9.878 -0.2768  0.8446  0.3690
   65CHL1    C6 7225   6.254   3.360   9.844  0.7801 -0.1533 -0.0798
   65CHL1    H6 7226   6.330   3.387   9.918  0.2424  0.0686  0.3976
   65CHL1    C7 7227   6.299   3.342   9.703  0.2240 -0.1146  0.7804
   65CHL1   H7A 7228   6.366   3.425   9.674 -1.0601  0.1670 -1.7516
   65CHL1   H7B 7229   6.368   3.255   9.695  0.5637  0.2409 -0.4539
   65CHL1    C8 7230   6.187   3.338   9.593  1.0750  0.0097 -0.6387
   65CHL1    H8 7231   6.156   3.444   9.578  0.6551 -0.1217 -0.7232
   65CHL1   C14 7232   6.239   3.279   9.468  0.5543 -0.0509  0.4986
   65CHL1   H14 7233   6.236   3.169   9.485 -0.6437 -0.1292 -0.1555
   65CHL1   C15 7234   6.374   3.333   9.409 -0.3801 -0.1660 -0.0065
   65CHL1  H15A 7235   6.388   3.444   9.409 -1.1758 -0.0167  1.9128
   65CHL1  H15B 7236   6.458   3.288   9.465 -0.4549  1.7089  1.7712
   65CHL1   C16 7237   6.370   3.307   9.255  0.3577 -0.1887  0.4178
   65CHL1  H16A 7238   6.381   3.402   9.197 -1.8039  0.7513  1.4555
   65CHL1  H16B 7239   6.449   3.239   9.215  0.5330 -0.0479  0.5226
   65CHL1   C17 7240   6.229   3.250   9.223 -0.3102  0.4902 -0.1180
   65CHL1   H17 7241   6.246   3.141   9.230 -3.5325 -0.1471 -0.7321
   65CHL1   C13 7242   6.138   3.284   9.353  0.6869 -0.3787 -0.2363
   65CHL1   C18 7243   6.102   3.435   9.315 -0.6836  0.3253  0.6806
   65CHL1  H18A 7244   6.193   3.494   9.292  1.1722 -2.5433  0.1298
   65CHL1  H18B 7245   6.035   3.465   9.231  1.2300 -1.1273 -1.4786
   65CHL1  H18C 7246   6.052   3.475   9.406 -1.5934 -3.0618  1.8001
   65CHL1   C12 7247   6.012   3.200   9.388 -0.8783 -0.5212 -0.4675
   65CHL1  H12A 7248   5.932   3.217   9.313 -0.3102  4.2597 -0.3093
   65CHL1  H12B 7249   6.052   3.097   9.405  0.4557 -0.3445 -2.3310
   65CHL1   C11 7250   5.958   3.242   9.520  0.7552  0.3202 -0.1710
   65CHL1  H11A 7251   5.909   3.340   9.504  0.1010 -0.2175 -1.6275
   65CHL1  H11B 7252   5.881   3.168   9.553  0.7507  0.5534  0.3539
   65CHL1    C9 7253   6.065   3.253   9.641  0.5707  0.7740 -0.1599
   65CHL1    H9 7254   6.101   3.147   9.639  0.4329  0.7385 -0.9056
   65CHL1   C10 7255   6.016   3.272   9.785  0.0671 -0.7676  0.4975
   65CHL1   C19 7256   5.900   3.377   9.786 -0.0183  0.5259  0.5985
   65CHL1  H19A 7257   5.865   3.419   9.882  1.7698  0.9185  1.1216
   65CHL1  H19B 7258   5.910   3.464   9.716 -0.2370  1.7960  2.0939
   65CHL1  H19C 7259   5.822   3.322   9.728  0.7683  0.7385 -0.7176
   65CHL1    C1 7260   5.974   3.131   9.848  0.1829  0.1509  0.2590
   65CHL1   H1A 7261   5.885   3.106   9.786 -0.2959 -1.5311  1.5291
   65CHL1   H1B 7262   6.063   3.066   9.834  2.1056  2.3786  1.3586
   65CHL1    C2 7263   5.927   3.149   9.996  0.6533  0.0384 -0.2466
   65CHL1   H2A 7264   5.904   3.049  10.038 -0.2877  0.6403  0.7129
   65CHL1   H2B 7265   5.840   3.218   9.996 -0.1610 -0.9143  1.3913
   65CHL1   C20 7266   6.205   3.281   9.074  0.4921  0.5785 -0.2033
   65CHL1   H20 7267   6.214   3.391   9.066  0.1050  0.6129 -0.2100
   65CHL1   C21 7268   6.060   3.230   9.031 -0.9170  0.0595 -0.1537
   65CHL1  H21A 7269   6.058   3.121   9.008  0.6702 -0.2800  1.0813
   65CHL1  H21B 7270   6.034   3.279   8.935 -0.6251 -1.0491 -0.8185
   65CHL1  H21C 7271   5.980   3.252   9.105 -3.1846  0.8030 -2.6753
   65CHL1   C22 7272   6.307   3.227   8.972  0.0925  0.4505  0.6914
   65CHL1  H22A 7273   6.412   3.244   9.004  0.7455 -0.9129 -0.6128
   65CHL1  H22B 7274   6.295   3.117   8.977 -0.3310  0.3465 -1.3936
   65CHL1   C23 7275   6.278   3.270   8.831  0.0721  0.5495  1.3399
   65CHL1  H23A 7276   6.194   3.210   8.790  0.6911  0.7217 -0.2630
   65CHL1  H23B 7277   6.250   3.378   8.828 -2.1959  0.0136  1.4470
   65CHL1   C24 7278   6.404   3.260   8.735 -0.2499  0.4768 -0.0823
   65CHL1  H24A 7279   6.475   3.339   8.768  0.2934 -0.5013  1.1877
   65CHL1  H24B 7280   6.452   3.161   8.746 -0.7777  0.1053 -1.0518
   65CHL1   C25 7281   6.369   3.289   8.590 -0.7142  0.1305  0.3166
   65CHL1   H25 7282   6.281   3.228   8.562 -1.6747  0.7457  1.8271
   65CHL1   C26 7283   6.347   3.441   8.562 -0.1211 -0.2164  0.2557
   65CHL1  H26A 7284   6.448   3.487   8.561 -1.4024  2.8909 -1.3008
   65CHL1  H26B 7285   6.303   3.460   8.461 -0.7187  0.6548  0.6684
   65CHL1  H26C 7286   6.280   3.485   8.639 -1.7145 -3.3475  0.8160
   65CHL1   C27 7287   6.486   3.243   8.493 -0.0461 -0.4837 -0.5207
   65CHL1  H27A 7288   6.567   3.193   8.548 -1.3833 -0.4950  1.5501
   65CHL1  H27B 7289   6.447   3.174   8.414  2.0892 -0.6156 -1.5217
   65CHL1  H27C 7290   6.528   3.329   8.436  0.6533 -0.7261 -0.3686
   66CHL1    C3 7291   4.887   2.286  10.519  0.6806  0.2623 -0.2758
   66CHL1    H3 7292   4.833   2.383  10.511 -2.8701 -1.2960  2.3466
   66CHL1    O3 7293   4.893   2.257  10.656  0.4329  0.6228 -0.1855
   66CHL1   H3' 7294   4.910   2.162  10.651  1.1400  0.7452 -0.2884
   66CHL1    C4 7295   4.815   2.175  10.458  1.0536  0.4440  0.4944
   66CHL1   H4A 7296   4.860   2.077  10.485 -0.9246 -0.6230  0.1399
   66CHL1   H4B 7297   4.712   2.174  10.499  1.2267  1.0136  0.9493
   66CHL1    C5 7298   4.797   2.192  10.308 -0.4752  0.5524  0.2302
   66CHL1    C6 7299   4.681   2.202  10.250 -0.1386  1.2257  0.2282
   66CHL1    H6 7300   4.592   2.188  10.314 -0.3429  1.7291  0.0566
   66CHL1    C7 7301   4.654   2.230  10.109  0.0085 -0.1431 -0.2925
   66CHL1   H7A 7302   4.579   2.159  10.067  1.8082 -0.2986 -3.5333
   66CHL1   H7B 7303   4.617   2.334  10.098 -2.7372 -1.0008 -0.0918
   66CHL1    C8 7304   4.782   2.207  10.024  0.1599 -0.3230  0.4211
   66CHL1    H8 7305   4.803   2.098  10.028  2.3901  0.0806  0.9692
   66CHL1   C14 7306   4.761   2.262   9.884  0.5039 -0.1033  0.0125
   66CHL1   H14 7307   4.736   2.369   9.898 -1.3629 -0.8225  3.0788
   66CHL1   C15 7308   4.642   2.214   9.805  0.4597  0.7104  1.9678
   66CHL1  H15A 7309   4.634   2.103   9.805  0.4288  0.6757 -0.1386
   66CHL1  H15B 7310   4.544   2.256   9.839  0.5095  4.5671 -1.8439
   66CHL1   C16 7311   4.678   2.237   9.657  0.1147 -0.4155  0.3633
   66CHL1  H16A 7312   4.661   2.147   9.595 -0.4093 -0.3352  0.3856
   66CHL1  H16B 7313   4.623   2.325   9.617  1.3497 -0.2073 -0.9804
   66CHL1   C17 7314   4.825   2.285   9.649  0.2381 -0.0884 -0.1945
   66CHL1   H17 7315   4.820   2.394   9.634 -1.8050 -0.4062 -2.4275
   66CHL1   C13 7316   4.880   2.248   9.789 -0.6559  0.0850  0.2532
   66CHL1   C18 7317   4.933   2.103   9.778  0.0516  0.4257 -0.0150
   66CHL1  H18A 7318   4.958   2.064   9.879 -1.3962 -1.9036 -0.4882
   66CHL1  H18B 7319   4.861   2.030   9.735 -0.2127  1.6975 -1.8984
   66CHL1  H18C 7320   5.031   2.087   9.728 -0.2237 -3.3158  0.3947
   66CHL1   C12 7321   4.990   2.342   9.849  0.6060  0.0951 -0.1615
   66CHL1  H12A 7322   5.084   2.335   9.791 -0.7045 -1.1165 -2.2480
   66CHL1  H12B 7323   4.969   2.451   9.848  0.4899  0.0772  0.1856
   66CHL1   C11 7324   5.021   2.297   9.989 -0.3640 -0.1824 -0.7081
   66CHL1  H11A 7325   5.064   2.194   9.995 -1.2023 -0.4926  0.4505
   66CHL1  H11B 7326   5.081   2.371  10.047 -0.5854 -1.7928  1.7288
   66CHL1    C9 7327   4.899   2.283  10.088 -0.1627  0.1552  1.1315
   66CHL1    H9 7328   4.855   2.384  10.103 -1.5272 -0.3953  0.9008
   66CHL1   C10 7329   4.930   2.225  10.233  0.2598  0.5846  0.0573
   66CHL1   C19 7330   5.006   2.085  10.221  0.0480 -0.1990 -0.2579
   66CHL1  H19A 7331   4.945   2.013  10.162 -0.1203  0.1898 -0.5616
   66CHL1  H19B 7332   5.101   2.106  10.167  0.1158 -1.5655 -0.6951
   66CHL1  H19C 7333   5.035   2.041  10.319 -0.8090  3.6248  1.9118
   66CHL1    C1 7334   5.020   2.326  10.310 -0.0347  0.0496 -0.2361
   66CHL1   H1A 7335   5.118   2.315  10.258 -1.4994 -1.3293 -2.9102
   66CHL1   H1B 7336   4.976   2.426  10.289  0.4394 -0.2109 -2.9230
   66CHL1    C2 7337   5.030   2.299  10.461  0.8277  0.2356  0.5954
   66CHL1   H2A 7338   5.097   2.372  10.511  1.1403  0.1394  0.3223
   66CHL1   H2B 7339   5.087   2.204  10.474  0.6957 -0.5081 -3.2125
   66CHL1   C20 7340   4.902   2.251   9.516 -0.6411 -0.1148  0.2672
   66CHL1   H20 7341   4.935   2.145   9.509  2.2501  0.7768 -1.4700
   66CHL1   C21 7342   5.033   2.334   9.502 -0.2079 -0.1118 -0.3265
   66CHL1  H21A 7343   5.008   2.442   9.495 -1.1534 -0.3637 -1.1214
   66CHL1  H21B 7344   5.090   2.305   9.411 -2.0140 -1.4666 -1.0947
   66CHL1  H21C 7345   5.088   2.323   9.597 -1.5410 -1.1036  0.3646
   66CHL1   C22 7346   4.801   2.253   9.395  0.7265 -0.5720  0.2931
   66CHL1  H22A 7347   4.726   2.171   9.407 -1.3942  1.4155  1.5372
   66CHL1  H22B 7348   4.753   2.353   9.400  0.8930 -0.5547  2.4184
   66CHL1   C23 7349   4.874   2.254   9.257  0.1033 -0.3092 -0.6379
   66CHL1  H23A 7350   4.925   2.352   9.261 -2.8392  1.2815  2.6952
   66CHL1  H23B 7351   4.939   2.164   9.254 -0.3909 -0.6971  0.0423
   66CHL1   C24 7352   4.770   2.237   9.141 -0.9183  0.1416  0.0169
   66CHL1  H24A 7353   4.707   2.148   9.157 -0.2807 -0.0588  1.6433
   66CHL1  H24B 7354   4.707   2.328   9.132  1.6058  1.8994 -1.1227
   66CHL1   C25 7355   4.838   2.209   9.007  0.4747 -0.8892 -0.3615
   66CHL1   H25 7356   4.899   2.118   9.025  0.7126 -1.0119 -1.6465
   66CHL1   C26 7357   4.729   2.172   8.898 -0.1088 -0.1578 -0.2034
   66CHL1  H26A 7358   4.778   2.149   8.801  0.1936 -0.7109  0.0791
   66CHL1  H26B 7359   4.667   2.085   8.929  0.8721 -0.7426  0.1590
   66CHL1  H26C 7360   4.661   2.260   8.889  0.1486  0.2342  1.4153
   66CHL1   C27 7361   4.917   2.333   8.950  0.1781  0.1645 -0.5052
   66CHL1  H27A 7362   4.862   2.430   8.955  0.7468  0.4500  0.5320
   66CHL1  H27B 7363   5.011   2.359   9.003 -0.5415 -0.0927  0.9391
   66CHL1  H27C 7364   4.962   2.313   8.851 -0.9246  1.6008 -1.3447
   67CHL1    C3 7365   1.425   3.248  10.071  0.0039  0.3911  0.0510
   67CHL1    H3 7366   1.447   3.140  10.070  0.0512  0.3898  0.6553
   67CHL1    O3 7367   1.413   3.302  10.202 -0.5648 -0.2187 -0.3255
   67CHL1   H3' 7368   1.411   3.398  10.195  1.2041 -0.0251  1.0368
   67CHL1    C4 7369   1.546   3.319  10.011  0.4021  0.4206  0.1274
   67CHL1   H4A 7370   1.541   3.428  10.031 -1.9511  0.5557 -0.8923
   67CHL1   H4B 7371   1.624   3.272  10.075  1.9190  0.6254 -1.4916
   67CHL1    C5 7372   1.565   3.297   9.859 -0.0617 -0.5642 -0.4747
   67CHL1    C6 7373   1.667   3.231   9.811  0.7190  0.1038 -0.5231
   67CHL1    H6 7374   1.740   3.195   9.885  1.4236 -0.1870 -1.3449
   67CHL1    C7 7375   1.688   3.195   9.670 -0.1216  0.0901  1.0382
   67CHL1   H7A 7376   1.784   3.237   9.633 -0.4841 -0.9889 -1.3256
   67CHL1   H7B 7377   1.676   3.087   9.647 -0.5311  0.0103  1.6043
   67CHL1    C8 7378   1.592   3.272   9.576  0.0444  0.1309  0.2846
   67CHL1    H8 7379   1.620   3.379   9.571 -2.6324  0.8613 -1.0348
   67CHL1   C14 7380   1.599   3.220   9.438  0.2513  0.9593  0.5284
   67CHL1   H14 7381   1.548   3.122   9.443 -0.2650  1.2686  1.8793
   67CHL1   C15 7382   1.741   3.205   9.376  0.8554 -0.1783 -0.2265
   67CHL1  H15A 7383   1.796   3.302   9.376  3.1709 -1.4262  0.4753
   67CHL1  H15B 7384   1.805   3.130   9.426 -1.1379 -0.9935  1.2100
   67CHL1   C16 7385   1.709   3.174   9.231 -0.1187  0.8835 -0.2762
   67CHL1  H16A 7386   1.772   3.238   9.166  0.7172  2.0681  1.6146
   67CHL1  H16B 7387   1.710   3.067   9.200  1.8130  0.2522  1.6706
   67CHL1   C17 7388   1.562   3.228   9.205 -0.5368  0.6086 -0.0470
   67CHL1   H17 7389   1.500   3.136   9.203  1.3858 -0.7566 -0.1490
   67CHL1   C13 7390   1.517   3.298   9.334 -0.1816 -0.6728  0.3553
   67CHL1   C18 7391   1.555   3.449   9.323 -0.3130 -0.1661 -0.1406
   67CHL1  H18A 7392   1.531   3.492   9.423 -1.9252 -0.6760 -0.2742
   67CHL1  H18B 7393   1.662   3.470   9.304 -0.1441 -0.7261  0.1648
   67CHL1  H18C 7394   1.493   3.504   9.249  0.7254  0.3806 -0.6279
   67CHL1   C12 7395   1.367   3.281   9.389  0.2022 -0.4753 -0.3882
   67CHL1  H12A 7396   1.299   3.340   9.323 -0.0306  1.4032  1.4228
   67CHL1  H12B 7397   1.330   3.177   9.394  2.2132 -1.3143 -1.6549
   67CHL1   C11 7398   1.343   3.339   9.522 -0.8985 -0.5342  0.3604
   67CHL1  H11A 7399   1.366   3.447   9.515  0.9708 -0.8237  1.3223
   67CHL1  H11B 7400   1.239   3.341   9.562 -1.3663 -0.4624 -0.8239
   67CHL1    C9 7401   1.449   3.279   9.629 -0.6461  0.5641 -0.5569
   67CHL1    H9 7402   1.413   3.174   9.633  1.1607 -0.2090 -2.9055
   67CHL1   C10 7403   1.441   3.337   9.774 -0.1878 -0.1818 -0.3540
   67CHL1   C19 7404   1.430   3.491   9.767 -0.6128 -0.3937  0.5227
   67CHL1  H19A 7405   1.334   3.506   9.714 -0.4808 -1.8726 -0.1798
   67CHL1  H19B 7406   1.427   3.534   9.870 -1.0259  1.4479 -0.2105
   67CHL1  H19C 7407   1.517   3.541   9.718  0.2131  0.1159  2.3942
   67CHL1    C1 7408   1.324   3.260   9.839 -0.3040 -0.3118  0.1103
   67CHL1   H1A 7409   1.235   3.286   9.778  0.1560 -0.2414 -0.5432
   67CHL1   H1B 7410   1.339   3.150   9.835 -0.4018 -0.3118 -0.3389
   67CHL1    C2 7411   1.303   3.280   9.989  0.6824  0.0240 -0.9972
   67CHL1   H2A 7412   1.221   3.217  10.030  1.4463 -0.1766  0.2999
   67CHL1   H2B 7413   1.281   3.387  10.009 -1.8840 -0.1523 -2.4128
   67CHL1   C20 7414   1.544   3.296   9.069 -0.3813 -0.7686 -0.0263
   67CHL1   H20 7415   1.594   3.395   9.065 -0.4328 -0.7478 -0.1747
   67CHL1   C21 7416   1.390   3.332   9.044 -0.2551  0.2289  0.2272
   67CHL1  H21A 7417   1.363   3.408   9.120  1.3037  0.6292  0.4133
   67CHL1  H21B 7418   1.327   3.240   9.032 -1.8572  1.2231  0.6728
   67CHL1  H21C 7419   1.383   3.375   8.942 -0.9749 -2.1529 -0.7979
   67CHL1   C22 7420   1.601   3.220   8.947 -0.1363  0.8701 -0.7017
   67CHL1  H22A 7421   1.705   3.188   8.970  0.0126  1.4475 -0.5556
   67CHL1  H22B 7422   1.544   3.125   8.945  1.2741 -0.0248  0.0236
   67CHL1   C23 7423   1.592   3.285   8.809 -0.5119  0.7999 -0.3894
   67CHL1  H23A 7424   1.643   3.213   8.742 -1.6113 -0.6365  0.2710
   67CHL1  H23B 7425   1.489   3.301   8.770  0.0524  1.5429 -1.6401
   67CHL1   C24 7426   1.665   3.417   8.798  0.2412  0.3535  0.1201
   67CHL1  H24A 7427   1.622   3.481   8.878 -0.9068  0.5743 -0.6554
   67CHL1  H24B 7428   1.774   3.408   8.819  0.5117 -1.7336 -1.8255
   67CHL1   C25 7429   1.629   3.499   8.667 -0.7272  0.8720  0.3571
   67CHL1   H25 7430   1.518   3.509   8.662 -0.7439  1.3691  1.4729
   67CHL1   C26 7431   1.694   3.630   8.669  0.2076 -0.1864  0.5349
   67CHL1  H26A 7432   1.672   3.680   8.766 -1.3657 -0.0147  0.1042
   67CHL1  H26B 7433   1.804   3.626   8.683  0.2050 -1.3752  0.2722
   67CHL1  H26C 7434   1.663   3.702   8.590 -0.5249  0.6791  1.5707
   67CHL1   C27 7435   1.674   3.422   8.539  0.2490 -0.5289  0.2019
   67CHL1  H27A 7436   1.635   3.480   8.452  0.5909 -0.2684  0.2176
   67CHL1  H27B 7437   1.784   3.422   8.528  0.1599 -2.2314 -1.0884
   67CHL1  H27C 7438   1.638   3.318   8.529 -2.1918  0.1524  1.0572
   68CHL1    C3 7439   5.485   3.283  10.141  0.1888 -0.2906  0.1494
   68CHL1    H3 7440   5.557   3.368  10.143  1.8133 -1.6174  0.0077
   68CHL1    O3 7441   5.449   3.240  10.271 -0.2162  0.1590  0.1458
   68CHL1   H3' 7442   5.376   3.179  10.254 -0.2809 -0.4556  2.2697
   68CHL1    C4 7443   5.366   3.336  10.065 -0.0274 -0.2756  0.1694
   68CHL1   H4A 7444   5.295   3.251  10.072 -0.1515 -0.0179  3.1631
   68CHL1   H4B 7445   5.313   3.415  10.122  0.5651 -0.9596  1.7199
   68CHL1    C5 7446   5.393   3.367   9.925 -0.1417 -0.1509  0.3756
   68CHL1    C6 7447   5.361   3.484   9.865 -0.2437  0.2137 -0.4916
   68CHL1    H6 7448   5.325   3.564   9.931  1.3947  0.5194  0.0889
   68CHL1    C7 7449   5.360   3.501   9.712 -0.3317 -0.4271 -0.1621
   68CHL1   H7A 7450   5.261   3.545   9.687 -1.3724 -2.5390  0.0612
   68CHL1   H7B 7451   5.439   3.575   9.688  2.1916 -3.2641 -1.1979
   68CHL1    C8 7452   5.389   3.371   9.625 -0.0321  0.0520  0.1992
   68CHL1    H8 7453   5.290   3.321   9.624 -0.5429  1.0146  0.9057
   68CHL1   C14 7454   5.439   3.416   9.485  0.6269 -0.1910 -0.3855
   68CHL1   H14 7455   5.541   3.458   9.499  0.6424 -0.2919 -0.1789
   68CHL1   C15 7456   5.361   3.525   9.406 -0.5635 -0.2060  0.2390
   68CHL1  H15A 7457   5.253   3.509   9.428 -0.0714  0.0443  3.3492
   68CHL1  H15B 7458   5.390   3.626   9.442  0.5818  0.0434 -1.3111
   68CHL1   C16 7459   5.394   3.493   9.261 -0.5658  0.1718 -0.4862
   68CHL1  H16A 7460   5.305   3.462   9.200 -0.5583  0.0466 -0.4338
   68CHL1  H16B 7461   5.438   3.583   9.213  0.2447 -0.5028 -1.0456
   68CHL1   C17 7462   5.494   3.374   9.260 -0.4794  0.1445  0.8079
   68CHL1   H17 7463   5.593   3.423   9.270  0.1304 -0.5342 -1.4407
   68CHL1   C13 7464   5.460   3.302   9.391 -0.0663  0.4823  0.1873
   68CHL1   C18 7465   5.329   3.218   9.367 -0.6278 -0.5299 -0.4019
   68CHL1  H18A 7466   5.347   3.137   9.294  0.0404 -3.9553  3.2227
   68CHL1  H18B 7467   5.304   3.158   9.457  0.7264  0.9022  0.9916
   68CHL1  H18C 7468   5.238   3.266   9.326  0.5898  0.2936 -2.2944
   68CHL1   C12 7469   5.572   3.217   9.453  0.3720  0.0457  0.1010
   68CHL1  H12A 7470   5.586   3.127   9.388  2.3716  0.3791  0.0083
   68CHL1  H12B 7471   5.665   3.277   9.450  1.0397 -0.9400  0.7425
   68CHL1   C11 7472   5.535   3.166   9.592 -0.1083 -0.6220 -0.7552
   68CHL1  H11A 7473   5.462   3.083   9.579  1.6130 -2.0802 -1.5654
   68CHL1  H11B 7474   5.623   3.112   9.634  2.4948  0.5786 -4.1558
   68CHL1    C9 7475   5.497   3.287   9.691  0.3006  0.7112 -0.0842
   68CHL1    H9 7476   5.590   3.347   9.702 -1.2238  3.2439  0.0600
   68CHL1   C10 7477   5.453   3.253   9.838 -0.8010 -0.2506  0.0771
   68CHL1   C19 7478   5.344   3.141   9.831 -0.3151  0.9224 -0.1566
   68CHL1  H19A 7479   5.391   3.048   9.794  0.9966  0.6155  2.1174
   68CHL1  H19B 7480   5.319   3.108   9.933 -1.6838  1.6921 -0.2218
   68CHL1  H19C 7481   5.246   3.165   9.785  0.0727 -1.5011 -2.5187
   68CHL1    C1 7482   5.577   3.204   9.911  0.3118 -0.2434  0.1316
   68CHL1   H1A 7483   5.613   3.123   9.844  1.2381  0.2890 -0.0368
   68CHL1   H1B 7484   5.657   3.281   9.915  0.3742 -0.3257  0.5302
   68CHL1    C2 7485   5.549   3.171  10.059  0.1644  0.4283 -0.0938
   68CHL1   H2A 7486   5.641   3.146  10.117 -0.2630 -2.1794 -0.4230
   68CHL1   H2B 7487   5.497   3.073  10.071 -0.1948  0.6230 -0.0329
   68CHL1   C20 7488   5.501   3.300   9.127  0.1288  0.1886  0.4496
   68CHL1   H20 7489   5.400   3.260   9.101  0.6747  0.0225 -1.5620
   68CHL1   C21 7490   5.607   3.194   9.132 -0.0425  0.2304  0.0449
   68CHL1  H21A 7491   5.624   3.155   9.029  2.4913  3.4247 -0.9301
   68CHL1  H21B 7492   5.558   3.112   9.189 -2.9214  0.6872 -1.5962
   68CHL1  H21C 7493   5.707   3.224   9.170 -0.6689 -1.2849  3.2368
   68CHL1   C22 7494   5.531   3.407   9.011  0.0647 -0.2737  0.1231
   68CHL1  H22A 7495   5.433   3.456   8.996  0.0243 -0.7056 -1.1208
   68CHL1  H22B 7496   5.612   3.477   9.039  0.2049 -0.6103  0.5685
   68CHL1   C23 7497   5.571   3.357   8.867  0.3198 -0.2076  0.4544
   68CHL1  H23A 7498   5.602   3.453   8.820 -0.8510  1.4087  2.7780
   68CHL1  H23B 7499   5.667   3.302   8.880 -0.4649 -1.2893  1.9978
   68CHL1   C24 7500   5.475   3.275   8.773 -0.1007 -0.4014 -0.8969
   68CHL1  H24A 7501   5.411   3.200   8.825 -0.5008  2.0708  2.5083
   68CHL1  H24B 7502   5.402   3.343   8.725  0.2512 -2.7760 -5.2741
   68CHL1   C25 7503   5.551   3.192   8.659  0.6875  0.2395 -0.8765
   68CHL1   H25 7504   5.621   3.122   8.710 -0.4718 -1.1428 -1.1237
   68CHL1   C26 7505   5.452   3.110   8.577  0.3012  0.0190  0.3903
   68CHL1  H26A 7506   5.384   3.047   8.638 -0.8552 -1.7704 -2.5379
   68CHL1  H26B 7507   5.393   3.186   8.520 -0.4243 -0.2517  0.7647
   68CHL1  H26C 7508   5.506   3.046   8.504  0.6722  0.6724  0.0823
   68CHL1   C27 7509   5.626   3.293   8.572  0.3031  0.2712  0.5200
   68CHL1  H27A 7510   5.699   3.355   8.629  0.9986 -1.1637  1.2473
   68CHL1  H27B 7511   5.680   3.240   8.491 -0.0016  2.0240 -0.9028
   68CHL1  H27C 7512   5.553   3.363   8.526 -0.7479  1.1270  3.3203
   69CHL1    C3 7513   5.332   3.530   6.677  0.1243  0.4310  0.4241
   69CHL1    H3 7514   5.401   3.443   6.684  0.4027  0.4348 -1.6186
   69CHL1    O3 7515   5.303   3.563   6.538  0.0057  0.0627  0.1215
   69CHL1   H3' 7516   5.252   3.643   6.546 -0.1321 -0.1181  1.2771
   69CHL1    C4 7517   5.217   3.505   6.769 -0.4702 -0.6914  0.2619
   69CHL1   H4A 7518   5.149   3.593   6.776 -0.8715 -0.7834 -1.8184
   69CHL1   H4B 7519   5.153   3.423   6.731 -1.9013 -0.2149  1.5472
   69CHL1    C5 7520   5.267   3.482   6.905 -0.1335  0.2767 -0.0677
   69CHL1    C6 7521   5.235   3.371   6.968 -0.1910 -0.0769 -0.6393
   69CHL1    H6 7522   5.165   3.295   6.931  0.6720 -0.8509 -0.7274
   69CHL1    C7 7523   5.290   3.338   7.105  0.1077  0.5586  0.1840
   69CHL1   H7A 7524   5.217   3.298   7.178 -0.4646 -0.9588 -1.1681
   69CHL1   H7B 7525   5.380   3.272   7.105  0.5908  1.0527  3.3788
   69CHL1    C8 7526   5.344   3.457   7.189  0.3952 -0.2172  0.4052
   69CHL1    H8 7527   5.262   3.515   7.235 -0.0672 -0.0511 -0.6072
   69CHL1   C14 7528   5.432   3.403   7.300 -0.8190 -0.1543  0.2970
   69CHL1   H14 7529   5.523   3.366   7.248 -0.7464 -1.5405  1.3611
   69CHL1   C15 7530   5.386   3.284   7.385 -0.0970  0.1471 -1.1991
   69CHL1  H15A 7531   5.277   3.291   7.403  0.3796  1.5210  1.7202
   69CHL1  H15B 7532   5.415   3.186   7.340  0.6357 -0.3981  0.3675
   69CHL1   C16 7533   5.458   3.300   7.518 -0.6317 -0.4645 -0.1263
   69CHL1  H16A 7534   5.388   3.319   7.601 -0.1211 -0.7752  0.3834
   69CHL1  H16B 7535   5.519   3.213   7.551  0.5470  0.5826  0.5034
   69CHL1   C17 7536   5.549   3.426   7.503 -0.5737  0.4674 -0.3006
   69CHL1   H17 7537   5.641   3.387   7.456 -0.8492 -0.5178 -0.0501
   69CHL1   C13 7538   5.485   3.513   7.391 -0.4900  0.3842 -0.8416
   69CHL1   C18 7539   5.369   3.581   7.462  1.1695  0.1281 -0.3992
   69CHL1  H18A 7540   5.310   3.510   7.523  3.0451 -1.4500 -0.3289
   69CHL1  H18B 7541   5.402   3.656   7.537  1.4860  1.7106 -2.0576
   69CHL1  H18C 7542   5.309   3.640   7.390 -0.6667 -0.9132  0.2245
   69CHL1   C12 7543   5.582   3.591   7.306  0.1907 -0.7540  0.0594
   69CHL1  H12A 7544   5.617   3.676   7.368 -1.0178  1.1004 -1.6585
   69CHL1  H12B 7545   5.673   3.535   7.276  0.4372 -0.5636  0.4464
   69CHL1   C11 7546   5.512   3.646   7.182 -0.5914  0.1693  0.5555
   69CHL1  H11A 7547   5.447   3.726   7.225 -0.2336  1.0275 -0.4402
   69CHL1  H11B 7548   5.579   3.707   7.117 -1.8575  0.1673 -0.7877
   69CHL1    C9 7549   5.434   3.540   7.099  0.1292  0.5840  0.4190
   69CHL1    H9 7550   5.512   3.474   7.054 -0.7669  1.7859 -3.3145
   69CHL1   C10 7551   5.360   3.594   6.971  0.1184 -0.0972  0.1626
   69CHL1   C19 7552   5.267   3.708   7.009 -0.2910  0.1337  0.5447
   69CHL1  H19A 7553   5.181   3.673   7.071 -0.9247  0.5979 -0.0651
   69CHL1  H19B 7554   5.318   3.790   7.063 -0.4340  0.4735  0.1696
   69CHL1  H19C 7555   5.212   3.755   6.924 -0.6930 -1.0294  0.1321
   69CHL1    C1 7556   5.461   3.636   6.867  0.1725 -0.3172  0.6648
   69CHL1   H1A 7557   5.514   3.734   6.871  0.6381 -0.4981 -0.7724
   69CHL1   H1B 7558   5.540   3.561   6.849  0.7843  0.4386  0.1378
   69CHL1    C2 7559   5.402   3.655   6.725 -0.1967  0.2802 -0.0406
   69CHL1   H2A 7560   5.485   3.686   6.658 -0.3695  3.4343  1.0567
   69CHL1   H2B 7561   5.330   3.740   6.730 -1.0296 -0.4310  0.2152
   69CHL1   C20 7562   5.575   3.491   7.648  0.4329 -0.0168  0.4948
   69CHL1   H20 7563   5.478   3.533   7.681  1.1175  1.1267  1.1085
   69CHL1   C21 7564   5.666   3.614   7.630  0.5439  0.4971  0.0398
   69CHL1  H21A 7565   5.712   3.663   7.719  0.1606  2.1803 -0.6547
   69CHL1  H21B 7566   5.604   3.689   7.577  1.6198  0.1682 -1.7852
   69CHL1  H21C 7567   5.753   3.585   7.566  0.6901 -0.2104  0.5398
   69CHL1   C22 7568   5.637   3.399   7.754  0.0762  0.6496 -0.0852
   69CHL1  H22A 7569   5.575   3.308   7.765 -0.4422  0.7508 -1.9360
   69CHL1  H22B 7570   5.733   3.349   7.728 -0.5106  0.7662 -2.6990
   69CHL1   C23 7571   5.669   3.473   7.891  0.2275  0.0990  0.1381
   69CHL1  H23A 7572   5.743   3.554   7.874 -1.2006  1.9203  1.9273
   69CHL1  H23B 7573   5.574   3.515   7.931  0.5834 -1.7297  3.1774
   69CHL1   C24 7574   5.737   3.378   7.994  0.5412 -0.3429 -0.3985
   69CHL1  H24A 7575   5.661   3.299   8.011 -0.4825  1.0361  1.8727
   69CHL1  H24B 7576   5.833   3.344   7.950 -0.2698 -1.6318 -1.2446
   69CHL1   C25 7577   5.746   3.460   8.124 -0.1009  0.2860 -0.5031
   69CHL1   H25 7578   5.802   3.552   8.096  2.6134  0.1429  3.6185
   69CHL1   C26 7579   5.617   3.485   8.199  0.3552  0.4815 -0.0482
   69CHL1  H26A 7580   5.638   3.530   8.299  0.3825  0.6956 -0.1490
   69CHL1  H26B 7581   5.567   3.567   8.143  1.6836  0.7374 -0.9298
   69CHL1  H26C 7582   5.557   3.392   8.198  0.4673  0.4066  0.0797
   69CHL1   C27 7583   5.847   3.389   8.216  0.4344 -0.1768  0.3317
   69CHL1  H27A 7584   5.888   3.464   8.287 -1.4976  0.9756  0.3037
   69CHL1  H27B 7585   5.799   3.302   8.267  0.9296 -0.3326  0.5381
   69CHL1  H27C 7586   5.936   3.361   8.157 -0.7743 -1.0610 -1.1533
   70CHL1    C3 7587   3.905   5.727   7.015 -0.0447  0.3214 -0.2474
   70CHL1    H3 7588   3.821   5.654   7.006  0.8269 -0.6332 -0.7774
   70CHL1    O3 7589   3.982   5.713   6.898 -0.1780  0.5193 -0.3950
   70CHL1   H3' 7590   4.060   5.769   6.910 -0.1182  0.6875 -1.5139
   70CHL1    C4 7591   3.851   5.867   7.023  0.5494  0.4900 -0.5492
   70CHL1   H4A 7592   3.943   5.929   7.032  2.9692 -2.7831 -0.8167
   70CHL1   H4B 7593   3.799   5.891   6.928  0.4285  1.7283 -0.1916
   70CHL1    C5 7594   3.756   5.878   7.139 -0.5006  0.3741  0.1652
   70CHL1    C6 7595   3.629   5.926   7.129  0.0382  0.0740  0.0790
   70CHL1    H6 7596   3.586   5.944   7.029  0.8551 -0.5292 -0.4014
   70CHL1    C7 7597   3.548   5.944   7.249 -0.2491  0.2221  0.1975
   70CHL1   H7A 7598   3.484   6.034   7.232 -1.1351 -0.1988  1.1530
   70CHL1   H7B 7599   3.489   5.851   7.261 -0.4376  0.1732 -0.9747
   70CHL1    C8 7600   3.640   5.964   7.373  0.1934  0.0592 -0.5965
   70CHL1    H8 7601   3.715   6.047   7.367  1.9877 -1.4605 -0.1646
   70CHL1   C14 7602   3.557   5.988   7.496  0.0251 -0.1852 -0.4570
   70CHL1   H14 7603   3.480   5.908   7.497 -0.3847  0.2063 -0.4737
   70CHL1   C15 7604   3.466   6.107   7.493  0.1006 -0.0705 -0.4710
   70CHL1  H15A 7605   3.521   6.201   7.469 -1.5193  1.0186 -0.1207
   70CHL1  H15B 7606   3.381   6.107   7.421 -0.0334  1.6423 -0.3472
   70CHL1   C16 7607   3.412   6.131   7.636  0.2762 -0.1130 -0.1887
   70CHL1  H16A 7608   3.445   6.233   7.667  1.6072 -1.2376  2.3822
   70CHL1  H16B 7609   3.302   6.121   7.647  0.0761  2.8054  1.5148
   70CHL1   C17 7610   3.491   6.021   7.724  0.6911  0.0400  0.0062
   70CHL1   H17 7611   3.437   5.925   7.737 -0.3645  0.7555  1.2654
   70CHL1   C13 7612   3.615   5.984   7.636 -0.2789 -0.4715  0.3252
   70CHL1   C18 7613   3.720   6.096   7.654  0.8215 -0.3228 -0.2742
   70CHL1  H18A 7614   3.781   6.088   7.746  1.5821 -2.5424 -0.9134
   70CHL1  H18B 7615   3.784   6.104   7.563  0.7790 -2.5196 -0.5454
   70CHL1  H18C 7616   3.656   6.186   7.668 -0.7011 -1.4115 -0.0123
   70CHL1   C12 7617   3.668   5.840   7.643  0.3780  0.3530  0.3204
   70CHL1  H12A 7618   3.736   5.842   7.732  0.7140  0.5084  0.0653
   70CHL1  H12B 7619   3.588   5.765   7.634 -0.5926  1.5317 -1.4395
   70CHL1   C11 7620   3.771   5.809   7.528  0.8075 -0.1954 -0.3356
   70CHL1  H11A 7621   3.862   5.871   7.545  0.8539 -0.0100 -1.2196
   70CHL1  H11B 7622   3.804   5.704   7.534 -0.0645 -0.4261  3.5487
   70CHL1    C9 7623   3.719   5.835   7.386 -0.4136  0.5746 -0.2537
   70CHL1    H9 7624   3.641   5.758   7.369 -0.2290  0.2205  0.4715
   70CHL1   C10 7625   3.827   5.832   7.266  0.9113  0.3841  0.3186
   70CHL1   C19 7626   3.946   5.931   7.299  0.7336  0.5994  0.1738
   70CHL1  H19A 7627   3.897   6.025   7.332  1.0412  0.8211 -0.0044
   70CHL1  H19B 7628   4.024   5.893   7.369  0.7385 -0.3598 -0.3296
   70CHL1  H19C 7629   4.003   5.961   7.209 -0.8403  1.4399 -0.5791
   70CHL1    C1 7630   3.890   5.695   7.251  0.4658 -0.2736  0.4818
   70CHL1   H1A 7631   3.937   5.668   7.348  0.5320  1.9419  1.1121
   70CHL1   H1B 7632   3.806   5.627   7.224  0.6185  0.0110 -0.7665
   70CHL1    C2 7633   3.983   5.680   7.131 -0.0779 -0.2999  0.2452
   70CHL1   H2A 7634   4.003   5.571   7.122  0.9369 -0.0042 -1.5030
   70CHL1   H2B 7635   4.086   5.723   7.137  0.0528 -0.6198  0.3379
   70CHL1   C20 7636   3.519   6.064   7.872  0.2368  0.4384  0.3934
   70CHL1   H20 7637   3.620   6.109   7.888 -1.0754  3.3389  1.1375
   70CHL1   C21 7638   3.523   5.931   7.947 -0.4301  0.7904 -0.6202
   70CHL1  H21A 7639   3.597   5.866   7.896 -1.0843  0.3880 -1.0662
   70CHL1  H21B 7640   3.424   5.883   7.960 -0.0926  0.3912  0.7201
   70CHL1  H21C 7641   3.566   5.948   8.049 -0.4974  1.4470 -0.6990
   70CHL1   C22 7642   3.425   6.178   7.929  0.0271  0.2378 -0.6158
   70CHL1  H22A 7643   3.439   6.262   7.857  0.7177 -0.7019 -1.6224
   70CHL1  H22B 7644   3.320   6.144   7.922 -0.1331  0.6904 -0.4717
   70CHL1   C23 7645   3.459   6.223   8.073 -0.7552 -0.1613  0.0422
   70CHL1  H23A 7646   3.472   6.130   8.131  0.8304 -0.3924 -0.6358
   70CHL1  H23B 7647   3.561   6.268   8.079 -1.9260  2.7706 -0.4740
   70CHL1   C24 7648   3.350   6.316   8.141 -1.0496 -0.4087  0.2203
   70CHL1  H24A 7649   3.339   6.391   8.060  1.1571 -0.2738 -0.0170
   70CHL1  H24B 7650   3.257   6.255   8.146 -0.7709 -1.0100 -1.3297
   70CHL1   C25 7651   3.392   6.375   8.282  0.1236 -0.4859 -0.0792
   70CHL1   H25 7652   3.400   6.282   8.342  0.0141  0.2503  1.1213
   70CHL1   C26 7653   3.527   6.451   8.286 -0.2718  0.2158  1.2733
   70CHL1  H26A 7654   3.526   6.541   8.220 -0.7708 -2.2695 -2.4139
   70CHL1  H26B 7655   3.544   6.498   8.385 -0.5928  2.0155  0.5257
   70CHL1  H26C 7656   3.615   6.389   8.259 -0.1374  0.5688  0.8828
   70CHL1   C27 7657   3.274   6.458   8.337 -0.2696  0.3638 -0.4377
   70CHL1  H27A 7658   3.178   6.402   8.331 -1.4913  1.8805  2.7154
   70CHL1  H27B 7659   3.297   6.483   8.443  1.0169  0.4976 -0.7277
   70CHL1  H27C 7660   3.278   6.558   8.288  1.5581  0.3529 -0.3675
   71CHL1    C3 7661   3.901   1.095   6.854  0.4119 -0.0851  0.3270
   71CHL1    H3 7662   3.977   1.173   6.872 -1.0877  1.8463 -1.2757
   71CHL1    O3 7663   3.916   1.048   6.720 -1.0873  0.2292 -0.1566
   71CHL1   H3' 7664   3.850   0.978   6.718 -0.1306 -0.6848 -1.2482
   71CHL1    C4 7665   3.909   0.988   6.970 -0.1692 -0.9705  0.3722
   71CHL1   H4A 7666   3.829   0.911   6.962  0.6029 -1.8889  1.3240
   71CHL1   H4B 7667   4.005   0.935   6.956  0.6209  0.6375 -0.5315
   71CHL1    C5 7668   3.881   1.061   7.099  0.4744  0.5842  0.1005
   71CHL1    C6 7669   3.974   1.043   7.194  0.1020 -0.5079 -0.0370
   71CHL1    H6 7670   4.060   0.978   7.171  0.9655  0.8210 -0.7241
   71CHL1    C7 7671   3.965   1.101   7.330 -0.3238  1.3493 -0.3548
   71CHL1   H7A 7672   3.982   1.020   7.405  1.1624  1.0808 -0.9426
   71CHL1   H7B 7673   4.043   1.177   7.356 -0.3149  1.0354  0.5976
   71CHL1    C8 7674   3.826   1.152   7.365 -0.6765 -0.5737 -0.7398
   71CHL1    H8 7675   3.761   1.064   7.383  0.5387 -1.4751 -0.7029
   71CHL1   C14 7676   3.817   1.237   7.489  0.5196  0.0112 -0.1632
   71CHL1   H14 7677   3.880   1.325   7.464 -0.2494  0.4564 -0.5705
   71CHL1   C15 7678   3.880   1.196   7.623  0.3551  0.3809  0.6929
   71CHL1  H15A 7679   3.844   1.096   7.655  0.3963  0.7618  1.9886
   71CHL1  H15B 7680   3.991   1.188   7.615  0.4294  0.8646  1.1761
   71CHL1   C16 7681   3.841   1.313   7.720 -0.4612  0.4332 -0.6248
   71CHL1  H16A 7682   3.820   1.274   7.822 -0.8312 -0.5339 -1.0601
   71CHL1  H16B 7683   3.923   1.385   7.743  0.3221 -1.0602  1.7395
   71CHL1   C17 7684   3.720   1.382   7.651 -0.3506  0.0976  0.3715
   71CHL1   H17 7685   3.758   1.475   7.604 -1.3763  0.4449  0.2210
   71CHL1   C13 7686   3.679   1.292   7.526 -0.8601 -0.1795  0.1585
   71CHL1   C18 7687   3.591   1.182   7.583 -0.2558  0.1198  0.9128
   71CHL1  H18A 7688   3.484   1.211   7.585 -0.8370 -1.5566 -1.3799
   71CHL1  H18B 7689   3.583   1.093   7.517  0.1998 -0.6218  1.8356
   71CHL1  H18C 7690   3.610   1.133   7.680  0.1097 -0.4053  0.5841
   71CHL1   C12 7691   3.624   1.376   7.408 -0.3350 -0.8048 -0.7236
   71CHL1  H12A 7692   3.521   1.409   7.432  0.5643  1.1600  0.6797
   71CHL1  H12B 7693   3.674   1.474   7.401  1.7628 -1.6338  1.2055
   71CHL1   C11 7694   3.622   1.284   7.286  0.6141  0.0262 -0.4711
   71CHL1  H11A 7695   3.553   1.200   7.310  0.0495  0.3255 -1.0226
   71CHL1  H11B 7696   3.569   1.338   7.205  2.2338  0.2784 -1.4137
   71CHL1    C9 7697   3.758   1.224   7.248 -0.3518  0.3389  0.5553
   71CHL1    H9 7698   3.823   1.313   7.233  0.8622 -0.2811  1.8565
   71CHL1   C10 7699   3.754   1.140   7.114  0.0446  0.6794 -0.2292
   71CHL1   C19 7700   3.627   1.042   7.108 -0.2539 -0.5022 -0.0899
   71CHL1  H19A 7701   3.632   0.972   7.194  2.2548 -0.4485 -0.1161
   71CHL1  H19B 7702   3.538   1.108   7.114  2.2362  3.1969 -0.5652
   71CHL1  H19C 7703   3.622   0.988   7.011 -1.7836  0.5684 -0.6382
   71CHL1    C1 7704   3.741   1.232   6.998  0.2624  0.7032 -0.7751
   71CHL1   H1A 7705   3.641   1.277   7.012  0.4564  0.7429  0.6902
   71CHL1   H1B 7706   3.807   1.321   7.004 -2.6306  3.1528 -2.5699
   71CHL1    C2 7707   3.762   1.156   6.866  0.5449 -0.6053  0.3330
   71CHL1   H2A 7708   3.750   1.236   6.791  2.0905 -0.1444  0.5477
   71CHL1   H2B 7709   3.676   1.090   6.841  0.8381  0.0005 -2.6382
   71CHL1   C20 7710   3.606   1.429   7.743  0.1986 -0.4221 -0.1388
   71CHL1   H20 7711   3.565   1.339   7.792 -1.2873 -1.0445 -2.3902
   71CHL1   C21 7712   3.492   1.506   7.676  0.3728  0.5670  0.8092
   71CHL1  H21A 7713   3.521   1.596   7.618 -0.8371  2.2393  2.6691
   71CHL1  H21B 7714   3.413   1.541   7.746 -0.8645 -0.4725 -0.0432
   71CHL1  H21C 7715   3.428   1.442   7.612  0.8226  0.3118  0.6039
   71CHL1   C22 7716   3.658   1.535   7.856  0.0274  1.0662  0.1537
   71CHL1  H22A 7717   3.757   1.497   7.887 -0.6950 -1.8899 -0.8049
   71CHL1  H22B 7718   3.663   1.636   7.811 -0.9992  0.5731 -1.1388
   71CHL1   C23 7719   3.572   1.527   7.984  0.1820 -0.0238  1.0477
   71CHL1  H23A 7720   3.465   1.541   7.956  0.5995 -0.0964 -0.6924
   71CHL1  H23B 7721   3.583   1.425   8.027 -0.9207  0.8001  3.4683
   71CHL1   C24 7722   3.610   1.629   8.096  0.1454  0.5071  0.1667
   71CHL1  H24A 7723   3.717   1.616   8.122  0.1401  0.2278  0.0545
   71CHL1  H24B 7724   3.589   1.731   8.057 -0.0878  0.3367 -0.1657
   71CHL1   C25 7725   3.528   1.606   8.226 -0.3119 -0.1530 -0.0259
   71CHL1   H25 7726   3.421   1.602   8.197 -0.6672  2.0838  0.7565
   71CHL1   C26 7727   3.581   1.487   8.295  0.6686 -0.2015 -0.5669
   71CHL1  H26A 7728   3.549   1.487   8.401 -0.7613  1.8135 -0.9330
   71CHL1  H26B 7729   3.547   1.394   8.243  1.1487 -0.4846 -0.3824
   71CHL1  H26C 7730   3.692   1.483   8.290  0.6558  0.2625 -1.4552
   71CHL1   C27 7731   3.517   1.729   8.327  0.6167  0.6431  0.1561
   71CHL1  H27A 7732   3.424   1.704   8.383 -1.3291  0.8147 -2.7696
   71CHL1  H27B 7733   3.607   1.740   8.392  1.6533  2.2508 -1.4686
   71CHL1  H27C 7734   3.513   1.819   8.262  1.5858 -1.2249 -2.6952
   72CHL1    C3 7735   4.470   5.430   7.062 -0.4566  0.7747 -0.3324
   72CHL1    H3 7736   4.406   5.490   6.993  0.0895  2.2231  0.3654
   72CHL1    O3 7737   4.551   5.351   6.974  0.0133  0.4337  0.1470
   72CHL1   H3' 7738   4.588   5.427   6.927 -1.1666  1.3808  0.7066
   72CHL1    C4 7739   4.565   5.532   7.125  0.6666  0.3478  0.1878
   72CHL1   H4A 7740   4.649   5.471   7.165  0.0565  1.1249  2.8383
   72CHL1   H4B 7741   4.617   5.597   7.052  0.9074  0.0790  0.1187
   72CHL1    C5 7742   4.502   5.613   7.235 -0.6187  0.7592 -0.1390
   72CHL1    C6 7743   4.510   5.743   7.244  0.1485  0.1051 -0.6056
   72CHL1    H6 7744   4.553   5.811   7.169  2.0411  0.1294  0.4457
   72CHL1    C7 7745   4.459   5.833   7.357 -0.3932 -0.0811 -0.0999
   72CHL1   H7A 7746   4.549   5.890   7.388 -0.3078  0.1542 -0.7602
   72CHL1   H7B 7747   4.367   5.889   7.329 -1.0719 -0.8226  0.5608
   72CHL1    C8 7748   4.414   5.753   7.476  0.8588  0.7551 -0.7620
   72CHL1    H8 7749   4.498   5.710   7.534 -2.7177 -2.6892  2.4014
   72CHL1   C14 7750   4.318   5.834   7.568  0.3233  0.0322 -0.3274
   72CHL1   H14 7751   4.223   5.845   7.512  0.7601  0.3133 -1.0329
   72CHL1   C15 7752   4.351   5.981   7.600 -0.7046 -0.1609  0.3650
   72CHL1  H15A 7753   4.450   5.975   7.649 -0.9161 -0.3874  0.7668
   72CHL1  H15B 7754   4.380   6.053   7.521  1.2181  0.0813  1.2523
   72CHL1   C16 7755   4.251   6.020   7.706  0.2248  0.3890  0.1917
   72CHL1  H16A 7756   4.302   6.068   7.793 -0.2110  0.2011  0.5535
   72CHL1  H16B 7757   4.178   6.097   7.677  1.0897  0.6166 -1.4850
   72CHL1   C17 7758   4.181   5.886   7.745  0.4298  0.6797  0.5132
   72CHL1   H17 7759   4.094   5.868   7.679  1.3348 -5.3954  0.4112
   72CHL1   C13 7760   4.273   5.770   7.697  0.5979  0.1144  0.1335
   72CHL1   C18 7761   4.388   5.753   7.797  0.3971  0.1581 -0.8230
   72CHL1  H18A 7762   4.457   5.680   7.749  1.1847  1.1115 -1.1773
   72CHL1  H18B 7763   4.449   5.844   7.816 -1.7711  1.4305  0.3466
   72CHL1  H18C 7764   4.353   5.710   7.893  2.5634 -0.9127 -0.4471
   72CHL1   C12 7765   4.208   5.637   7.655  0.3703  0.2487  0.0643
   72CHL1  H12A 7766   4.174   5.582   7.745 -2.3692  2.1826  0.3164
   72CHL1  H12B 7767   4.114   5.669   7.606 -1.1816  1.3074  3.4646
   72CHL1   C11 7768   4.292   5.548   7.565 -0.1323 -0.8789  0.9330
   72CHL1  H11A 7769   4.377   5.509   7.626 -0.9840 -1.5169  1.7509
   72CHL1  H11B 7770   4.229   5.459   7.546  1.6073 -1.6434 -1.7620
   72CHL1    C9 7771   4.344   5.616   7.436 -0.0010  0.2987 -0.4380
   72CHL1    H9 7772   4.253   5.651   7.382  1.0931  1.1368 -1.8298
   72CHL1   C10 7773   4.428   5.531   7.339 -0.0908  0.3012 -0.4889
   72CHL1   C19 7774   4.524   5.451   7.421 -0.4087  0.1446 -0.8657
   72CHL1  H19A 7775   4.566   5.523   7.495 -0.9835 -0.1434 -0.2412
   72CHL1  H19B 7776   4.477   5.372   7.484 -0.7704  1.9243  1.2116
   72CHL1  H19C 7777   4.606   5.394   7.371  0.3839  0.4333  0.0601
   72CHL1    C1 7778   4.331   5.437   7.269  0.1176  0.6153 -0.0795
   72CHL1   H1A 7779   4.278   5.386   7.352  0.5703 -0.3429 -0.3619
   72CHL1   H1B 7780   4.248   5.497   7.226 -1.6854 -0.3782  1.8176
   72CHL1    C2 7781   4.400   5.343   7.169 -0.2382  0.0908 -0.0694
   72CHL1   H2A 7782   4.326   5.277   7.119 -1.0320  0.2593  0.8753
   72CHL1   H2B 7783   4.482   5.284   7.215 -1.4240 -0.1239  1.8528
   72CHL1   C20 7784   4.131   5.888   7.889 -0.1762  0.1170  0.3477
   72CHL1   H20 7785   4.222   5.902   7.951  0.6719 -0.3635 -0.7458
   72CHL1   C21 7786   4.062   5.752   7.928  0.4366 -0.3087 -0.2086
   72CHL1  H21A 7787   4.134   5.669   7.945  0.0707 -1.0399 -1.9752
   72CHL1  H21B 7788   3.997   5.722   7.842  1.7171 -0.4179 -1.1742
   72CHL1  H21C 7789   4.010   5.770   8.024  0.6079 -0.8620 -0.0107
   72CHL1   C22 7790   4.030   6.001   7.905 -0.0200 -0.2638 -0.6744
   72CHL1  H22A 7791   4.077   6.100   7.891  0.8651 -0.6131 -0.2602
   72CHL1  H22B 7792   3.949   5.999   7.829 -0.4553  2.5338 -0.3830
   72CHL1   C23 7793   3.974   6.014   8.049 -0.0152 -0.1217 -0.2563
   72CHL1  H23A 7794   3.890   5.941   8.043  1.0497 -1.3421 -0.7028
   72CHL1  H23B 7795   4.045   5.976   8.125 -0.2941  1.3113  0.7682
   72CHL1   C24 7796   3.923   6.159   8.083 -0.3010 -0.5196 -0.0058
   72CHL1  H24A 7797   4.000   6.235   8.057  0.2524 -0.1871  2.3248
   72CHL1  H24B 7798   3.820   6.173   8.044 -0.7396  1.1666  1.6004
   72CHL1   C25 7799   3.916   6.184   8.238 -0.2651 -0.8564 -1.1087
   72CHL1   H25 7800   3.998   6.132   8.292  0.7460  1.1732 -0.5920
   72CHL1   C26 7801   3.940   6.335   8.281  0.1296  0.0659 -0.6508
   72CHL1  H26A 7802   3.891   6.346   8.380 -0.6604 -1.5287 -0.8261
   72CHL1  H26B 7803   4.051   6.344   8.290  0.4203 -2.3903 -1.0457
   72CHL1  H26C 7804   3.891   6.415   8.223  0.2716  0.6946  0.0756
   72CHL1   C27 7805   3.781   6.135   8.294  0.1165 -0.0381 -0.2105
   72CHL1  H27A 7806   3.776   6.024   8.293 -1.0605 -0.0452  1.6602
   72CHL1  H27B 7807   3.746   6.178   8.390 -1.3016 -1.3416 -0.1020
   72CHL1  H27C 7808   3.704   6.171   8.223 -0.3495  0.5696  0.5906
   73CHL1    C3 7809   4.001   1.765   6.920 -0.7889  0.5565 -0.5873
   73CHL1    H3 7810   4.014   1.875   6.930 -1.5083  0.6344 -0.4253
   73CHL1    O3 7811   3.996   1.727   6.787 -0.5106 -0.0001  0.0715
   73CHL1   H3' 7812   3.968   1.635   6.789 -0.9203  0.0920 -0.9346
   73CHL1    C4 7813   4.110   1.691   7.006 -0.0953  0.4715 -0.6728
   73CHL1   H4A 7814   4.085   1.583   7.005 -0.8026  0.5218  2.3452
   73CHL1   H4B 7815   4.207   1.709   6.955 -0.2475  1.7833 -0.5376
   73CHL1    C5 7816   4.104   1.725   7.153  0.1596  0.1519 -0.1302
   73CHL1    C6 7817   4.215   1.766   7.219 -0.2253 -0.3849  0.5072
   73CHL1    H6 7818   4.315   1.767   7.172  0.2247 -1.8652  1.3611
   73CHL1    C7 7819   4.225   1.794   7.365  0.1158 -0.8750 -0.3827
   73CHL1   H7A 7820   4.313   1.741   7.407  0.9369  1.2014  0.6609
   73CHL1   H7B 7821   4.238   1.904   7.369 -0.4260 -0.6856 -2.4211
   73CHL1    C8 7822   4.096   1.768   7.438 -0.0869 -0.2008 -0.0802
   73CHL1    H8 7823   4.094   1.657   7.448 -0.2529 -0.2748 -0.8546
   73CHL1   C14 7824   4.087   1.846   7.565 -0.6686 -0.5419  0.5811
   73CHL1   H14 7825   4.082   1.953   7.536 -0.2490 -0.9973 -1.3618
   73CHL1   C15 7826   4.206   1.836   7.661  0.0197  0.2773  0.2310
   73CHL1  H15A 7827   4.227   1.728   7.674  1.1628  0.1809 -1.8676
   73CHL1  H15B 7828   4.296   1.889   7.623  0.1377 -0.6276 -0.8053
   73CHL1   C16 7829   4.152   1.900   7.789 -0.4435 -0.4906 -0.1191
   73CHL1  H16A 7830   4.178   1.848   7.884  0.2708  0.0694  0.0072
   73CHL1  H16B 7831   4.178   2.008   7.797  0.0277 -0.5279 -1.0442
   73CHL1   C17 7832   3.996   1.900   7.777  0.4105 -0.5853 -0.0723
   73CHL1   H17 7833   3.967   2.001   7.740  2.0897  0.5193  1.4918
   73CHL1   C13 7834   3.961   1.816   7.652  0.3899 -0.1010 -0.3494
   73CHL1   C18 7835   3.949   1.666   7.683  0.1847 -0.1264 -0.2236
   73CHL1  H18A 7836   3.866   1.639   7.751 -1.2042  0.4302 -1.6196
   73CHL1  H18B 7837   3.945   1.602   7.592  1.3846 -1.5337  0.6740
   73CHL1  H18C 7838   4.041   1.636   7.738 -1.4891 -0.8963  2.3062
   73CHL1   C12 7839   3.846   1.869   7.565  0.7427  0.5549  0.8874
   73CHL1  H12A 7840   3.749   1.831   7.604  0.3944 -0.4387 -0.8541
   73CHL1  H12B 7841   3.838   1.979   7.547 -2.2611  0.4850  1.2371
   73CHL1   C11 7842   3.836   1.810   7.421 -0.4904  0.0248 -0.1787
   73CHL1  H11A 7843   3.799   1.705   7.431  0.9323 -0.5811 -0.8560
   73CHL1  H11B 7844   3.761   1.861   7.358 -2.5396 -2.4969  0.0631
   73CHL1    C9 7845   3.975   1.802   7.351 -0.1779  0.0712 -0.3739
   73CHL1    H9 7846   3.984   1.910   7.326 -0.0424  0.0590 -0.3793
   73CHL1   C10 7847   3.964   1.724   7.213  0.0747 -0.0313  0.6949
   73CHL1   C19 7848   3.919   1.582   7.226  0.1951 -0.0959  0.3232
   73CHL1  H19A 7849   3.809   1.585   7.241  0.2693  0.5744  0.7828
   73CHL1  H19B 7850   3.944   1.526   7.134 -0.7954 -0.6024  0.3468
   73CHL1  H19C 7851   3.957   1.536   7.320 -0.1161  1.1521  1.0843
   73CHL1    C1 7852   3.851   1.784   7.122  0.1229 -0.0101 -0.4717
   73CHL1   H1A 7853   3.751   1.758   7.163  0.9748 -2.3749  0.2638
   73CHL1   H1B 7854   3.862   1.895   7.124  1.1161 -0.0547 -1.8024
   73CHL1    C2 7855   3.864   1.740   6.977 -0.5453  1.1076  0.4467
   73CHL1   H2A 7856   3.786   1.807   6.936 -0.4299  1.6731  1.1196
   73CHL1   H2B 7857   3.831   1.634   6.965  0.4498  0.6276  1.7027
   73CHL1   C20 7858   3.922   1.868   7.909  0.1887  0.7172 -0.1237
   73CHL1   H20 7859   3.929   1.763   7.944  0.9587  0.9222  0.3555
   73CHL1   C21 7860   3.769   1.908   7.879 -0.7341 -0.4004 -0.3161
   73CHL1  H21A 7861   3.727   1.846   7.796 -1.0079  0.5903 -0.9397
   73CHL1  H21B 7862   3.764   2.008   7.831  0.3178 -0.1793  0.0205
   73CHL1  H21C 7863   3.706   1.903   7.970  1.2571  1.3144  1.2460
   73CHL1   C22 7864   3.962   1.957   8.027 -1.0349 -0.8579 -0.8368
   73CHL1  H22A 7865   4.072   1.955   8.039 -1.1654 -0.5603  0.5297
   73CHL1  H22B 7866   3.927   2.062   8.015  0.0360 -0.3316  0.4383
   73CHL1   C23 7867   3.913   1.898   8.165 -0.0272 -0.4168  0.4149
   73CHL1  H23A 7868   3.802   1.897   8.169 -0.1119  2.1000  0.0264
   73CHL1  H23B 7869   3.948   1.794   8.180  1.5962  0.1853  0.9551
   73CHL1   C24 7870   3.966   1.969   8.289 -0.3403 -0.5576 -0.0122
   73CHL1  H24A 7871   4.075   1.988   8.290 -0.6728  1.6504 -1.0213
   73CHL1  H24B 7872   3.920   2.069   8.281 -1.2232 -1.0133 -0.9051
   73CHL1   C25 7873   3.939   1.904   8.425 -0.6289  0.1414  0.2918
   73CHL1   H25 7874   3.830   1.879   8.421 -0.6548  0.3179 -0.1330
   73CHL1   C26 7875   4.016   1.770   8.450  0.3175 -0.0532  0.1098
   73CHL1  H26A 7876   4.125   1.790   8.443  0.5729 -1.5148 -0.6067
   73CHL1  H26B 7877   3.997   1.726   8.550  0.2345 -0.5897 -0.1369
   73CHL1  H26C 7878   3.990   1.702   8.366  0.6929  1.7390 -1.5264
   73CHL1   C27 7879   3.962   2.009   8.539  0.0726  0.0214 -0.2676
   73CHL1  H27A 7880   3.957   1.960   8.638 -2.2052 -0.5248 -0.5930
   73CHL1  H27B 7881   4.054   2.070   8.522 -0.9925  1.7852  0.0486
   73CHL1  H27C 7882   3.881   2.084   8.528  0.4692  0.4488 -0.3200
   74CHL1    C3 7883   3.324   1.033   6.864 -0.3202  0.3337 -0.4263
   74CHL1    H3 7884   3.434   1.044   6.878 -0.3171 -1.2802  1.1077
   74CHL1    O3 7885   3.317   1.010   6.728 -0.6822  0.6204 -0.2006
   74CHL1   H3' 7886   3.222   1.014   6.714 -1.5430 -3.9774  2.2337
   74CHL1    C4 7887   3.247   0.915   6.937  0.2319  0.0423  0.4431
   74CHL1   H4A 7888   3.141   0.915   6.902  0.7439  0.7478 -1.2175
   74CHL1   H4B 7889   3.294   0.817   6.915  0.5678  0.2491  0.2391
   74CHL1    C5 7890   3.238   0.947   7.088 -0.0040 -0.2476  0.3070
   74CHL1    C6 7891   3.286   0.859   7.172  0.0254  0.3452  0.1845
   74CHL1    H6 7892   3.329   0.767   7.130 -2.1793 -1.0074  0.7386
   74CHL1    C7 7893   3.275   0.886   7.320 -0.3444 -0.5246  0.2185
   74CHL1   H7A 7894   3.230   0.802   7.377 -2.1010  0.3060  0.1145
   74CHL1   H7B 7895   3.376   0.889   7.368 -0.1711 -1.4883 -0.0640
   74CHL1    C8 7896   3.184   1.006   7.361  0.3695 -0.0096  0.0295
   74CHL1    H8 7897   3.074   0.988   7.360  0.6084 -1.7566  1.6406
   74CHL1   C14 7898   3.220   1.056   7.509 -0.7026 -0.2500 -0.4083
   74CHL1   H14 7899   3.326   1.090   7.503 -1.6449  2.9899 -0.3751
   74CHL1   C15 7900   3.200   0.958   7.629 -0.2428 -0.0897 -0.4313
   74CHL1  H15A 7901   3.093   0.928   7.636 -1.1571  2.9810  0.4283
   74CHL1  H15B 7902   3.271   0.874   7.620  1.5428  1.2739  0.3566
   74CHL1   C16 7903   3.223   1.052   7.754 -0.4095 -0.4159 -0.6224
   74CHL1  H16A 7904   3.165   1.022   7.843 -0.4210  1.1446 -0.0821
   74CHL1  H16B 7905   3.328   1.035   7.786 -1.0903 -3.3180  0.3704
   74CHL1   C17 7906   3.204   1.202   7.699  0.0632  0.8339 -0.6185
   74CHL1   H17 7907   3.310   1.238   7.694  0.5608 -0.6351 -1.2463
   74CHL1   C13 7908   3.148   1.186   7.556 -0.1861  0.4455 -0.3769
   74CHL1   C18 7909   2.997   1.166   7.562  0.7568 -0.2271  0.1666
   74CHL1  H18A 7910   2.965   1.118   7.467 -1.8604 -2.9240  2.2517
   74CHL1  H18B 7911   2.959   1.099   7.642 -0.6603  0.6288  0.2297
   74CHL1  H18C 7912   2.945   1.264   7.567 -1.8694 -1.4111 -1.6565
   74CHL1   C12 7913   3.194   1.289   7.456 -0.0395  0.3319  0.3203
   74CHL1  H12A 7914   3.158   1.392   7.478  0.3394  0.2541  1.3941
   74CHL1  H12B 7915   3.305   1.301   7.464 -0.3452  3.2490  1.6956
   74CHL1   C11 7916   3.138   1.253   7.312 -1.2555 -0.1410 -0.0450
   74CHL1  H11A 7917   3.027   1.248   7.310 -1.3033  0.7615 -0.0242
   74CHL1  H11B 7918   3.167   1.335   7.243 -0.2553 -1.3995 -1.1784
   74CHL1    C9 7919   3.208   1.122   7.265  0.6624 -0.1931  0.1107
   74CHL1    H9 7920   3.318   1.138   7.265  0.9482 -1.7637 -1.4787
   74CHL1   C10 7921   3.181   1.084   7.119  1.1335 -0.2515  0.7189
   74CHL1   C19 7922   3.020   1.088   7.097 -0.1305  0.3662  0.0684
   74CHL1  H19A 7923   2.971   1.181   7.132  0.9263  1.3290 -0.9459
   74CHL1  H19B 7924   2.988   1.070   6.992  3.0567  1.3289 -1.1698
   74CHL1  H19C 7925   2.974   1.010   7.161  0.3704  0.1761  0.1976
   74CHL1    C1 7926   3.236   1.199   7.033  0.0895 -1.0720 -0.8361
   74CHL1   H1A 7927   3.177   1.293   7.035  0.4439 -0.8600  0.2921
   74CHL1   H1B 7928   3.332   1.227   7.083  0.7211 -0.1206 -2.4913
   74CHL1    C2 7929   3.254   1.166   6.884  0.7443  0.2217 -0.3418
   74CHL1   H2A 7930   3.309   1.247   6.831 -1.4538  0.9993 -1.5717
   74CHL1   H2B 7931   3.156   1.155   6.834  0.8576 -0.8448 -0.3614
   74CHL1   C20 7932   3.129   1.289   7.800  0.3619 -0.2957 -0.2433
   74CHL1   H20 7933   3.034   1.237   7.825  0.2241  1.2831  2.9644
   74CHL1   C21 7934   3.095   1.427   7.741  0.0544 -0.5168 -0.2406
   74CHL1  H21A 7935   3.017   1.418   7.663 -0.3159 -1.0508  0.1828
   74CHL1  H21B 7936   3.182   1.465   7.683 -0.2168 -0.2545 -0.4774
   74CHL1  H21C 7937   3.074   1.499   7.823  2.0243  1.5814 -1.4511
   74CHL1   C22 7938   3.202   1.309   7.931 -0.6659  0.3010 -0.3318
   74CHL1  H22A 7939   3.233   1.209   7.968 -0.2971 -0.6525 -2.9696
   74CHL1  H22B 7940   3.299   1.357   7.905  2.4786 -4.2152  1.7976
   74CHL1   C23 7941   3.128   1.390   8.036  0.7146 -0.4795  0.1640
   74CHL1  H23A 7942   3.129   1.499   8.016 -2.3943 -0.6473 -1.4919
   74CHL1  H23B 7943   3.024   1.356   8.055  0.7849 -0.2145  1.0667
   74CHL1   C24 7944   3.183   1.353   8.178 -0.2396 -0.0757 -1.1447
   74CHL1  H24A 7945   3.187   1.242   8.182  0.1583 -0.0810 -1.5296
   74CHL1  H24B 7946   3.284   1.397   8.193  0.1109  0.4316 -4.2566
   74CHL1   C25 7947   3.101   1.410   8.303 -0.2580 -0.9022 -0.4163
   74CHL1   H25 7948   3.001   1.363   8.301  0.0918 -1.7094 -2.7473
   74CHL1   C26 7949   3.160   1.362   8.438  0.3193 -0.7792 -0.4344
   74CHL1  H26A 7950   3.101   1.389   8.528  0.3748 -0.6239 -0.4442
   74CHL1  H26B 7951   3.178   1.253   8.442  1.3705 -0.6412 -1.0129
   74CHL1  H26C 7952   3.263   1.401   8.451 -0.2739  0.6642  0.2329
   74CHL1   C27 7953   3.073   1.563   8.297 -0.3380 -0.6141 -0.1731
   74CHL1  H27A 7954   3.058   1.599   8.401  0.3670 -0.8566  0.0210
   74CHL1  H27B 7955   3.157   1.624   8.258 -2.1486  2.8540  0.9459
   74CHL1  H27C 7956   2.986   1.590   8.233 -0.5176 -2.3085 -0.6932
   75CHL1    C3 7957   5.703   3.126   6.765 -0.6662  0.0922 -0.1790
   75CHL1    H3 7958   5.809   3.153   6.745 -1.4456  3.4869 -0.4627
   75CHL1    O3 7959   5.636   3.144   6.639 -0.1179  0.4144 -0.2938
   75CHL1   H3' 7960   5.645   3.235   6.611 -0.9048 -0.3005 -3.1959
   75CHL1    C4 7961   5.692   2.981   6.811  0.8318  0.4671  0.5705
   75CHL1   H4A 7962   5.585   2.955   6.823  0.7953  0.0104 -0.6461
   75CHL1   H4B 7963   5.746   2.918   6.737  1.2258  1.4268  0.0281
   75CHL1    C5 7964   5.759   2.960   6.947  0.3095 -0.1748  0.6215
   75CHL1    C6 7965   5.851   2.865   6.971  1.1907  0.4474 -0.3859
   75CHL1    H6 7966   5.878   2.789   6.897  0.9281  1.0386 -1.0975
   75CHL1    C7 7967   5.913   2.838   7.108 -0.4618  0.4108  0.1857
   75CHL1   H7A 7968   5.929   2.729   7.124 -1.2247 -0.1331 -2.3541
   75CHL1   H7B 7969   6.018   2.875   7.105 -0.6323  0.8522 -0.4470
   75CHL1    C8 7970   5.821   2.901   7.214  0.0031  1.2431 -0.2088
   75CHL1    H8 7971   5.723   2.852   7.231  0.2078  1.4552  1.7906
   75CHL1   C14 7972   5.906   2.902   7.347  0.6612  0.8058 -0.1063
   75CHL1   H14 7973   5.992   2.971   7.330  0.5370  1.4382  1.6510
   75CHL1   C15 7974   5.982   2.775   7.399  0.3037  0.5015 -0.2164
   75CHL1  H15A 7975   5.919   2.684   7.401  0.4328  0.4262  0.4148
   75CHL1  H15B 7976   6.063   2.751   7.327  0.3143 -0.0450 -0.0243
   75CHL1   C16 7977   6.036   2.821   7.537 -0.0904  0.4129  0.3739
   75CHL1  H16A 7978   6.022   2.743   7.615 -0.0542  0.5687  0.5372
   75CHL1  H16B 7979   6.142   2.853   7.534 -0.2423  1.0657  1.5812
   75CHL1   C17 7980   5.959   2.959   7.574 -0.4918 -0.3534 -0.3379
   75CHL1   H17 7981   6.017   3.048   7.542 -1.3547  1.0485  1.7288
   75CHL1   C13 7982   5.845   2.967   7.470 -0.1009  0.2742  0.2232
   75CHL1   C18 7983   5.719   2.889   7.508  0.2096 -0.4146  0.4603
   75CHL1  H18A 7984   5.677   2.917   7.607  2.0442  1.3845  0.8016
   75CHL1  H18B 7985   5.632   2.896   7.439  1.2289 -2.0576 -1.0724
   75CHL1  H18C 7986   5.742   2.782   7.524 -3.4095 -1.1926  1.2836
   75CHL1   C12 7987   5.816   3.113   7.431  0.0818  0.2467 -0.0824
   75CHL1  H12A 7988   5.762   3.152   7.519  0.5773  0.2679  0.2199
   75CHL1  H12B 7989   5.904   3.179   7.413 -0.2639 -0.1784 -4.3687
   75CHL1   C11 7990   5.726   3.113   7.308  0.5123  0.9019 -0.0126
   75CHL1  H11A 7991   5.633   3.058   7.333  1.1267  0.0666  0.5073
   75CHL1  H11B 7992   5.701   3.213   7.267  0.8859  0.3942 -1.5754
   75CHL1    C9 7993   5.787   3.046   7.185  0.7504  0.6165 -0.1793
   75CHL1    H9 7994   5.881   3.104   7.173  0.1079  2.3397  2.3671
   75CHL1   C10 7995   5.711   3.065   7.052  0.6753 -0.0080  0.5303
   75CHL1   C19 7996   5.557   3.030   7.079  0.1462 -0.5379  0.5126
   75CHL1  H19A 7997   5.545   2.942   7.145 -1.3204  1.3817  2.9707
   75CHL1  H19B 7998   5.519   3.120   7.131  0.3598  0.7776 -1.4694
   75CHL1  H19C 7999   5.500   3.014   6.985  0.3158  1.0450  0.1188
   75CHL1    C1 8000   5.713   3.210   6.997 -0.0385 -0.2468 -0.0698
   75CHL1   H1A 8001   5.672   3.280   7.073  0.9340  1.1511 -0.8047
   75CHL1   H1B 8002   5.816   3.251   6.995 -0.1946  0.1208 -1.5294
   75CHL1    C2 8003   5.648   3.232   6.860  0.2719  0.6378 -0.9796
   75CHL1   H2A 8004   5.671   3.335   6.825  1.1289  0.4649 -0.9364
   75CHL1   H2B 8005   5.538   3.222   6.872  0.4949 -2.2639 -0.7735
   75CHL1   C20 8006   5.917   2.982   7.721  0.2887 -0.7330 -0.1630
   75CHL1   H20 8007   5.828   3.049   7.726  0.3863 -0.3930 -2.1316
   75CHL1   C21 8008   6.028   3.067   7.789 -0.2305  0.0187  0.1277
   75CHL1  H21A 8009   6.027   3.072   7.900 -1.7855  0.2848  0.1146
   75CHL1  H21B 8010   6.033   3.169   7.743  1.1005 -0.1571 -0.1733
   75CHL1  H21C 8011   6.127   3.031   7.752 -0.1639 -0.8765  1.1612
   75CHL1   C22 8012   5.874   2.853   7.796  0.1738 -0.6201 -0.1237
   75CHL1  H22A 8013   5.799   2.788   7.746 -2.1726  1.3253  0.6974
   75CHL1  H22B 8014   5.966   2.793   7.812  1.9052  1.9326  0.0708
   75CHL1   C23 8015   5.812   2.875   7.941 -0.6139 -0.0470 -0.0608
   75CHL1  H23A 8016   5.814   2.784   8.004  2.9397  1.4851  2.3574
   75CHL1  H23B 8017   5.887   2.948   7.979 -0.7605  0.8019 -1.3296
   75CHL1   C24 8018   5.678   2.944   7.933  0.4685  1.0248 -0.8114
   75CHL1  H24A 8019   5.679   3.041   7.878 -2.9974  1.0572 -1.0789
   75CHL1  H24B 8020   5.600   2.869   7.908 -0.5941  0.9480  2.2672
   75CHL1   C25 8021   5.628   2.999   8.071  0.4124 -0.0934  0.4087
   75CHL1   H25 8022   5.690   3.088   8.094  0.6593 -0.8650  2.9749
   75CHL1   C26 8023   5.478   3.048   8.061  0.6187  0.3915  0.1908
   75CHL1  H26A 8024   5.452   3.079   8.164  0.8118 -1.9113  0.9801
   75CHL1  H26B 8025   5.455   3.131   7.990  0.8299 -0.6485 -1.1353
   75CHL1  H26C 8026   5.415   2.961   8.030 -2.0318  0.5362  4.3818
   75CHL1   C27 8027   5.637   2.892   8.173 -0.9021  0.0313  0.2340
   75CHL1  H27A 8028   5.740   2.852   8.189 -0.3347  1.6329  0.7095
   75CHL1  H27B 8029   5.592   2.923   8.270 -0.9702  3.0339 -0.6842
   75CHL1  H27C 8030   5.577   2.803   8.144  1.4231 -1.3524 -0.6093
   76CHL1    C3 8031   3.857   3.375   7.205 -0.3704 -0.9184 -0.2400
   76CHL1    H3 8032   3.790   3.453   7.246  0.4082  1.1246 -2.6361
   76CHL1    O3 8033   3.852   3.385   7.067  0.5292  0.4847 -0.0942
   76CHL1   H3' 8034   3.881   3.304   7.024 -1.8909  0.2650 -1.4723
   76CHL1    C4 8035   3.999   3.407   7.261  0.1960  0.7189 -1.0994
   76CHL1   H4A 8036   4.065   3.338   7.205  2.3219  1.4249  0.4103
   76CHL1   H4B 8037   4.042   3.504   7.231  1.5208  0.7845  0.8471
   76CHL1    C5 8038   4.011   3.397   7.415  0.0116  0.2364  0.4013
   76CHL1    C6 8039   4.058   3.504   7.476 -0.2081 -0.4557 -0.1318
   76CHL1    H6 8040   4.096   3.594   7.425 -0.5952  0.4648  1.1508
   76CHL1    C7 8041   4.070   3.507   7.627 -0.2549  0.8063 -0.1124
   76CHL1   H7A 8042   4.173   3.530   7.662 -0.0356  2.2105 -1.5189
   76CHL1   H7B 8043   4.002   3.592   7.651 -2.2178 -0.2200 -1.7430
   76CHL1    C8 8044   4.009   3.378   7.697 -0.2113 -0.8499  0.0862
   76CHL1    H8 8045   4.100   3.316   7.709  1.0260  0.7523 -0.4733
   76CHL1   C14 8046   3.949   3.416   7.833 -0.0241 -0.0788 -0.2140
   76CHL1   H14 8047   3.857   3.474   7.810 -0.9800 -0.5030  2.1508
   76CHL1   C15 8048   4.027   3.501   7.931  0.5144 -0.2335  0.1492
   76CHL1  H15A 8049   4.132   3.465   7.923 -0.6058 -3.6784 -0.7740
   76CHL1  H15B 8050   4.016   3.608   7.902 -0.1812 -0.5587 -0.8456
   76CHL1   C16 8051   3.945   3.472   8.058  0.3884  0.1273 -1.1005
   76CHL1  H16A 8052   4.014   3.443   8.141 -0.0491 -0.4187 -0.9154
   76CHL1  H16B 8053   3.889   3.560   8.097  0.6638 -1.0296  2.2808
   76CHL1   C17 8054   3.841   3.357   8.035 -0.3135 -0.1435 -0.2348
   76CHL1   H17 8055   3.746   3.407   8.004  0.6925  1.3068 -1.0834
   76CHL1   C13 8056   3.903   3.287   7.917 -0.0900  0.3039  0.8481
   76CHL1   C18 8057   4.031   3.204   7.962 -0.2255  0.7167 -0.6702
   76CHL1  H18A 8058   4.000   3.130   8.039  0.9179 -0.4539 -1.2946
   76CHL1  H18B 8059   4.067   3.145   7.876 -1.4376 -0.8449 -0.1519
   76CHL1  H18C 8060   4.113   3.266   8.006  0.0232  0.7410 -1.1597
   76CHL1   C12 8061   3.800   3.203   7.830 -0.1108 -0.3937  0.3826
   76CHL1  H12A 8062   3.768   3.116   7.891 -2.1257  1.6839  2.5393
   76CHL1  H12B 8063   3.716   3.276   7.818 -0.5271 -0.5576  2.0518
   76CHL1   C11 8064   3.860   3.178   7.693  0.8745  0.5526 -0.7400
   76CHL1  H11A 8065   3.936   3.099   7.707  0.3310  0.1669  0.0686
   76CHL1  H11B 8066   3.775   3.140   7.632  1.3791 -0.3393 -0.8991
   76CHL1    C9 8067   3.909   3.300   7.618 -0.2149 -0.2729  0.0052
   76CHL1    H9 8068   3.826   3.373   7.605  1.5706  1.9678  0.5753
   76CHL1   C10 8069   3.943   3.273   7.466 -0.2596 -0.0489 -0.4885
   76CHL1   C19 8070   4.052   3.160   7.453 -0.1158 -0.4116 -0.1815
   76CHL1  H19A 8071   4.114   3.171   7.361  0.0073  0.0222 -0.0481
   76CHL1  H19B 8072   4.119   3.164   7.541  0.0459  1.1203 -0.3446
   76CHL1  H19C 8073   3.997   3.064   7.466  0.2678 -0.5914  0.1181
   76CHL1    C1 8074   3.810   3.232   7.399 -0.6656  0.2984 -0.1703
   76CHL1   H1A 8075   3.797   3.125   7.427  0.9919 -0.4308 -1.9745
   76CHL1   H1B 8076   3.732   3.297   7.442  1.1983  0.9962  2.4168
   76CHL1    C2 8077   3.810   3.233   7.247  0.2203 -0.3205  0.0136
   76CHL1   H2A 8078   3.708   3.212   7.209  0.3135 -0.1175 -0.3555
   76CHL1   H2B 8079   3.876   3.152   7.208  1.1765 -0.5611  2.0101
   76CHL1   C20 8080   3.817   3.265   8.167  0.1078 -0.8554  0.4481
   76CHL1   H20 8081   3.914   3.236   8.213  0.6493 -0.4774 -0.4086
   76CHL1   C21 8082   3.742   3.136   8.143 -0.2032  0.3168 -0.4714
   76CHL1  H21A 8083   3.686   3.111   8.236 -1.6359 -1.5415 -1.7492
   76CHL1  H21B 8084   3.806   3.048   8.121  1.6209  0.3331  3.8525
   76CHL1  H21C 8085   3.661   3.157   8.069 -0.1827 -1.3095 -1.0067
   76CHL1   C22 8086   3.758   3.346   8.285  0.1634  0.2146  0.4028
   76CHL1  H22A 8087   3.788   3.453   8.279 -0.4025  0.3170 -0.9449
   76CHL1  H22B 8088   3.647   3.344   8.294  0.3040 -1.5320  2.6269
   76CHL1   C23 8089   3.818   3.304   8.416  1.1293 -0.0368 -0.3574
   76CHL1  H23A 8090   3.813   3.194   8.430 -0.0841 -0.1501 -1.4581
   76CHL1  H23B 8091   3.927   3.322   8.410  0.7115  3.0868 -0.0558
   76CHL1   C24 8092   3.758   3.373   8.541  0.3063 -0.1887  0.7283
   76CHL1  H24A 8093   3.781   3.481   8.536 -0.3602 -0.0595  0.3813
   76CHL1  H24B 8094   3.647   3.375   8.535  0.3834  0.7697 -2.4893
   76CHL1   C25 8095   3.800   3.308   8.675 -0.8668 -0.1834  0.1325
   76CHL1   H25 8096   3.911   3.311   8.674 -0.7844  0.5091  3.3319
   76CHL1   C26 8097   3.756   3.394   8.794  0.6512  0.1210 -0.1886
   76CHL1  H26A 8098   3.646   3.408   8.801  0.9420  1.9066  2.2049
   76CHL1  H26B 8099   3.793   3.355   8.891 -0.0432 -4.3908 -1.5211
   76CHL1  H26C 8100   3.802   3.491   8.765  0.8232  0.1511  0.1876
   76CHL1   C27 8101   3.745   3.171   8.699 -0.3833  0.0555  0.0817
   76CHL1  H27A 8102   3.786   3.091   8.634 -0.6109  1.4465 -1.8681
   76CHL1  H27B 8103   3.761   3.138   8.804  0.1498  2.1691  0.7301
   76CHL1  H27C 8104   3.634   3.171   8.698 -0.4005  0.9362  0.4304
   77CHL1    C3 8105   4.762   1.766   6.832 -0.5573  0.0495  0.2415
   77CHL1    H3 8106   4.752   1.876   6.821  2.2077  0.3452  0.1234
   77CHL1    O3 8107   4.778   1.710   6.705 -0.1284 -0.4456  0.3470
   77CHL1   H3' 8108   4.870   1.685   6.695 -0.2310 -1.3213  1.3442
   77CHL1    C4 8109   4.886   1.732   6.923  0.4088 -0.4358 -0.0936
   77CHL1   H4A 8110   4.899   1.622   6.919 -3.4891 -1.0333 -0.7679
   77CHL1   H4B 8111   4.967   1.790   6.875 -0.6254  0.7312 -0.4788
   77CHL1    C5 8112   4.866   1.768   7.071 -0.2442 -0.6898 -0.1176
   77CHL1    C6 8113   4.950   1.847   7.136 -0.1524 -0.0885  0.0099
   77CHL1    H6 8114   5.040   1.883   7.085 -0.1894 -0.3368 -0.2415
   77CHL1    C7 8115   4.933   1.892   7.278  0.6741 -0.2882  0.1892
   77CHL1   H7A 8116   5.029   1.908   7.332 -0.7784  3.4519  1.9570
   77CHL1   H7B 8117   4.885   1.990   7.259 -1.8495 -1.3983  0.5253
   77CHL1    C8 8118   4.841   1.801   7.360  0.2349 -0.5495 -0.7060
   77CHL1    H8 8119   4.897   1.705   7.364 -0.5510 -1.1152 -2.4133
   77CHL1   C14 8120   4.802   1.865   7.490 -0.0961  0.1399 -0.0896
   77CHL1   H14 8121   4.752   1.960   7.462  2.3377  2.5820  3.0075
   77CHL1   C15 8122   4.924   1.902   7.582  1.1774 -0.3736 -0.3440
   77CHL1  H15A 8123   4.994   1.818   7.565 -0.2161 -1.3676 -1.4559
   77CHL1  H15B 8124   4.975   1.997   7.554 -0.0054  0.4227  0.0850
   77CHL1   C16 8125   4.866   1.899   7.725 -0.2166  0.3515  0.0219
   77CHL1  H16A 8126   4.914   1.813   7.776 -1.8224 -0.7814 -0.3206
   77CHL1  H16B 8127   4.880   1.996   7.777  1.0386  0.2335 -0.0709
   77CHL1   C17 8128   4.716   1.868   7.696  0.5635  0.5834 -0.1839
   77CHL1   H17 8129   4.673   1.966   7.665  0.8940  0.4639 -1.0561
   77CHL1   C13 8130   4.706   1.785   7.568  0.0058  0.4287  0.4423
   77CHL1   C18 8131   4.746   1.645   7.608  1.0003 -0.0149  0.2563
   77CHL1  H18A 8132   4.676   1.579   7.663  1.5497  0.6184  1.7699
   77CHL1  H18B 8133   4.765   1.580   7.520 -1.2383  0.2634 -0.4745
   77CHL1  H18C 8134   4.841   1.653   7.667 -0.5149 -1.3965  3.0938
   77CHL1   C12 8135   4.578   1.775   7.488  1.1119  0.0831  0.0500
   77CHL1  H12A 8136   4.503   1.713   7.542 -0.1361  2.0407  0.6886
   77CHL1  H12B 8137   4.535   1.874   7.458  1.8232  0.6278  0.7822
   77CHL1   C11 8138   4.601   1.710   7.357 -0.4992  0.7043 -0.0091
   77CHL1  H11A 8139   4.626   1.604   7.380 -1.5407  0.0045 -1.8278
   77CHL1  H11B 8140   4.512   1.716   7.290 -3.1316 -2.2769  2.8800
   77CHL1    C9 8141   4.717   1.778   7.276  0.1109 -0.1840  0.5366
   77CHL1    H9 8142   4.687   1.879   7.243  0.2322 -0.8790 -1.8728
   77CHL1   C10 8143   4.737   1.714   7.134  0.1250  0.1223 -0.2521
   77CHL1   C19 8144   4.753   1.561   7.146  0.0914 -0.6101  0.1944
   77CHL1  H19A 8145   4.665   1.511   7.193  0.0892 -1.5539 -0.7688
   77CHL1  H19B 8146   4.763   1.514   7.046 -0.2293  0.1129 -0.1794
   77CHL1  H19C 8147   4.847   1.542   7.201 -0.1297 -1.4567  0.2998
   77CHL1    C1 8148   4.618   1.740   7.040  0.7400  0.2919  0.7319
   77CHL1   H1A 8149   4.525   1.700   7.084 -0.0727  0.6423 -0.6261
   77CHL1   H1B 8150   4.614   1.850   7.050  0.4897  0.0838  3.9410
   77CHL1    C2 8151   4.634   1.701   6.894 -0.2206 -0.8079  1.2937
   77CHL1   H2A 8152   4.551   1.741   6.831  3.0941  0.1250 -2.9409
   77CHL1   H2B 8153   4.628   1.591   6.881  1.5745 -0.7472 -0.4751
   77CHL1   C20 8154   4.642   1.814   7.827  0.3518  0.1204  0.0273
   77CHL1   H20 8155   4.673   1.709   7.844  0.9696  0.2438 -0.2840
   77CHL1   C21 8156   4.492   1.804   7.805 -0.2698 -0.0945 -0.4912
   77CHL1  H21A 8157   4.449   1.903   7.777  1.0893  0.4790 -0.6474
   77CHL1  H21B 8158   4.428   1.775   7.891 -2.2204 -1.2722 -2.2524
   77CHL1  H21C 8159   4.465   1.743   7.716  0.5425  0.4337 -1.1163
   77CHL1   C22 8160   4.671   1.895   7.956 -0.0133  0.0496  0.5853
   77CHL1  H22A 8161   4.778   1.924   7.969 -0.0558  1.2743 -1.3321
   77CHL1  H22B 8162   4.613   1.988   7.939 -1.0217 -0.6278  0.2312
   77CHL1   C23 8163   4.613   1.836   8.090  0.0507  0.5375  0.6126
   77CHL1  H23A 8164   4.505   1.815   8.078  0.2837 -0.1056 -0.4343
   77CHL1  H23B 8165   4.653   1.734   8.105  1.6009  0.5681 -2.5572
   77CHL1   C24 8166   4.642   1.931   8.204 -0.1036  0.5192 -0.2771
   77CHL1  H24A 8167   4.752   1.942   8.200 -0.0117 -0.5289 -0.9382
   77CHL1  H24B 8168   4.603   2.034   8.187 -0.9927  0.3955  0.8483
   77CHL1   C25 8169   4.592   1.884   8.344 -0.1350  0.4085 -0.1306
   77CHL1   H25 8170   4.481   1.887   8.345 -0.1732  0.6462 -2.0493
   77CHL1   C26 8171   4.629   1.732   8.386  0.7232 -0.6720  0.3327
   77CHL1  H26A 8172   4.582   1.664   8.312 -1.2877  1.9032 -0.9335
   77CHL1  H26B 8173   4.740   1.735   8.378  0.6348 -2.0792 -2.3757
   77CHL1  H26C 8174   4.606   1.719   8.494 -1.8477  0.1420 -0.0515
   77CHL1   C27 8175   4.645   1.980   8.450  0.8518 -0.0656 -0.4146
   77CHL1  H27A 8176   4.610   1.954   8.552 -1.1232  1.7188 -0.5658
   77CHL1  H27B 8177   4.756   1.980   8.456  0.8665  0.3982 -0.5962
   77CHL1  H27C 8178   4.612   2.083   8.425  0.8184 -0.0899 -0.4692
   78CHL1    C3 8179   1.417   5.058   6.522 -0.7235  0.0888  0.1779
   78CHL1    H3 8180   1.442   5.164   6.499  0.1295 -0.5015 -1.9389
   78CHL1    O3 8181   1.445   4.987   6.406 -0.0457 -0.2346  1.2492
   78CHL1   H3' 8182   1.408   4.899   6.405  3.2627 -1.7990 -0.7460
   78CHL1    C4 8183   1.524   5.019   6.627  0.0242  0.0808  0.2631
   78CHL1   H4A 8184   1.527   4.911   6.652 -1.0958  0.0431  0.3107
   78CHL1   H4B 8185   1.621   5.051   6.585  0.2075 -1.3672 -0.5002
   78CHL1    C5 8186   1.504   5.089   6.759  0.0259 -0.2311 -0.1784
   78CHL1    C6 8187   1.598   5.174   6.803  1.0537 -0.1398  0.0794
   78CHL1    H6 8188   1.690   5.191   6.745  0.4879 -2.3863 -1.6008
   78CHL1    C7 8189   1.581   5.249   6.934 -0.3425  0.3048  0.1180
   78CHL1   H7A 8190   1.681   5.254   6.982 -0.5788  1.0418  0.5469
   78CHL1   H7B 8191   1.558   5.356   6.914  0.8061  0.4178 -0.6815
   78CHL1    C8 8192   1.482   5.180   7.026 -0.0848  0.5323  0.2976
   78CHL1    H8 8193   1.517   5.079   7.057  0.4403  0.2931 -1.0013
   78CHL1   C14 8194   1.464   5.260   7.154  0.4902  0.2574  0.7469
   78CHL1   H14 8195   1.434   5.358   7.112  0.7685 -0.5191 -1.3644
   78CHL1   C15 8196   1.582   5.277   7.244 -0.8356  0.5236 -0.0209
   78CHL1  H15A 8197   1.641   5.185   7.269  1.4332  2.2288  1.3189
   78CHL1  H15B 8198   1.643   5.356   7.195 -2.0697  0.7558 -1.2208
   78CHL1   C16 8199   1.515   5.314   7.373  0.3488  0.1799  0.1099
   78CHL1  H16A 8200   1.556   5.278   7.470 -0.6907  0.3764  0.6327
   78CHL1  H16B 8201   1.532   5.424   7.374  2.2907 -0.0834 -0.2336
   78CHL1   C17 8202   1.355   5.295   7.362  0.0810 -0.3293 -0.1324
   78CHL1   H17 8203   1.310   5.392   7.332 -1.9152 -1.6210 -1.6378
   78CHL1   C13 8204   1.340   5.207   7.238  0.0170  0.0343 -0.0182
   78CHL1   C18 8205   1.366   5.055   7.284 -0.2855 -0.3688  0.0433
   78CHL1  H18A 8206   1.441   5.039   7.364  0.9230  1.2756 -0.7004
   78CHL1  H18B 8207   1.267   5.017   7.316 -0.7933 -0.1165 -1.1776
   78CHL1  H18C 8208   1.408   4.996   7.200  1.4736 -4.8801  3.6922
   78CHL1   C12 8209   1.213   5.224   7.155 -0.6862  0.5489  0.0832
   78CHL1  H12A 8210   1.121   5.196   7.211 -1.8957  2.7387 -0.6766
   78CHL1  H12B 8211   1.193   5.327   7.118 -0.5173  0.3851 -0.4878
   78CHL1   C11 8212   1.220   5.136   7.028 -0.3236 -0.4206 -0.5841
   78CHL1  H11A 8213   1.222   5.031   7.062 -0.8258 -0.2453  0.0102
   78CHL1  H11B 8214   1.135   5.153   6.958  0.1626  0.1241 -1.0562
   78CHL1    C9 8215   1.349   5.161   6.950 -0.2022  0.6008  0.2225
   78CHL1    H9 8216   1.336   5.258   6.896 -0.5217 -0.9233 -2.6220
   78CHL1   C10 8217   1.366   5.067   6.821  0.0797 -0.0814  0.6464
   78CHL1   C19 8218   1.348   4.914   6.854 -0.3247  0.1513  0.0341
   78CHL1  H19A 8219   1.369   4.847   6.768 -2.4275 -0.4003 -0.0950
   78CHL1  H19B 8220   1.410   4.888   6.943  0.5988 -0.1298 -0.6739
   78CHL1  H19C 8221   1.240   4.895   6.869 -0.4745 -1.3125 -2.3352
   78CHL1    C1 8222   1.257   5.098   6.720 -0.2572  0.1240 -0.2594
   78CHL1   H1A 8223   1.159   5.060   6.758  0.8072  0.0978  2.6924
   78CHL1   H1B 8224   1.264   5.207   6.700  1.8917 -0.1568 -1.3055
   78CHL1    C2 8225   1.277   5.035   6.576  0.2990  0.5296 -0.4689
   78CHL1   H2A 8226   1.200   5.077   6.508 -0.4034 -0.6313 -0.4024
   78CHL1   H2B 8227   1.267   4.925   6.586 -2.6113  0.5521 -1.9949
   78CHL1   C20 8228   1.291   5.255   7.496 -0.0589  0.2228  0.2940
   78CHL1   H20 8229   1.319   5.151   7.524  0.9005  0.6196  0.8624
   78CHL1   C21 8230   1.135   5.260   7.481  0.3952 -0.6509 -0.7901
   78CHL1  H21A 8231   1.110   5.356   7.430  0.8172  0.5894  1.2522
   78CHL1  H21B 8232   1.092   5.272   7.583  0.4952  0.1663 -0.8406
   78CHL1  H21C 8233   1.088   5.176   7.424 -0.1841 -0.4650 -0.5935
   78CHL1   C22 8234   1.325   5.356   7.612  0.5673  0.1463  0.8552
   78CHL1  H22A 8235   1.423   5.404   7.589  0.3785 -0.7064 -2.2018
   78CHL1  H22B 8236   1.257   5.444   7.609  2.8672  2.0076 -0.6413
   78CHL1   C23 8237   1.327   5.300   7.751 -0.0691  0.9655 -0.9572
   78CHL1  H23A 8238   1.223   5.265   7.767 -0.8183  3.3538 -0.2308
   78CHL1  H23B 8239   1.392   5.211   7.762  0.9228  1.9200  1.7667
   78CHL1   C24 8240   1.358   5.409   7.856 -0.3091 -0.4404  0.0810
   78CHL1  H24A 8241   1.427   5.481   7.806 -2.1428  0.4867 -1.2059
   78CHL1  H24B 8242   1.267   5.471   7.865 -0.7291 -1.1818  1.2082
   78CHL1   C25 8243   1.411   5.367   7.999  0.0127  0.1654 -0.4371
   78CHL1   H25 8244   1.500   5.306   7.974 -1.0286 -1.5699 -0.0598
   78CHL1   C26 8245   1.437   5.492   8.080  0.3344 -0.2463  0.4989
   78CHL1  H26A 8246   1.339   5.539   8.104  0.3119  1.1707 -1.9564
   78CHL1  H26B 8247   1.490   5.472   8.176 -0.0807  1.4347  1.1117
   78CHL1  H26C 8248   1.491   5.567   8.018 -2.0642  1.9019  0.8392
   78CHL1   C27 8249   1.326   5.273   8.075  0.2903  0.4101 -0.2475
   78CHL1  H27A 8250   1.230   5.328   8.087  0.2615 -0.1638  3.5357
   78CHL1  H27B 8251   1.306   5.184   8.012  3.2550 -0.0218 -0.7529
   78CHL1  H27C 8252   1.360   5.253   8.179 -3.5625  4.7578  2.2115
   79CHL1    C3 8253   4.599   4.677   6.977  0.2444  0.6940  0.8713
   79CHL1    H3 8254   4.491   4.672   7.000 -0.7190  1.1918 -2.8278
   79CHL1    O3 8255   4.593   4.639   6.835 -0.6769  0.7677 -0.5541
   79CHL1   H3' 8256   4.683   4.627   6.805 -0.1556 -3.2336  1.7444
   79CHL1    C4 8257   4.643   4.822   6.998 -0.1591 -0.1313 -0.2952
   79CHL1   H4A 8258   4.750   4.829   6.969  0.5612  0.0552  2.1204
   79CHL1   H4B 8259   4.575   4.891   6.945  1.8974  3.6581  1.6053
   79CHL1    C5 8260   4.651   4.861   7.147  1.1490  0.4004  0.9126
   79CHL1    C6 8261   4.595   4.976   7.195  0.1371  0.4011  0.3340
   79CHL1    H6 8262   4.543   5.040   7.123 -1.5916 -2.3646 -1.0654
   79CHL1    C7 8263   4.603   5.023   7.340  0.0742 -0.5767 -0.4220
   79CHL1   H7A 8264   4.631   5.130   7.349 -1.5159 -0.2504  1.2533
   79CHL1   H7B 8265   4.505   5.006   7.391 -1.0948 -2.6369 -3.0946
   79CHL1    C8 8266   4.711   4.943   7.421 -0.1581  0.0364 -0.0521
   79CHL1    H8 8267   4.809   4.988   7.394 -1.1680  0.9025 -2.6148
   79CHL1   C14 8268   4.683   4.961   7.569  0.9364 -0.2364  0.7262
   79CHL1   H14 8269   4.589   4.906   7.593  0.3155  0.6185  0.3300
   79CHL1   C15 8270   4.665   5.106   7.623 -0.2522  0.1911 -0.5677
   79CHL1  H15A 8271   4.748   5.173   7.593 -0.0202 -0.4520 -1.3998
   79CHL1  H15B 8272   4.572   5.146   7.576 -1.3739 -2.0771 -0.4345
   79CHL1   C16 8273   4.657   5.081   7.775 -0.1714  0.4320 -0.0945
   79CHL1  H16A 8274   4.713   5.166   7.820 -0.3068 -1.2093  3.5412
   79CHL1  H16B 8275   4.554   5.092   7.814 -0.4949  2.7111 -1.3729
   79CHL1   C17 8276   4.706   4.937   7.806 -0.5753 -0.0798  0.0817
   79CHL1   H17 8277   4.614   4.875   7.811 -1.3911  0.9988 -0.8672
   79CHL1   C13 8278   4.775   4.896   7.667  0.1821  0.5768 -0.1191
   79CHL1   C18 8279   4.909   4.957   7.666  0.0843  0.3610  0.2473
   79CHL1  H18A 8280   4.920   5.065   7.688  0.4217  0.4150 -0.1762
   79CHL1  H18B 8281   4.975   4.907   7.740  0.3457  1.7347  0.9742
   79CHL1  H18C 8282   4.958   4.937   7.568 -1.0983  2.3969 -0.8312
   79CHL1   C12 8283   4.780   4.745   7.636 -0.0300 -0.8790 -0.8353
   79CHL1  H12A 8284   4.858   4.694   7.696 -0.8499  0.8652  1.8794
   79CHL1  H12B 8285   4.687   4.697   7.671 -0.4232 -0.7246 -1.6342
   79CHL1   C11 8286   4.812   4.720   7.485  0.0601  0.1618  1.1436
   79CHL1  H11A 8287   4.911   4.769   7.473 -0.6935  1.5706  0.3637
   79CHL1  H11B 8288   4.803   4.611   7.467 -0.2725  0.4021 -0.3436
   79CHL1    C9 8289   4.709   4.796   7.393  0.7728  0.3203  0.1955
   79CHL1    H9 8290   4.608   4.756   7.419  1.7531 -1.8454  0.8293
   79CHL1   C10 8291   4.722   4.760   7.241 -0.5178  0.7399 -0.1099
   79CHL1   C19 8292   4.879   4.764   7.204  0.7198 -0.2139 -0.0489
   79CHL1  H19A 8293   4.919   4.843   7.270 -1.2261  0.5627  0.2771
   79CHL1  H19B 8294   4.917   4.664   7.235  1.3418 -0.1520 -0.6041
   79CHL1  H19C 8295   4.901   4.783   7.097  0.3409 -2.4992 -0.6029
   79CHL1    C1 8296   4.660   4.617   7.219 -1.1021 -0.5066 -0.0541
   79CHL1   H1A 8297   4.711   4.546   7.289  1.2233  0.0303 -1.0959
   79CHL1   H1B 8298   4.553   4.620   7.248 -1.1850 -0.7765 -0.3154
   79CHL1    C2 8299   4.666   4.574   7.068 -0.4798 -0.0520  1.1341
   79CHL1   H2A 8300   4.608   4.480   7.053 -1.9052  0.6544  1.9983
   79CHL1   H2B 8301   4.764   4.564   7.018 -0.9263  0.9380  0.0018
   79CHL1   C20 8302   4.790   4.909   7.934  0.4690 -0.2345 -0.1145
   79CHL1   H20 8303   4.897   4.934   7.918  0.3001 -0.0539 -1.0663
   79CHL1   C21 8304   4.782   4.765   7.976 -0.0756  0.1648 -0.4316
   79CHL1  H21A 8305   4.675   4.736   7.990  0.1940  0.3513  2.5295
   79CHL1  H21B 8306   4.843   4.757   8.068 -1.1510 -2.2026  0.1428
   79CHL1  H21C 8307   4.841   4.707   7.902  1.3123  0.7501  0.1953
   79CHL1   C22 8308   4.731   5.001   8.047 -1.0252 -0.5724  0.0050
   79CHL1  H22A 8309   4.732   5.108   8.017  1.4477 -0.2161  1.1054
   79CHL1  H22B 8310   4.627   4.966   8.063 -1.3125  0.2706 -0.0035
   79CHL1   C23 8311   4.809   4.984   8.184 -0.1271 -0.3162  0.9368
   79CHL1  H23A 8312   4.807   4.886   8.236 -0.7662  0.5425  2.6264
   79CHL1  H23B 8313   4.913   5.013   8.161 -0.3654  1.0381  1.4636
   79CHL1   C24 8314   4.759   5.093   8.285  0.7678 -0.1427  0.4105
   79CHL1  H24A 8315   4.792   5.194   8.252 -1.0006 -0.2283 -1.8645
   79CHL1  H24B 8316   4.650   5.086   8.300  0.4920 -0.0612 -1.3448
   79CHL1   C25 8317   4.818   5.067   8.422  0.3295 -0.0814  0.2160
   79CHL1   H25 8318   4.928   5.057   8.412  0.4614 -1.0041  2.0362
   79CHL1   C26 8319   4.790   5.198   8.508 -0.3394 -0.3787 -0.6186
   79CHL1  H26A 8320   4.808   5.185   8.617 -0.9455 -2.1099 -0.6998
   79CHL1  H26B 8321   4.846   5.288   8.473  0.4529 -0.0839  1.2743
   79CHL1  H26C 8322   4.681   5.213   8.495 -0.0120  1.1899 -1.9330
   79CHL1   C27 8323   4.766   4.939   8.501 -0.1455 -0.4957  0.3533
   79CHL1  H27A 8324   4.661   4.912   8.479 -0.3022  1.4246 -1.6143
   79CHL1  H27B 8325   4.828   4.851   8.474 -1.2013 -1.2912  0.4882
   79CHL1  H27C 8326   4.776   4.950   8.611  1.0867  2.0209  0.0806
   80CHL1    C3 8327   1.838   2.454   6.802  0.1815  0.0333  0.4723
   80CHL1    H3 8328   1.887   2.553   6.809 -1.8191  1.0291  1.2716
   80CHL1    O3 8329   1.858   2.404   6.669  0.5088 -0.3277  0.2532
   80CHL1   H3' 8330   1.894   2.315   6.678  1.1262  0.0309  1.6998
   80CHL1    C4 8331   1.902   2.355   6.906  0.5139  0.4962 -0.2009
   80CHL1   H4A 8332   1.852   2.257   6.897  0.2345  0.6132  0.0693
   80CHL1   H4B 8333   2.009   2.356   6.878  0.3945  1.2469 -0.6564
   80CHL1    C5 8334   1.879   2.411   7.042 -0.7238 -0.1358  0.3105
   80CHL1    C6 8335   1.988   2.431   7.122 -0.5836 -0.4351 -0.2241
   80CHL1    H6 8336   2.090   2.413   7.085  0.5663  1.3076  1.8693
   80CHL1    C7 8337   1.970   2.487   7.265 -0.8901 -0.2897 -0.6196
   80CHL1   H7A 8338   2.045   2.426   7.320 -0.6841  0.1289 -0.4342
   80CHL1   H7B 8339   1.991   2.596   7.269  0.1599 -0.4488 -1.4320
   80CHL1    C8 8340   1.826   2.478   7.313 -0.3018 -0.1476  0.1826
   80CHL1    H8 8341   1.809   2.369   7.318 -0.3976 -0.1711 -0.5791
   80CHL1   C14 8342   1.816   2.549   7.443 -0.3659 -0.0662 -0.5268
   80CHL1   H14 8343   1.836   2.656   7.422 -1.3974 -0.1065 -1.7877
   80CHL1   C15 8344   1.907   2.491   7.558  0.1127 -0.5459  1.0003
   80CHL1  H15A 8345   1.925   2.382   7.551  0.3313 -0.4987  0.7912
   80CHL1  H15B 8346   2.008   2.538   7.557  0.0613 -0.3918 -0.6996
   80CHL1   C16 8347   1.824   2.529   7.679  0.3322 -0.1860  0.6216
   80CHL1  H16A 8348   1.793   2.433   7.727 -3.1937 -0.2693 -1.4118
   80CHL1  H16B 8349   1.877   2.588   7.756 -1.5669  0.2870  1.6340
   80CHL1   C17 8350   1.690   2.594   7.641  0.0289  0.8389 -0.5817
   80CHL1   H17 8351   1.717   2.701   7.643  1.5440  0.5010  2.2661
   80CHL1   C13 8352   1.673   2.543   7.498  0.4595 -0.0772  0.0514
   80CHL1   C18 8353   1.612   2.398   7.506 -0.0584 -0.1756 -0.1153
   80CHL1  H18A 8354   1.675   2.342   7.579 -0.7002 -1.7924 -0.7614
   80CHL1  H18B 8355   1.509   2.416   7.543  0.0588 -0.5319  0.4002
   80CHL1  H18C 8356   1.615   2.342   7.410 -0.5121  0.3476 -0.4390
   80CHL1   C12 8357   1.591   2.634   7.404 -0.1787  0.1851 -0.2063
   80CHL1  H12A 8358   1.484   2.640   7.435  0.0037 -1.2157  0.7835
   80CHL1  H12B 8359   1.634   2.736   7.411 -0.9048  0.5481 -0.8590
   80CHL1   C11 8360   1.589   2.579   7.260  0.3598  0.2506  0.3755
   80CHL1  H11A 8361   1.519   2.492   7.263 -3.2872  2.8587 -1.5079
   80CHL1  H11B 8362   1.548   2.652   7.187  0.0085 -0.2890  0.0266
   80CHL1    C9 8363   1.731   2.532   7.207  1.3251 -0.3292  0.3248
   80CHL1    H9 8364   1.767   2.634   7.179  0.0035  0.3728  1.0738
   80CHL1   C10 8365   1.730   2.445   7.081 -0.2980 -0.0262  0.1434
   80CHL1   C19 8366   1.660   2.317   7.105  0.1277 -0.8821  0.1359
   80CHL1  H19A 8367   1.698   2.260   7.193  1.2411 -0.1876  0.1325
   80CHL1  H19B 8368   1.551   2.327   7.124  0.4754  0.8209  1.6260
   80CHL1  H19C 8369   1.671   2.252   7.016 -1.1763 -0.7846 -0.1070
   80CHL1    C1 8370   1.664   2.530   6.970 -0.3370  0.4404  0.0275
   80CHL1   H1A 8371   1.553   2.534   6.981 -0.4398 -0.9431 -0.3185
   80CHL1   H1B 8372   1.698   2.635   6.968  1.3133 -0.0558 -2.4397
   80CHL1    C2 8373   1.688   2.473   6.830 -0.2181  0.0956  0.3749
   80CHL1   H2A 8374   1.635   2.540   6.759 -2.1510 -0.6736  1.0397
   80CHL1   H2B 8375   1.638   2.374   6.821 -1.6566  0.9028 -0.7854
   80CHL1   C20 8376   1.586   2.565   7.755  0.9343 -0.0369  0.4588
   80CHL1   H20 8377   1.566   2.456   7.748 -0.2022  0.0843  1.4923
   80CHL1   C21 8378   1.468   2.646   7.708  0.7163 -0.1308 -0.0129
   80CHL1  H21A 8379   1.423   2.601   7.617 -1.7158 -1.3797  1.6979
   80CHL1  H21B 8380   1.483   2.755   7.690  0.7820 -0.0472  0.5468
   80CHL1  H21C 8381   1.383   2.654   7.779 -0.9591  0.8928 -2.0127
   80CHL1   C22 8382   1.635   2.590   7.902 -0.1062 -0.5556  0.4763
   80CHL1  H22A 8383   1.546   2.576   7.967  0.3449 -0.4455  1.1197
   80CHL1  H22B 8384   1.722   2.527   7.928  0.7778  0.6703  0.5777
   80CHL1   C23 8385   1.686   2.736   7.925  0.4152 -0.4646  0.0419
   80CHL1  H23A 8386   1.769   2.751   7.853 -1.5363 -1.6572 -2.6846
   80CHL1  H23B 8387   1.605   2.805   7.892 -0.0985 -1.7080 -1.4138
   80CHL1   C24 8388   1.722   2.766   8.066  0.0400 -0.0579 -0.1613
   80CHL1  H24A 8389   1.636   2.752   8.135 -0.2402 -1.6486 -0.7810
   80CHL1  H24B 8390   1.790   2.685   8.100  1.2123  0.1009 -2.0128
   80CHL1   C25 8391   1.792   2.899   8.089  0.4181 -0.6031 -0.3218
   80CHL1   H25 8392   1.723   2.979   8.056  0.4219 -0.6002 -0.3225
   80CHL1   C26 8393   1.817   2.911   8.243  0.3002 -0.1426 -0.2854
   80CHL1  H26A 8394   1.721   2.891   8.295  1.1950  1.3405  2.0635
   80CHL1  H26B 8395   1.888   2.837   8.286 -1.4257 -0.3421  2.4261
   80CHL1  H26C 8396   1.862   3.008   8.270 -0.9790 -0.3134  2.8947
   80CHL1   C27 8397   1.922   2.920   8.016 -0.4019 -0.4506 -0.3659
   80CHL1  H27A 8398   1.935   3.028   8.036 -2.2252 -0.4259  1.0115
   80CHL1  H27B 8399   2.005   2.856   8.053  1.2290  1.0495 -1.3184
   80CHL1  H27C 8400   1.918   2.904   7.907  0.2396 -0.9752 -0.3175
   81CHL1    C3 8401   1.650   0.630   6.676 -0.2337 -0.0580  0.6973
   81CHL1    H3 8402   1.640   0.539   6.740  1.1505 -1.0447 -0.4049
   81CHL1    O3 8403   1.670   0.605   6.530 -0.7379  0.0203 -0.9981
   81CHL1   H3' 8404   1.670   0.697   6.501  0.4389  0.5154  0.4422
   81CHL1    C4 8405   1.515   0.715   6.692 -0.2885  0.0325  0.3935
   81CHL1   H4A 8406   1.529   0.800   6.622  0.3275 -0.2845  0.1121
   81CHL1   H4B 8407   1.436   0.648   6.652  0.9922  0.4993 -3.2970
   81CHL1    C5 8408   1.494   0.763   6.834  0.4180 -0.0509  0.1964
   81CHL1    C6 8409   1.368   0.750   6.891 -0.2465 -0.4504  0.0928
   81CHL1    H6 8410   1.289   0.706   6.829  2.3679 -1.5237 -2.7416
   81CHL1    C7 8411   1.341   0.794   7.031  1.2182  0.1564  0.0711
   81CHL1   H7A 8412   1.238   0.835   7.040  1.5589  1.2772 -0.9731
   81CHL1   H7B 8413   1.332   0.702   7.093 -2.4181 -0.0761 -0.5875
   81CHL1    C8 8414   1.446   0.885   7.095 -0.5010  0.7726  0.0503
   81CHL1    H8 8415   1.431   0.990   7.060  0.4907  0.6673 -0.7351
   81CHL1   C14 8416   1.440   0.863   7.243 -1.1178  0.1270  0.1342
   81CHL1   H14 8417   1.466   0.755   7.250 -3.5436 -0.5817 -0.8054
   81CHL1   C15 8418   1.309   0.876   7.319  1.1447 -0.6199  0.3100
   81CHL1  H15A 8419   1.262   0.972   7.290  1.2438 -0.2119  1.4447
   81CHL1  H15B 8420   1.248   0.787   7.295  2.0240 -1.6036  1.5768
   81CHL1   C16 8421   1.353   0.880   7.461 -0.2404 -0.3082  0.3841
   81CHL1  H16A 8422   1.286   0.960   7.497 -1.4052 -1.6836  1.3734
   81CHL1  H16B 8423   1.340   0.784   7.516 -0.2956  0.5155  1.8587
   81CHL1   C17 8424   1.505   0.916   7.463  0.2885  1.1262 -0.1671
   81CHL1   H17 8425   1.546   0.814   7.479 -1.0775  0.7506  1.0898
   81CHL1   C13 8426   1.544   0.948   7.315  0.0754  0.8472  0.1517
   81CHL1   C18 8427   1.525   1.104   7.286  0.4702 -0.3407  0.5946
   81CHL1  H18A 8428   1.540   1.133   7.179 -1.3623  0.0065  0.3914
   81CHL1  H18B 8429   1.424   1.139   7.317  0.7496  2.1306 -0.9984
   81CHL1  H18C 8430   1.604   1.147   7.352  1.7792 -0.2987 -0.9201
   81CHL1   C12 8431   1.692   0.909   7.285 -0.1771  0.6105 -0.1336
   81CHL1  H12A 8432   1.755   0.975   7.348  0.6753  1.4031 -1.7717
   81CHL1  H12B 8433   1.701   0.801   7.310 -2.5642  0.5992  0.9847
   81CHL1   C11 8434   1.706   0.913   7.135 -0.1520  0.3332  0.0507
   81CHL1  H11A 8435   1.703   1.019   7.101  0.6706  0.9262  1.7268
   81CHL1  H11B 8436   1.808   0.870   7.125  0.1135  0.6962  1.0375
   81CHL1    C9 8437   1.586   0.839   7.056  0.1593  0.6344  0.0152
   81CHL1    H9 8438   1.601   0.737   7.097  1.3842  0.7074 -0.2027
   81CHL1   C10 8439   1.609   0.835   6.904  0.2633  1.1736 -0.0377
   81CHL1   C19 8440   1.624   0.976   6.847 -0.4446 -0.3604 -0.0251
   81CHL1  H19A 8441   1.710   1.033   6.889 -2.4417  1.3549  2.0102
   81CHL1  H19B 8442   1.636   0.964   6.737 -1.6063 -2.0653  0.0038
   81CHL1  H19C 8443   1.531   1.034   6.863  0.7417  1.4699  0.6252
   81CHL1    C1 8444   1.739   0.761   6.877  0.7209  0.1835 -0.8847
   81CHL1   H1A 8445   1.827   0.811   6.924  0.5590  0.2366 -0.6305
   81CHL1   H1B 8446   1.731   0.669   6.939  0.1568  0.5008 -0.4789
   81CHL1    C2 8447   1.761   0.716   6.731  0.4813 -0.4002 -0.6081
   81CHL1   H2A 8448   1.861   0.669   6.726  1.5347  1.4542  1.3460
   81CHL1   H2B 8449   1.769   0.807   6.667  2.5756 -0.1474 -0.0615
   81CHL1   C20 8450   1.545   1.008   7.579 -0.5019  0.1812  0.0806
   81CHL1   H20 8451   1.520   1.115   7.565 -2.2088 -0.1538  0.3463
   81CHL1   C21 8452   1.694   1.001   7.612  1.0408 -0.1939 -0.4272
   81CHL1  H21A 8453   1.763   1.044   7.537  1.9540  3.3296  2.1653
   81CHL1  H21B 8454   1.725   0.899   7.644  1.8253  0.2479  0.2618
   81CHL1  H21C 8455   1.713   1.054   7.708 -0.6311 -0.1342 -0.0996
   81CHL1   C22 8456   1.462   0.970   7.704  0.0299  0.4851  0.3076
   81CHL1  H22A 8457   1.359   1.010   7.690  0.0555  0.6582  0.5927
   81CHL1  H22B 8458   1.457   0.859   7.709 -0.5824  0.3978 -1.5921
   81CHL1   C23 8459   1.498   1.029   7.838  0.2504  0.3549 -0.1122
   81CHL1  H23A 8460   1.594   0.995   7.882 -0.7506 -0.4799  1.5024
   81CHL1  H23B 8461   1.504   1.139   7.822 -3.0260  0.5378 -0.7156
   81CHL1   C24 8462   1.389   0.998   7.939 -0.4836 -0.2009 -0.3527
   81CHL1  H24A 8463   1.292   1.050   7.919  0.3533  2.0213  0.9122
   81CHL1  H24B 8464   1.381   0.888   7.930  1.4700 -0.6933  2.6928
   81CHL1   C25 8465   1.432   1.029   8.080  0.0499  0.4886  0.4320
   81CHL1   H25 8466   1.531   0.981   8.100 -1.1936 -1.7564  1.6858
   81CHL1   C26 8467   1.436   1.179   8.097 -0.1730  0.1690 -1.0880
   81CHL1  H26A 8468   1.336   1.229   8.103 -1.5556 -2.5668  0.9668
   81CHL1  H26B 8469   1.496   1.200   8.188  3.4937 -1.0607 -3.0200
   81CHL1  H26C 8470   1.496   1.221   8.014  1.3013 -0.0095 -0.1524
   81CHL1   C27 8471   1.333   0.963   8.184  0.2770  0.7412  0.4977
   81CHL1  H27A 8472   1.243   1.028   8.187 -0.3706 -0.1264  0.2200
   81CHL1  H27B 8473   1.305   0.859   8.159 -0.7698  0.9617  0.6957
   81CHL1  H27C 8474   1.378   0.959   8.286 -0.5381 -1.6046  0.8244
   82CHL1    C3 8475   2.724   4.321   6.935  0.2828  0.2823 -0.1181
   82CHL1    H3 8476   2.757   4.422   6.968  0.5530  0.2043 -0.1463
   82CHL1    O3 8477   2.708   4.316   6.798  0.1680 -0.7435 -0.6770
   82CHL1   H3' 8478   2.719   4.224   6.773  1.9020 -0.5342 -0.8536
   82CHL1    C4 8479   2.839   4.228   6.971  0.0439 -0.5586  0.5015
   82CHL1   H4A 8480   2.815   4.126   6.934  0.5053 -0.2150 -0.8251
   82CHL1   H4B 8481   2.931   4.257   6.916 -0.3253  0.1541  0.2454
   82CHL1    C5 8482   2.869   4.226   7.122 -0.1219  0.1631 -0.1744
   82CHL1    C6 8483   2.991   4.252   7.172 -0.3558  0.1977 -0.2695
   82CHL1    H6 8484   3.079   4.263   7.107  0.7579  1.1883  1.3229
   82CHL1    C7 8485   3.026   4.245   7.317 -0.3488  0.0152 -0.0336
   82CHL1   H7A 8486   3.114   4.179   7.326  0.5040  1.2101  0.7610
   82CHL1   H7B 8487   3.058   4.343   7.358 -1.0782 -0.1080  0.8686
   82CHL1    C8 8488   2.909   4.193   7.404 -0.1193  0.3650 -0.0093
   82CHL1    H8 8489   2.909   4.082   7.399 -1.8165  0.3832 -2.4249
   82CHL1   C14 8490   2.934   4.222   7.553 -0.2617  0.9149 -0.5908
   82CHL1   H14 8491   2.952   4.331   7.557  1.9921  0.5448  1.1370
   82CHL1   C15 8492   3.073   4.175   7.611 -0.5832 -0.2606  0.7340
   82CHL1  H15A 8493   3.083   4.065   7.606 -1.3131 -0.2796 -0.6018
   82CHL1  H15B 8494   3.169   4.221   7.579 -0.4758 -0.5711  0.6102
   82CHL1   C16 8495   3.045   4.198   7.762  0.1798 -0.7982 -0.8567
   82CHL1  H16A 8496   3.051   4.102   7.818 -1.7300 -1.4685 -1.7299
   82CHL1  H16B 8497   3.099   4.272   7.826 -0.4547 -2.8088  2.2036
   82CHL1   C17 8498   2.895   4.236   7.770  0.4673  0.8024  0.2040
   82CHL1   H17 8499   2.895   4.348   7.766  2.0388  0.8135 -1.3324
   82CHL1   C13 8500   2.824   4.185   7.647 -0.0168  0.3514 -0.0447
   82CHL1   C18 8501   2.806   4.032   7.656  0.2573  0.6785 -0.2055
   82CHL1  H18A 8502   2.721   4.006   7.723 -1.7811 -0.5618 -3.0540
   82CHL1  H18B 8503   2.779   3.987   7.558 -0.7392  1.8490 -0.4920
   82CHL1  H18C 8504   2.891   3.986   7.710 -0.4138  0.1070  0.3985
   82CHL1   C12 8505   2.689   4.257   7.600 -0.4736 -0.0546 -0.9658
   82CHL1  H12A 8506   2.594   4.234   7.654  0.2907  1.3031  1.1108
   82CHL1  H12B 8507   2.701   4.366   7.617 -0.6655 -0.5455  3.9357
   82CHL1   C11 8508   2.658   4.214   7.456  0.6365  0.0737 -0.4075
   82CHL1  H11A 8509   2.637   4.106   7.462  1.5904 -0.0850  0.5919
   82CHL1  H11B 8510   2.569   4.271   7.421 -0.3416 -1.5701 -0.6667
   82CHL1    C9 8511   2.773   4.237   7.354 -0.7472 -0.5950  0.2997
   82CHL1    H9 8512   2.789   4.347   7.356  0.5702 -0.5313 -3.8802
   82CHL1   C10 8513   2.739   4.201   7.208 -0.0736 -0.2631  0.6356
   82CHL1   C19 8514   2.699   4.048   7.194 -0.3425 -0.2219  0.1632
   82CHL1  H19A 8515   2.755   3.988   7.269 -1.3691 -0.1983  0.9789
   82CHL1  H19B 8516   2.594   4.024   7.222 -1.4695  2.4117 -1.4762
   82CHL1  H19C 8517   2.712   4.005   7.092  0.7941 -0.2438  0.3155
   82CHL1    C1 8518   2.628   4.296   7.151 -0.5327  0.5638 -0.7564
   82CHL1   H1A 8519   2.539   4.261   7.209  0.0327  3.7463  2.3895
   82CHL1   H1B 8520   2.650   4.398   7.189  0.3027 -0.9882  3.4362
   82CHL1    C2 8521   2.599   4.291   7.004 -0.0632 -0.0531  0.0507
   82CHL1   H2A 8522   2.519   4.360   6.972 -0.6572 -0.3937  0.7761
   82CHL1   H2B 8523   2.560   4.193   6.969 -0.6059  0.7645 -1.7555
   82CHL1   C20 8524   2.818   4.208   7.904 -0.6646  0.5834  0.2895
   82CHL1   H20 8525   2.804   4.098   7.918  0.4351  0.1524 -1.6892
   82CHL1   C21 8526   2.668   4.264   7.910 -0.3709 -1.0074  0.0217
   82CHL1  H21A 8527   2.638   4.262   8.017 -3.5546 -0.8155 -0.7763
   82CHL1  H21B 8528   2.605   4.191   7.856  1.6175 -0.2006 -3.6692
   82CHL1  H21C 8529   2.663   4.366   7.866 -0.8506  0.4761  3.1712
   82CHL1   C22 8530   2.903   4.245   8.031  0.5548  0.5574  0.3433
   82CHL1  H22A 8531   2.850   4.201   8.118  0.8307 -0.8703 -0.1892
   82CHL1  H22B 8532   2.989   4.176   8.044  0.2123  0.5861  3.6089
   82CHL1   C23 8533   2.940   4.393   8.053 -0.3066  0.0776 -0.3145
   82CHL1  H23A 8534   2.998   4.431   7.966  0.1992  0.1104  0.0285
   82CHL1  H23B 8535   2.865   4.472   8.069 -1.0029 -0.9941  2.2178
   82CHL1   C24 8536   3.032   4.409   8.182  0.5028 -0.8244 -0.9848
   82CHL1  H24A 8537   3.123   4.349   8.161  0.0971 -1.5716 -0.6236
   82CHL1  H24B 8538   3.060   4.516   8.194  2.8002 -1.4246 -0.4011
   82CHL1   C25 8539   2.983   4.362   8.318  0.5999 -0.1261 -0.2132
   82CHL1   H25 8540   2.970   4.251   8.318 -0.2320 -0.0337  0.1066
   82CHL1   C26 8541   3.089   4.399   8.421  0.7897 -0.1457  0.1883
   82CHL1  H26A 8542   3.080   4.332   8.509  2.5050 -0.5606  0.0787
   82CHL1  H26B 8543   3.185   4.376   8.371  1.0722 -0.6522  0.9419
   82CHL1  H26C 8544   3.086   4.504   8.457  1.1626 -1.0254  3.0961
   82CHL1   C27 8545   2.845   4.428   8.360  0.0216 -0.1700 -0.4991
   82CHL1  H27A 8546   2.859   4.538   8.353  0.1227 -0.0690  0.9702
   82CHL1  H27B 8547   2.765   4.405   8.287 -0.9012 -0.6668  0.6258
   82CHL1  H27C 8548   2.814   4.404   8.464  0.2462  1.7093  0.0316
   83CHL1    C3 8549   5.607   4.539   6.894 -0.0904 -0.3757  0.0918
   83CHL1    H3 8550   5.523   4.483   6.940 -0.5904 -0.4402 -0.8691
   83CHL1    O3 8551   5.583   4.558   6.751  0.1123 -0.5368 -0.5665
   83CHL1   H3' 8552   5.661   4.609   6.728  0.4932 -0.2770  1.1099
   83CHL1    C4 8553   5.624   4.669   6.969 -0.5493 -0.1038 -0.1087
   83CHL1   H4A 8554   5.692   4.741   6.917 -1.1336 -1.1772 -2.4878
   83CHL1   H4B 8555   5.536   4.735   6.960 -0.5108 -0.0877 -0.3968
   83CHL1    C5 8556   5.661   4.660   7.117  0.5570 -0.1728  0.2593
   83CHL1    C6 8557   5.582   4.713   7.213 -0.1803 -0.7092  0.2530
   83CHL1    H6 8558   5.495   4.776   7.187  0.2108 -0.1191  0.3406
   83CHL1    C7 8559   5.625   4.704   7.359  0.0933  0.9371  0.3762
   83CHL1   H7A 8560   5.627   4.811   7.389 -4.9020  1.9063 -1.7769
   83CHL1   H7B 8561   5.559   4.649   7.430  1.0090 -1.9575 -0.8547
   83CHL1    C8 8562   5.765   4.648   7.388  0.4966 -0.3885 -0.8759
   83CHL1    H8 8563   5.832   4.737   7.385  0.0535  0.3483  3.6549
   83CHL1   C14 8564   5.778   4.599   7.531  0.1870  0.4860  0.4311
   83CHL1   H14 8565   5.710   4.511   7.529  1.6658 -0.6752 -0.7730
   83CHL1   C15 8566   5.736   4.679   7.653 -0.4767 -0.0860 -0.1485
   83CHL1  H15A 8567   5.786   4.778   7.645 -0.1286 -0.2055  0.5336
   83CHL1  H15B 8568   5.625   4.683   7.663 -0.5246  0.7275 -0.8471
   83CHL1   C16 8569   5.803   4.609   7.776  0.0139 -0.0001 -0.1410
   83CHL1  H16A 8570   5.839   4.683   7.850  2.1353 -2.5944  1.6084
   83CHL1  H16B 8571   5.729   4.544   7.828  1.0790 -1.3677 -0.2919
   83CHL1   C17 8572   5.907   4.514   7.715  0.1187 -0.7099  0.1263
   83CHL1   H17 8573   5.855   4.415   7.704 -0.0301 -0.8640  1.9829
   83CHL1   C13 8574   5.919   4.543   7.558 -0.4124  0.3719  0.9909
   83CHL1   C18 8575   6.039   4.642   7.531 -0.0188  0.1887 -0.2879
   83CHL1  H18A 8576   6.133   4.593   7.566  1.3271  3.7904  1.5739
   83CHL1  H18B 8577   6.034   4.663   7.423  0.6691 -1.3772 -0.6568
   83CHL1  H18C 8578   6.037   4.740   7.583  0.1306  0.8354 -1.4669
   83CHL1   C12 8579   5.940   4.422   7.472  0.3852 -0.5795  0.0494
   83CHL1  H12A 8580   6.039   4.386   7.506  1.1344  0.8200 -0.5622
   83CHL1  H12B 8581   5.853   4.356   7.495  1.0576 -1.5323 -0.0970
   83CHL1   C11 8582   5.932   4.461   7.328 -0.1562  0.1920 -0.4385
   83CHL1  H11A 8583   6.017   4.528   7.300 -0.6251  0.8425 -0.3309
   83CHL1  H11B 8584   5.948   4.366   7.273 -2.4634 -0.3962 -0.1877
   83CHL1    C9 8585   5.799   4.539   7.287 -0.8235  0.6865 -0.4848
   83CHL1    H9 8586   5.719   4.465   7.311  0.3766 -0.2685  0.7412
   83CHL1   C10 8587   5.786   4.578   7.143  0.4112  0.0170 -0.3007
   83CHL1   C19 8588   5.911   4.669   7.103 -0.1203  0.2222 -0.2589
   83CHL1  H19A 8589   5.910   4.698   6.996  5.0072 -0.1588 -0.6995
   83CHL1  H19B 8590   5.915   4.756   7.172  0.4877  1.4799 -1.8286
   83CHL1  H19C 8591   6.011   4.620   7.111  0.1883  1.0918  1.8096
   83CHL1    C1 8592   5.786   4.452   7.053  0.3674  0.6976  0.8226
   83CHL1   H1A 8593   5.886   4.402   7.050  0.3455  0.6190  1.4482
   83CHL1   H1B 8594   5.714   4.379   7.095  0.9579 -1.1350 -1.1164
   83CHL1    C2 8595   5.745   4.475   6.909 -0.1453 -0.0561 -0.3352
   83CHL1   H2A 8596   5.761   4.384   6.847  0.6496 -1.0822  1.3033
   83CHL1   H2B 8597   5.821   4.543   6.866  2.5946 -0.8666  2.8798
   83CHL1   C20 8598   6.034   4.485   7.792  0.5107  0.6123 -0.5174
   83CHL1   H20 8599   6.112   4.438   7.729 -0.6647 -0.4401 -1.2127
   83CHL1   C21 8600   5.997   4.378   7.899 -0.4740 -0.7136  0.0936
   83CHL1  H21A 8601   5.920   4.418   7.968 -0.7695  0.6994 -1.0238
   83CHL1  H21B 8602   6.082   4.355   7.968 -0.9497 -0.8730  0.6405
   83CHL1  H21C 8603   5.954   4.285   7.856 -1.7043 -0.3622  0.5209
   83CHL1   C22 8604   6.107   4.605   7.852 -0.1281  1.2619 -0.1156
   83CHL1  H22A 8605   6.089   4.687   7.780 -2.9864 -1.5569 -2.9514
   83CHL1  H22B 8606   6.060   4.632   7.949  1.0537 -2.0034  1.5228
   83CHL1   C23 8607   6.254   4.565   7.873 -0.7043 -0.4654  0.4870
   83CHL1  H23A 8608   6.270   4.462   7.911 -1.5082 -0.9804 -0.5170
   83CHL1  H23B 8609   6.314   4.592   7.783  0.8961  0.0553  1.6715
   83CHL1   C24 8610   6.334   4.657   7.964  0.2735 -0.2311 -0.0715
   83CHL1  H24A 8611   6.441   4.666   7.938 -0.0383  1.0698 -1.0041
   83CHL1  H24B 8612   6.302   4.763   7.955  0.3455 -0.0833  1.1501
   83CHL1   C25 8613   6.319   4.629   8.114  0.0181 -0.0439  0.4471
   83CHL1   H25 8614   6.208   4.630   8.123 -0.0562  1.2278 -0.3455
   83CHL1   C26 8615   6.389   4.499   8.154  0.6444  0.2995  0.0253
   83CHL1  H26A 8616   6.395   4.420   8.076  1.7478  0.1015  0.3032
   83CHL1  H26B 8617   6.493   4.524   8.183  0.3355  0.9284  0.6303
   83CHL1  H26C 8618   6.329   4.472   8.244 -1.5848  1.8012 -0.9068
   83CHL1   C27 8619   6.367   4.749   8.196 -0.1444  1.1890 -0.1310
   83CHL1  H27A 8620   6.308   4.842   8.182  0.4636  1.6179  0.0665
   83CHL1  H27B 8621   6.374   4.722   8.304 -1.9560 -1.6225 -0.6105
   83CHL1  H27C 8622   6.470   4.762   8.156  1.1058 -1.1422  2.0392
   84CHL1    C3 8623   6.488   6.580   6.965 -0.2556  0.5672  0.7479
   84CHL1    H3 8624   6.480   6.686   6.934  0.2536  0.7487  1.2254
   84CHL1    O3 8625   6.406   6.498   6.880  0.7619  0.2424 -0.0325
   84CHL1   H3' 8626   6.316   6.508   6.911  0.3836 -0.9232 -0.7129
   84CHL1    C4 8627   6.636   6.528   6.952  0.2468 -0.2743 -0.2163
   84CHL1   H4A 8628   6.626   6.418   6.965  0.4829 -0.2438  0.2394
   84CHL1   H4B 8629   6.677   6.550   6.851  0.6000  0.0982  0.0043
   84CHL1    C5 8630   6.722   6.589   7.064  0.1636  0.2750 -0.2511
   84CHL1    C6 8631   6.825   6.668   7.030 -0.1843  0.6791 -0.0928
   84CHL1    H6 8632   6.846   6.670   6.922  0.9239 -0.9129  0.0663
   84CHL1    C7 8633   6.912   6.735   7.137 -0.1145  0.7529 -0.1235
   84CHL1   H7A 8634   7.015   6.717   7.098  0.0844  0.8837  0.3383
   84CHL1   H7B 8635   6.899   6.845   7.127  0.6072  0.8928  0.4405
   84CHL1    C8 8636   6.912   6.666   7.275  0.1622  0.0165 -0.7388
   84CHL1    H8 8637   6.962   6.567   7.266  0.4353  0.1749 -0.9933
   84CHL1   C14 8638   6.984   6.756   7.383  1.0213 -0.2498  0.1111
   84CHL1   H14 8639   6.912   6.841   7.379 -1.4216 -2.2152 -1.1213
   84CHL1   C15 8640   7.122   6.808   7.342 -0.1058 -0.0701  0.2597
   84CHL1  H15A 8641   7.191   6.735   7.295  1.5514 -0.0404  2.5231
   84CHL1  H15B 8642   7.111   6.893   7.271  0.6643 -1.2874 -1.3866
   84CHL1   C16 8643   7.176   6.857   7.479  0.7208  0.3077 -0.4738
   84CHL1  H16A 8644   7.265   6.792   7.493 -0.1951 -0.9856 -0.5555
   84CHL1  H16B 8645   7.215   6.961   7.470  1.8623 -0.0710 -0.1248
   84CHL1   C17 8646   7.059   6.834   7.594 -0.2537 -0.4535 -0.3711
   84CHL1   H17 8647   6.995   6.924   7.590  1.0016  0.4307 -1.4684
   84CHL1   C13 8648   6.982   6.713   7.527  0.5508 -0.3687 -0.1181
   84CHL1   C18 8649   7.074   6.589   7.535  0.7669 -0.1885  0.1471
   84CHL1  H18A 8650   7.176   6.603   7.494  0.4881  1.0881 -0.1345
   84CHL1  H18B 8651   7.090   6.527   7.626 -2.0924 -2.3553 -0.6864
   84CHL1  H18C 8652   7.033   6.511   7.468  0.3441  0.1847 -0.0323
   84CHL1   C12 8653   6.836   6.677   7.570  0.6157  0.1254 -0.3913
   84CHL1  H12A 8654   6.846   6.626   7.669  0.2499  0.6558 -0.0718
   84CHL1  H12B 8655   6.777   6.768   7.593 -1.1494 -0.8692 -0.8092
   84CHL1   C11 8656   6.761   6.592   7.463  0.3564 -0.3034 -0.0797
   84CHL1  H11A 8657   6.804   6.490   7.467 -1.6575 -1.2663 -1.6128
   84CHL1  H11B 8658   6.659   6.575   7.504  0.2827 -0.8024 -0.4579
   84CHL1    C9 8659   6.763   6.648   7.313 -0.5447 -0.6209 -0.2049
   84CHL1    H9 8660   6.729   6.753   7.321  2.9957  0.8205 -2.0147
   84CHL1   C10 8661   6.679   6.562   7.215 -0.3932 -0.0501  0.5779
   84CHL1   C19 8662   6.688   6.412   7.244 -0.5337 -0.1751 -0.0221
   84CHL1  H19A 8663   6.642   6.379   7.340 -4.1213 -0.8015 -1.7815
   84CHL1  H19B 8664   6.643   6.343   7.170  0.7777 -0.7550 -0.3099
   84CHL1  H19C 8665   6.794   6.378   7.244 -0.6825 -0.6726  0.8320
   84CHL1    C1 8666   6.533   6.615   7.219 -0.4037  0.3365 -0.4741
   84CHL1   H1A 8667   6.494   6.588   7.319 -0.5587  1.8596 -0.1108
   84CHL1   H1B 8668   6.529   6.726   7.221 -0.2389  0.3390 -0.2364
   84CHL1    C2 8669   6.437   6.555   7.103 -0.4102  0.0155 -1.0418
   84CHL1   H2A 8670   6.334   6.596   7.110 -0.6008 -0.1915 -2.3024
   84CHL1   H2B 8671   6.417   6.449   7.129 -2.1498  0.7416  0.8121
   84CHL1   C20 8672   7.113   6.821   7.743  0.2192  0.0494 -0.0339
   84CHL1   H20 8673   7.184   6.736   7.743  0.5419  0.2800 -1.9863
   84CHL1   C21 8674   7.000   6.792   7.841  0.6263 -0.7749  0.2590
   84CHL1  H21A 8675   7.025   6.806   7.948  1.2133 -2.4925  0.3737
   84CHL1  H21B 8676   6.967   6.687   7.831 -1.1916 -0.3097  0.9823
   84CHL1  H21C 8677   6.912   6.857   7.823 -2.4297 -4.8829 -1.0097
   84CHL1   C22 8678   7.201   6.934   7.799 -0.0910  0.5983 -0.3069
   84CHL1  H22A 8679   7.236   6.897   7.898  0.0363  1.8060  0.1147
   84CHL1  H22B 8680   7.290   6.955   7.736  0.0405 -1.4402 -0.8745
   84CHL1   C23 8681   7.137   7.066   7.809  0.5002 -0.0943  0.5723
   84CHL1  H23A 8682   7.158   7.130   7.720 -2.1184  2.4549  1.6132
   84CHL1  H23B 8683   7.026   7.057   7.811  0.4217  0.7342  2.5622
   84CHL1   C24 8684   7.196   7.142   7.930 -0.0262  1.1679 -0.2028
   84CHL1  H24A 8685   7.171   7.075   8.016 -1.7386  0.1972 -1.3989
   84CHL1  H24B 8686   7.307   7.145   7.929  0.0562 -0.5443 -0.2927
   84CHL1   C25 8687   7.133   7.279   7.972  0.6290 -0.0020 -0.9791
   84CHL1   H25 8688   7.026   7.255   7.988  0.0387  1.8675 -1.8144
   84CHL1   C26 8689   7.203   7.326   8.097  0.0229 -0.3017  0.1412
   84CHL1  H26A 8690   7.224   7.434   8.085  1.1667 -0.3776  1.3299
   84CHL1  H26B 8691   7.138   7.311   8.186 -1.1947 -0.6662 -0.7619
   84CHL1  H26C 8692   7.306   7.286   8.109  0.4014  0.3803 -0.7099
   84CHL1   C27 8693   7.138   7.375   7.860 -0.1327 -1.1812  0.0008
   84CHL1  H27A 8694   7.094   7.470   7.898  3.2650 -0.2124  1.9378
   84CHL1  H27B 8695   7.244   7.378   7.825 -0.4337 -2.1360 -1.0574
   84CHL1  H27C 8696   7.076   7.335   7.777 -1.0012  1.6970 -0.8830
   85CHL1    C3 8697   0.447   4.918   6.641 -0.1079 -0.0527 -0.4581
   85CHL1    H3 8698   0.479   4.820   6.684 -1.4659 -1.4223 -2.4064
   85CHL1    O3 8699   0.428   4.901   6.504 -0.1651 -0.4425  0.0426
   85CHL1   H3' 8700   0.340   4.923   6.472  0.4172  0.7917 -0.7708
   85CHL1    C4 8701   0.319   4.978   6.700  0.5866 -0.1007  0.0787
   85CHL1   H4A 8702   0.296   5.074   6.649  1.6537 -0.0932 -0.4011
   85CHL1   H4B 8703   0.243   4.905   6.663  1.7132 -1.1666 -0.1932
   85CHL1    C5 8704   0.327   4.997   6.847  0.6690  0.1683  0.1142
   85CHL1    C6 8705   0.242   4.925   6.927  0.9102  0.8636  0.3258
   85CHL1    H6 8706   0.154   4.873   6.885  1.3536  1.3472 -1.2768
   85CHL1    C7 8707   0.253   4.935   7.083  0.1740 -0.0388 -0.5186
   85CHL1   H7A 8708   0.157   4.947   7.137  1.4571  0.7235  1.7036
   85CHL1   H7B 8709   0.291   4.836   7.117 -0.7871 -1.0275 -2.1523
   85CHL1    C8 8710   0.352   5.040   7.132 -0.5326  0.7831  0.0847
   85CHL1    H8 8711   0.304   5.140   7.136 -2.8699 -0.2779  0.5016
   85CHL1   C14 8712   0.401   5.002   7.274 -0.6007  0.6179 -0.4010
   85CHL1   H14 8713   0.467   4.913   7.268 -1.8710 -0.3703 -0.2155
   85CHL1   C15 8714   0.303   4.962   7.373  0.4805  0.9887 -0.6998
   85CHL1  H15A 8715   0.215   5.029   7.384 -0.4276 -0.4745  1.5301
   85CHL1  H15B 8716   0.288   4.852   7.373  0.7785  0.9351  0.3622
   85CHL1   C16 8717   0.375   4.993   7.507  0.3393  0.1165  0.0772
   85CHL1  H16A 8718   0.317   5.070   7.563 -1.2179 -0.8105 -0.2134
   85CHL1  H16B 8719   0.376   4.904   7.574  1.1328 -0.5928 -0.8638
   85CHL1   C17 8720   0.513   5.055   7.478  0.1484  1.0300  0.2131
   85CHL1   H17 8721   0.587   4.973   7.465 -0.4858  0.8694 -2.9867
   85CHL1   C13 8722   0.496   5.101   7.333 -0.4480  0.1384  0.4809
   85CHL1   C18 8723   0.432   5.245   7.344  0.0322  0.4962 -0.6069
   85CHL1  H18A 8724   0.500   5.316   7.396 -0.9077 -0.7336  2.5318
   85CHL1  H18B 8725   0.403   5.275   7.241 -0.7230  1.0663 -0.2400
   85CHL1  H18C 8726   0.338   5.245   7.404  1.3397 -0.6484  1.5679
   85CHL1   C12 8727   0.621   5.118   7.241 -0.4511 -0.0746  0.7610
   85CHL1  H12A 8728   0.679   5.207   7.274  0.5903 -0.7004  0.6712
   85CHL1  H12B 8729   0.686   5.028   7.225 -1.3259 -0.2964 -2.0635
   85CHL1   C11 8730   0.583   5.148   7.100 -0.4133 -0.2596 -0.4939
   85CHL1  H11A 8731   0.551   5.254   7.090 -1.5460 -0.5162  0.2177
   85CHL1  H11B 8732   0.673   5.151   7.036  0.7640  1.0472  1.1033
   85CHL1    C9 8733   0.480   5.049   7.038  0.5986  0.1321  0.0294
   85CHL1    H9 8734   0.524   4.948   7.037  0.3632  0.0275 -0.8604
   85CHL1   C10 8735   0.449   5.078   6.888 -0.0232 -0.0699 -0.7703
   85CHL1   C19 8736   0.406   5.227   6.870  0.0911 -0.0357 -0.2531
   85CHL1  H19A 8737   0.316   5.243   6.933 -0.1753  0.0037 -0.6414
   85CHL1  H19B 8738   0.488   5.300   6.887  0.2338 -0.6203  1.7919
   85CHL1  H19C 8739   0.373   5.255   6.767 -3.7619 -1.7021  0.3527
   85CHL1    C1 8740   0.580   5.060   6.811 -0.0436 -0.1634 -0.0988
   85CHL1   H1A 8741   0.645   5.150   6.803 -0.2098 -0.0245  0.1077
   85CHL1   H1B 8742   0.626   4.973   6.862 -2.3574 -2.0587 -1.0394
   85CHL1    C2 8743   0.562   5.015   6.663 -0.5909 -0.5147  0.3727
   85CHL1   H2A 8744   0.650   4.963   6.619 -0.7696  0.4797 -1.2156
   85CHL1   H2B 8745   0.528   5.110   6.617  1.9415 -0.3552 -1.3771
   85CHL1   C20 8746   0.570   5.147   7.585  0.3257  0.4482  0.0264
   85CHL1   H20 8747   0.511   5.241   7.583  0.1631  0.3368 -0.9282
   85CHL1   C21 8748   0.720   5.184   7.555 -0.0194 -0.3738 -1.3631
   85CHL1  H21A 8749   0.721   5.268   7.482  2.3609  0.2902 -0.6703
   85CHL1  H21B 8750   0.772   5.095   7.515 -0.0761 -0.3846 -1.4125
   85CHL1  H21C 8751   0.772   5.226   7.644 -0.4277  0.7315 -1.6329
   85CHL1   C22 8752   0.568   5.090   7.729  0.8095 -0.1332  0.3954
   85CHL1  H22A 8753   0.461   5.071   7.752  0.9468 -0.9660  0.4000
   85CHL1  H22B 8754   0.622   4.993   7.722  0.1968 -0.4822  0.4517
   85CHL1   C23 8755   0.606   5.191   7.842  0.7830  0.6165 -0.4682
   85CHL1  H23A 8756   0.715   5.183   7.864  0.8545 -1.1176 -1.2652
   85CHL1  H23B 8757   0.588   5.296   7.811  1.1985  0.5160 -1.0660
   85CHL1   C24 8758   0.532   5.161   7.971 -0.0420  0.5042  0.6376
   85CHL1  H24A 8759   0.538   5.247   8.041 -0.5396 -0.7665  2.3387
   85CHL1  H24B 8760   0.428   5.153   7.932  0.1569 -1.0888  0.3612
   85CHL1   C25 8761   0.581   5.042   8.050 -0.4446  0.0434 -0.8014
   85CHL1   H25 8762   0.577   4.956   7.980 -0.3898  0.4364 -1.2985
   85CHL1   C26 8763   0.728   5.063   8.109 -0.5160 -1.1584 -0.5901
   85CHL1  H26A 8764   0.761   4.978   8.172 -0.1355 -1.3489 -1.0384
   85CHL1  H26B 8765   0.810   5.063   8.034  1.5235  1.2953  1.4441
   85CHL1  H26C 8766   0.731   5.159   8.166 -0.4794 -0.9106 -0.9993
   85CHL1   C27 8767   0.491   4.990   8.164 -0.5062  0.5077  0.5208
   85CHL1  H27A 8768   0.477   5.065   8.244 -2.4062 -0.0283  0.7346
   85CHL1  H27B 8769   0.391   4.953   8.132  0.2244 -1.1519  0.0549
   85CHL1  H27C 8770   0.545   4.903   8.208  0.5353  0.4964 -0.7056
   86CHL1    C3 8771   1.430   0.083   6.696  0.1988 -0.3696  0.0901
   86CHL1    H3 8772   1.498  -0.005   6.701  2.1204  0.6575 -3.8569
   86CHL1    O3 8773   1.358   0.096   6.574 -0.3805 -0.3135  0.0706
   86CHL1   H3' 8774   1.329   0.187   6.570 -1.6631 -0.7586 -2.9874
   86CHL1    C4 8775   1.340   0.085   6.820 -0.1664 -0.2871  0.3319
   86CHL1   H4A 8776   1.260   0.161   6.806 -0.4908 -0.2503  2.1317
   86CHL1   H4B 8777   1.284  -0.011   6.818  0.2538 -0.5372  0.5141
   86CHL1    C5 8778   1.407   0.117   6.952 -0.4254 -0.2106 -0.9569
   86CHL1    C6 8779   1.393   0.055   7.067 -0.2474 -0.4284  0.2925
   86CHL1    H6 8780   1.336  -0.039   7.059 -1.4464  0.3436 -0.4403
   86CHL1    C7 8781   1.455   0.089   7.195 -0.1801  0.1080  0.3376
   86CHL1   H7A 8782   1.377   0.081   7.275  0.4740 -1.6814  0.8488
   86CHL1   H7B 8783   1.542   0.022   7.211  0.5705  0.6165 -1.3580
   86CHL1    C8 8784   1.514   0.232   7.202 -0.0017  0.3091  0.6227
   86CHL1    H8 8785   1.434   0.308   7.212 -0.7988 -0.6925  2.2425
   86CHL1   C14 8786   1.604   0.242   7.326 -0.2489  0.2336  0.7941
   86CHL1   H14 8787   1.679   0.161   7.313 -1.9263 -1.2817  0.1362
   86CHL1   C15 8788   1.541   0.225   7.464  0.0721  0.5559 -0.4406
   86CHL1  H15A 8789   1.446   0.282   7.471  0.4209  1.2835 -1.3849
   86CHL1  H15B 8790   1.524   0.118   7.487 -0.5693  0.7820  0.1704
   86CHL1   C16 8791   1.639   0.294   7.562  0.2359  0.2926 -1.1218
   86CHL1  H16A 8792   1.582   0.351   7.639  1.8457 -0.2713  0.5517
   86CHL1  H16B 8793   1.682   0.220   7.633  1.4442  1.5343 -0.4924
   86CHL1   C17 8794   1.736   0.370   7.468  0.0166  0.5144 -0.3203
   86CHL1   H17 8795   1.825   0.305   7.451  0.0202  0.9129 -1.9510
   86CHL1   C13 8796   1.664   0.378   7.329  0.1185 -0.0436  0.3110
   86CHL1   C18 8797   1.551   0.492   7.339 -0.2553 -0.7103  0.8598
   86CHL1  H18A 8798   1.505   0.498   7.238  2.2492 -0.0866 -0.3057
   86CHL1  H18B 8799   1.478   0.481   7.423 -0.4862  0.0951  0.7738
   86CHL1  H18C 8800   1.583   0.594   7.367 -2.9341  0.0723  1.4144
   86CHL1   C12 8801   1.757   0.391   7.209 -0.3755  0.3320 -0.5351
   86CHL1  H12A 8802   1.807   0.490   7.215  1.3167 -0.5156 -0.0166
   86CHL1  H12B 8803   1.831   0.309   7.212 -0.4498  0.2370  2.3699
   86CHL1   C11 8804   1.680   0.387   7.076 -0.3820  0.0027  0.3729
   86CHL1  H11A 8805   1.627   0.484   7.064 -1.0354  0.0924  3.2596
   86CHL1  H11B 8806   1.765   0.381   7.004 -1.1941 -2.5259 -0.4928
   86CHL1    C9 8807   1.590   0.260   7.069 -0.3957  0.4107 -1.0395
   86CHL1    H9 8808   1.666   0.178   7.072  0.8322  1.4994 -1.1373
   86CHL1   C10 8809   1.501   0.242   6.942  0.2804  0.1319  0.0083
   86CHL1   C19 8810   1.420   0.371   6.930 -0.0659  0.5898 -0.0303
   86CHL1  H19A 8811   1.479   0.463   6.947  1.7350 -0.6210  0.5131
   86CHL1  H19B 8812   1.376   0.373   6.828  0.5512  0.3946 -0.2991
   86CHL1  H19C 8813   1.332   0.372   6.998 -0.7753  0.4460 -0.9240
   86CHL1    C1 8814   1.597   0.233   6.828  0.1090  0.0918 -0.1052
   86CHL1   H1A 8815   1.647   0.332   6.824 -1.5025  0.9831  0.7756
   86CHL1   H1B 8816   1.666   0.147   6.842 -0.8335 -0.7418 -0.5451
   86CHL1    C2 8817   1.526   0.205   6.689 -0.2028  0.3971 -0.0931
   86CHL1   H2A 8818   1.601   0.192   6.608  0.5237  0.5849  0.5424
   86CHL1   H2B 8819   1.472   0.298   6.657 -1.7127 -0.3747  0.1348
   86CHL1   C20 8820   1.786   0.494   7.536  0.4367 -0.3913 -0.1301
   86CHL1   H20 8821   1.705   0.566   7.554  2.0248  1.6992 -0.9224
   86CHL1   C21 8822   1.891   0.560   7.441  0.2475 -0.2272 -0.2322
   86CHL1  H21A 8823   1.951   0.634   7.498  0.3870 -1.0519  0.7324
   86CHL1  H21B 8824   1.836   0.616   7.363  1.2641  1.5149  0.2449
   86CHL1  H21C 8825   1.954   0.483   7.390 -0.5409 -0.5016 -0.8117
   86CHL1   C22 8826   1.844   0.464   7.675  0.9688  0.7197 -0.1132
   86CHL1  H22A 8827   1.769   0.425   7.747  3.1178 -0.4609  1.6050
   86CHL1  H22B 8828   1.928   0.392   7.681  0.4318  0.1773  1.8309
   86CHL1   C23 8829   1.893   0.583   7.757 -0.1197 -0.8435 -0.5229
   86CHL1  H23A 8830   1.999   0.600   7.729 -0.9242  2.0277 -2.2669
   86CHL1  H23B 8831   1.837   0.670   7.716  0.2503 -1.0163 -1.4057
   86CHL1   C24 8832   1.871   0.570   7.909  0.6919  0.0556 -0.4613
   86CHL1  H24A 8833   1.765   0.543   7.932  0.6261  0.7757  0.1132
   86CHL1  H24B 8834   1.934   0.485   7.943  1.6073  0.9340  0.0459
   86CHL1   C25 8835   1.921   0.692   7.993  0.0878 -0.4004 -0.7137
   86CHL1   H25 8836   2.025   0.704   7.956  0.2516 -0.2567 -0.2188
   86CHL1   C26 8837   1.825   0.817   7.985 -0.1449  0.4485 -0.3360
   86CHL1  H26A 8838   1.857   0.897   8.054  0.2591  1.2080 -1.3728
   86CHL1  H26B 8839   1.820   0.851   7.879  0.4581  2.3682  0.2156
   86CHL1  H26C 8840   1.724   0.779   8.011  0.6381 -2.3499 -1.0286
   86CHL1   C27 8841   1.933   0.662   8.144  0.3656  0.2991  0.5953
   86CHL1  H27A 8842   1.951   0.752   8.206 -0.9762  0.7965  0.3031
   86CHL1  H27B 8843   1.838   0.609   8.167 -0.0415  1.5120  1.8581
   86CHL1  H27C 8844   2.018   0.594   8.169  1.2953  1.5785  1.0149
   87CHL1    C3 8845   3.556   0.108   6.752  0.0011  0.3734  0.5876
   87CHL1    H3 8846   3.649   0.063   6.793  0.0495 -1.5274 -1.4114
   87CHL1    O3 8847   3.548   0.072   6.615 -0.6782  0.4749  0.5417
   87CHL1   H3' 8848   3.462   0.106   6.588 -0.6977 -1.4110 -2.2122
   87CHL1    C4 8849   3.439   0.044   6.819 -0.4352 -0.2819 -0.2562
   87CHL1   H4A 8850   3.339   0.066   6.777 -0.6040  0.3497  0.4597
   87CHL1   H4B 8851   3.457  -0.066   6.819  1.6217 -0.0086  1.3358
   87CHL1    C5 8852   3.430   0.084   6.961  0.7523 -0.1391 -0.0605
   87CHL1    C6 8853   3.420  -0.011   7.054  0.9266 -0.5445 -0.1080
   87CHL1    H6 8854   3.415  -0.114   7.018 -2.1508 -0.6072  0.2703
   87CHL1    C7 8855   3.410   0.008   7.203 -0.2525  0.2859 -0.5492
   87CHL1   H7A 8856   3.323  -0.053   7.236  1.4446 -1.6965  0.4390
   87CHL1   H7B 8857   3.495  -0.041   7.255  1.5705  2.7766 -0.9771
   87CHL1    C8 8858   3.388   0.156   7.237  0.1859 -0.2849  0.0308
   87CHL1    H8 8859   3.281   0.170   7.213  0.5760  1.1130 -1.0289
   87CHL1   C14 8860   3.422   0.194   7.384  0.3447  0.7995  1.3388
   87CHL1   H14 8861   3.533   0.193   7.389  0.4397  0.0469 -0.4134
   87CHL1   C15 8862   3.378   0.092   7.492  0.3795  0.0937  0.1776
   87CHL1  H15A 8863   3.277   0.054   7.465  1.7397 -2.5437 -1.6323
   87CHL1  H15B 8864   3.446   0.004   7.486 -0.9379 -0.9769  0.3840
   87CHL1   C16 8865   3.390   0.173   7.624 -0.0902 -0.2351  0.5034
   87CHL1  H16A 8866   3.293   0.162   7.676 -1.3274  2.5894 -0.9749
   87CHL1  H16B 8867   3.474   0.154   7.695 -0.5441 -0.9552  0.8562
   87CHL1   C17 8868   3.398   0.321   7.573  0.3519 -0.6071 -0.9245
   87CHL1   H17 8869   3.508   0.335   7.581  0.1886  0.2952 -0.0551
   87CHL1   C13 8870   3.373   0.329   7.427  0.0784 -0.2559 -0.4815
   87CHL1   C18 8871   3.216   0.344   7.401  0.1914 -0.2514 -0.5753
   87CHL1  H18A 8872   3.196   0.337   7.291  0.6553 -0.1324 -0.6689
   87CHL1  H18B 8873   3.171   0.252   7.443  0.9535 -0.2548  0.2456
   87CHL1  H18C 8874   3.167   0.442   7.421 -1.0051 -0.2644 -2.9593
   87CHL1   C12 8875   3.457   0.424   7.349 -0.1605 -0.5182  0.1102
   87CHL1  H12A 8876   3.421   0.528   7.362 -0.1805 -0.4126 -0.6918
   87CHL1  H12B 8877   3.565   0.418   7.373  0.0890 -2.7004 -1.2374
   87CHL1   C11 8878   3.448   0.402   7.189  0.1188  0.0734 -0.3502
   87CHL1  H11A 8879   3.345   0.429   7.156  0.5761  2.8704  0.2720
   87CHL1  H11B 8880   3.520   0.466   7.133  1.3681  0.2673  1.3988
   87CHL1    C9 8881   3.465   0.255   7.140 -0.4745  0.5274 -0.0414
   87CHL1    H9 8882   3.573   0.232   7.147 -0.7670 -2.2059 -2.7284
   87CHL1   C10 8883   3.437   0.233   6.989  0.0672 -0.1555  0.4020
   87CHL1   C19 8884   3.294   0.290   6.945 -0.6840  0.5663  0.3621
   87CHL1  H19A 8885   3.237   0.240   6.864  0.1670  1.3461 -0.7543
   87CHL1  H19B 8886   3.232   0.287   7.037 -1.5713 -0.5974 -0.2447
   87CHL1  H19C 8887   3.305   0.396   6.914 -2.7038  0.4988 -0.7188
   87CHL1    C1 8888   3.562   0.300   6.916  0.0119 -0.8106  0.4553
   87CHL1   H1A 8889   3.565   0.408   6.939  2.4469 -0.6130 -0.5172
   87CHL1   H1B 8890   3.649   0.257   6.970  1.2168 -1.3941 -1.8059
   87CHL1    C2 8891   3.569   0.262   6.765  0.1579 -0.5286  0.2011
   87CHL1   H2A 8892   3.661   0.294   6.712 -0.3525 -1.6355 -1.4039
   87CHL1   H2B 8893   3.493   0.331   6.723 -1.8389 -2.2169  0.8283
   87CHL1   C20 8894   3.322   0.415   7.667  0.8009  0.2937 -0.1340
   87CHL1   H20 8895   3.213   0.393   7.668  1.1088 -1.4740  1.2615
   87CHL1   C21 8896   3.342   0.557   7.624 -0.7183 -0.6752  0.5881
   87CHL1  H21A 8897   3.452   0.570   7.632 -0.6667 -1.2103  0.7662
   87CHL1  H21B 8898   3.290   0.632   7.687 -1.6482  0.4053 -1.3963
   87CHL1  H21C 8899   3.308   0.591   7.524 -0.4002 -1.0983  0.3342
   87CHL1   C22 8900   3.373   0.392   7.819  0.1247 -0.3779  0.0808
   87CHL1  H22A 8901   3.363   0.285   7.845  0.2335 -0.8380 -1.6793
   87CHL1  H22B 8902   3.480   0.421   7.822 -0.0354  0.5980 -1.9971
   87CHL1   C23 8903   3.304   0.478   7.914 -0.3385 -0.2776 -0.0543
   87CHL1  H23A 8904   3.346   0.581   7.911  0.0915 -0.4527 -0.1044
   87CHL1  H23B 8905   3.196   0.473   7.891 -0.5171  1.8923  0.1358
   87CHL1   C24 8906   3.337   0.435   8.059  0.6800 -0.2070 -0.2684
   87CHL1  H24A 8907   3.307   0.329   8.077 -1.5016  0.3345 -0.4376
   87CHL1  H24B 8908   3.445   0.450   8.081  0.7132  0.0019 -0.5765
   87CHL1   C25 8909   3.257   0.521   8.155 -0.0795  0.1989  0.3249
   87CHL1   H25 8910   3.220   0.601   8.087  0.1433 -0.9093 -1.1523
   87CHL1   C26 8911   3.125   0.457   8.219 -0.2144 -0.0241 -0.5398
   87CHL1  H26A 8912   3.073   0.542   8.270  0.0766 -0.1564 -0.0224
   87CHL1  H26B 8913   3.068   0.426   8.129 -1.3117  0.9334 -0.2139
   87CHL1  H26C 8914   3.144   0.377   8.293  1.1435  2.2732  1.7839
   87CHL1   C27 8915   3.337   0.592   8.262  0.5507  0.1211 -0.2881
   87CHL1  H27A 8916   3.354   0.517   8.342  1.3126  1.3296  0.7112
   87CHL1  H27B 8917   3.433   0.638   8.232  0.2642  1.6001  0.9313
   87CHL1  H27C 8918   3.273   0.677   8.295  1.2575  0.0017  1.5222
   88CHL1    C3 8919   5.746   5.191   6.999  0.5358  0.1651 -0.4586
   88CHL1    H3 8920   5.648   5.235   7.030  0.9996 -0.2528  1.8084
   88CHL1    O3 8921   5.747   5.181   6.856  0.0050  0.0248  0.1336
   88CHL1   H3' 8922   5.835   5.146   6.838 -0.3918 -1.6647  1.2635
   88CHL1    C4 8923   5.853   5.279   7.052 -0.3746 -0.0186 -0.0550
   88CHL1   H4A 8924   5.950   5.256   7.004 -0.4980  1.2265 -0.9539
   88CHL1   H4B 8925   5.838   5.385   7.019 -1.8630 -0.9096 -2.5162
   88CHL1    C5 8926   5.862   5.280   7.201 -0.5611  0.8512  0.1869
   88CHL1    C6 8927   5.830   5.388   7.268 -0.1159  0.3224 -0.5204
   88CHL1    H6 8928   5.799   5.483   7.221  0.3082  0.2520 -0.9426
   88CHL1    C7 8929   5.840   5.393   7.421 -0.4421 -0.2111  0.0098
   88CHL1   H7A 8930   5.870   5.490   7.467  4.1595 -1.3481 -0.1084
   88CHL1   H7B 8931   5.734   5.394   7.454 -0.6112  0.9622 -0.5232
   88CHL1    C8 8932   5.927   5.279   7.475 -0.0583 -0.2503 -0.6945
   88CHL1    H8 8933   6.030   5.280   7.432 -0.7449  2.0823 -2.5295
   88CHL1   C14 8934   5.911   5.277   7.630  0.0354  0.1985  0.2138
   88CHL1   H14 8935   5.804   5.252   7.648  0.8010 -2.1598  1.8899
   88CHL1   C15 8936   5.935   5.403   7.709  0.0083 -0.2882  0.8840
   88CHL1  H15A 8937   6.029   5.443   7.663  0.3324 -1.3392  0.6195
   88CHL1  H15B 8938   5.851   5.475   7.700 -1.2593 -1.6710  1.3491
   88CHL1   C16 8939   5.954   5.362   7.853  0.7679  0.4534 -0.1606
   88CHL1  H16A 8940   6.052   5.405   7.881  1.3003 -0.6244 -0.3148
   88CHL1  H16B 8941   5.866   5.399   7.911 -1.0777 -0.9585 -1.8928
   88CHL1   C17 8942   5.954   5.206   7.855 -0.5449  0.0708 -0.3146
   88CHL1   H17 8943   5.848   5.175   7.868 -0.1794 -0.1351  2.8705
   88CHL1   C13 8944   5.982   5.170   7.705 -0.4322  0.1756  0.5229
   88CHL1   C18 8945   6.139   5.185   7.684  0.6205 -0.2935 -0.2365
   88CHL1  H18A 8946   6.175   5.201   7.580  0.9573  1.2140  0.0915
   88CHL1  H18B 8947   6.167   5.271   7.748 -0.6578 -2.0026  2.8397
   88CHL1  H18C 8948   6.197   5.101   7.729 -0.6318  0.0274  2.1375
   88CHL1   C12 8949   5.927   5.034   7.652  0.1940 -1.0213 -0.5753
   88CHL1  H12A 8950   5.966   4.949   7.712 -1.3079 -0.1504  1.7749
   88CHL1  H12B 8951   5.818   5.030   7.673  0.0860  1.3462 -0.5030
   88CHL1   C11 8952   5.952   5.024   7.500  0.4138  0.8591 -0.1486
   88CHL1  H11A 8953   6.059   5.029   7.473 -0.0548  0.1873 -2.3255
   88CHL1  H11B 8954   5.908   4.926   7.471  0.6259  0.6346  0.2774
   88CHL1    C9 8955   5.878   5.140   7.422  0.8965 -0.1293 -0.7121
   88CHL1    H9 8956   5.774   5.124   7.457  1.4731  1.4395  2.0312
   88CHL1   C10 8957   5.887   5.142   7.267  0.2643 -0.2025 -0.3269
   88CHL1   C19 8958   6.028   5.097   7.232  0.0707  0.3458 -0.8851
   88CHL1  H19A 8959   6.043   4.991   7.261  0.4054  0.1511 -1.7159
   88CHL1  H19B 8960   6.039   5.095   7.121 -1.9978  0.3331 -1.1271
   88CHL1  H19C 8961   6.106   5.156   7.285  2.2911  1.1252 -4.6160
   88CHL1    C1 8962   5.780   5.056   7.199  0.3293  0.0121 -0.1951
   88CHL1   H1A 8963   5.806   4.952   7.228 -3.0268 -0.6258  0.9805
   88CHL1   H1B 8964   5.680   5.078   7.243 -0.4808 -1.2572 -1.3343
   88CHL1    C2 8965   5.760   5.051   7.051  0.2507  0.1138  0.4144
   88CHL1   H2A 8966   5.671   4.992   7.019  0.5353 -0.0484 -0.0925
   88CHL1   H2B 8967   5.845   5.008   6.992 -0.3181  1.3555 -1.4017
   88CHL1   C20 8968   6.033   5.149   7.970 -1.0528 -0.2571 -0.1122
   88CHL1   H20 8969   6.137   5.188   7.977 -0.8633 -1.0311  2.4603
   88CHL1   C21 8970   6.031   4.996   7.954 -0.4982 -0.4159  0.0243
   88CHL1  H21A 8971   6.070   4.956   8.050 -1.4056 -1.6226 -0.0904
   88CHL1  H21B 8972   6.093   4.953   7.872 -0.0257 -2.2224  1.2552
   88CHL1  H21C 8973   5.930   4.950   7.946 -0.7657  0.0139  0.7988
   88CHL1   C22 8974   5.963   5.186   8.100  0.3081  0.4168 -0.4218
   88CHL1  H22A 8975   5.926   5.291   8.101 -0.3292  0.2109 -1.2145
   88CHL1  H22B 8976   5.876   5.117   8.107  0.2383  0.4367 -1.0100
   88CHL1   C23 8977   6.044   5.182   8.234  0.6973 -0.3258 -0.0528
   88CHL1  H23A 8978   6.144   5.211   8.195 -0.3448 -0.1325 -2.8101
   88CHL1  H23B 8979   6.002   5.251   8.310 -4.4223 -2.7681 -0.1793
   88CHL1   C24 8980   6.055   5.044   8.304 -0.3487 -0.2599  0.6222
   88CHL1  H24A 8981   5.959   4.988   8.300 -1.7229  2.0309 -0.2819
   88CHL1  H24B 8982   6.134   4.982   8.256  0.8030 -0.0873  2.2125
   88CHL1   C25 8983   6.101   5.048   8.455 -0.8233 -0.3373 -0.0722
   88CHL1   H25 8984   6.024   5.108   8.507  0.0331 -0.7103  1.7024
   88CHL1   C26 8985   6.126   4.912   8.521  0.3926  0.0104 -1.0814
   88CHL1  H26A 8986   6.136   4.924   8.631  1.7982  0.8456 -1.2824
   88CHL1  H26B 8987   6.037   4.848   8.503  0.3371  0.1177 -1.1887
   88CHL1  H26C 8988   6.209   4.857   8.472  0.5627 -0.1235 -0.6464
   88CHL1   C27 8989   6.235   5.130   8.473 -0.3323 -0.2682 -0.4106
   88CHL1  H27A 8990   6.221   5.238   8.451 -1.9193 -0.7341 -1.9547
   88CHL1  H27B 8991   6.265   5.114   8.578 -2.0082 -1.7734 -0.0957
   88CHL1  H27C 8992   6.316   5.092   8.407 -1.1184 -3.0432  0.0940
   89CHL1    C3 8993   2.302   2.813   6.805  0.2408  0.1023  0.0378
   89CHL1    H3 8994   2.392   2.851   6.857  1.2836 -1.4938 -0.5294
   89CHL1    O3 8995   2.353   2.744   6.693  0.0446 -0.1108  0.0062
   89CHL1   H3' 8996   2.279   2.694   6.658  0.7684 -0.7060 -0.7092
   89CHL1    C4 8997   2.244   2.707   6.913 -0.5861  0.1968  0.8766
   89CHL1   H4A 8998   2.157   2.658   6.864  1.0043 -0.1135 -1.8372
   89CHL1   H4B 8999   2.327   2.633   6.921 -2.1595 -1.6076  1.3557
   89CHL1    C5 9000   2.204   2.780   7.034 -0.1917  0.6357  0.5118
   89CHL1    C6 9001   2.259   2.743   7.152  0.1561  0.6095  0.4179
   89CHL1    H6 9002   2.336   2.665   7.157 -0.7167 -0.2488  0.9316
   89CHL1    C7 9003   2.210   2.795   7.283  0.2105 -0.3175  0.0357
   89CHL1   H7A 9004   2.185   2.714   7.354 -0.2371  0.5918  0.9506
   89CHL1   H7B 9005   2.300   2.838   7.332  1.8001 -3.8834  0.5178
   89CHL1    C8 9006   2.094   2.896   7.275  0.3603 -0.1190 -0.1748
   89CHL1    H8 9007   2.006   2.830   7.260  0.3096 -0.1412  0.2114
   89CHL1   C14 9008   2.066   2.972   7.409 -0.2220 -0.0443 -0.0915
   89CHL1   H14 9009   2.149   3.045   7.416 -0.2434 -0.1470  1.8896
   89CHL1   C15 9010   2.066   2.908   7.548 -0.0407 -0.3957  0.3387
   89CHL1  H15A 9011   1.991   2.826   7.556 -1.1136  0.5919  0.5459
   89CHL1  H15B 9012   2.164   2.871   7.586  0.3760 -0.6313 -0.8997
   89CHL1   C16 9013   2.015   3.019   7.637 -0.1233 -0.4496  0.2529
   89CHL1  H16A 9014   1.947   2.969   7.708  1.5046 -1.2749  1.2965
   89CHL1  H16B 9015   2.097   3.062   7.699 -1.5229  1.9098  0.6091
   89CHL1   C17 9016   1.957   3.131   7.547  0.2366  0.2639  0.5231
   89CHL1   H17 9017   2.039   3.204   7.534  1.4223 -1.4076 -2.6055
   89CHL1   C13 9018   1.946   3.073   7.405 -0.9294 -0.4013 -0.4019
   89CHL1   C18 9019   1.816   2.987   7.387  0.3373  0.0725 -0.4049
   89CHL1  H18A 9020   1.824   2.919   7.299 -0.6549  0.4204 -0.7807
   89CHL1  H18B 9021   1.798   2.934   7.483  0.0687 -1.4325 -1.2563
   89CHL1  H18C 9022   1.736   3.063   7.372  1.5417  1.6082  0.6091
   89CHL1   C12 9023   1.969   3.175   7.287  0.1617  0.3416  0.1131
   89CHL1  H12A 9024   1.885   3.243   7.261 -1.0602 -0.3650  2.0021
   89CHL1  H12B 9025   2.055   3.239   7.314  1.6750 -1.3025 -0.6360
   89CHL1   C11 9026   2.008   3.103   7.149  0.3054  0.3475 -0.4074
   89CHL1  H11A 9027   1.912   3.061   7.112 -0.1306 -1.2633  2.2523
   89CHL1  H11B 9028   2.054   3.176   7.079 -0.4943  0.3936 -0.8913
   89CHL1    C9 9029   2.107   2.981   7.153 -0.1769  0.5869 -0.2905
   89CHL1    H9 9030   2.208   3.025   7.169  0.7364 -1.4698 -0.0760
   89CHL1   C10 9031   2.109   2.902   7.017 -0.6733  0.1491  0.8572
   89CHL1   C19 9032   1.969   2.852   6.975  0.5038 -0.5592 -0.1508
   89CHL1  H19A 9033   1.895   2.930   6.948  0.1486 -1.6365 -2.5184
   89CHL1  H19B 9034   1.971   2.792   6.882  0.5608 -0.7753 -0.0114
   89CHL1  H19C 9035   1.911   2.794   7.050 -0.8511  1.4493  0.4441
   89CHL1    C1 9036   2.168   2.991   6.899 -0.0465  0.5657 -0.6265
   89CHL1   H1A 9037   2.095   3.073   6.881 -0.0205  0.5763 -0.6885
   89CHL1   H1B 9038   2.252   3.042   6.951  0.6714 -1.8652  0.7323
   89CHL1    C2 9039   2.199   2.921   6.765 -0.1773  0.1551 -0.4801
   89CHL1   H2A 9040   2.234   2.997   6.691  0.1487 -0.4400 -0.9436
   89CHL1   H2B 9041   2.100   2.883   6.731  0.2537 -1.7054  0.2566
   89CHL1   C20 9042   1.833   3.197   7.613  0.2649 -0.6582  0.7527
   89CHL1   H20 9043   1.759   3.114   7.624 -0.2211 -0.0227  2.5467
   89CHL1   C21 9044   1.772   3.305   7.514 -0.0849 -0.2131 -0.5317
   89CHL1  H21A 9045   1.853   3.372   7.481  0.9514 -2.2194 -2.3300
   89CHL1  H21B 9046   1.692   3.367   7.560  1.7844  2.9662 -1.3449
   89CHL1  H21C 9047   1.735   3.246   7.427  1.7306 -1.6718 -0.3702
   89CHL1   C22 9048   1.841   3.251   7.757 -0.1455 -0.3820  0.5829
   89CHL1  H22A 9049   1.884   3.169   7.818 -0.5580 -0.3811  0.8800
   89CHL1  H22B 9050   1.903   3.343   7.769 -1.4269  0.8162 -1.4031
   89CHL1   C23 9051   1.701   3.275   7.804  0.2942  0.2668  0.6480
   89CHL1  H23A 9052   1.664   3.369   7.758  4.0216  0.5882 -2.0910
   89CHL1  H23B 9053   1.636   3.192   7.768  2.3271 -2.2993  2.4849
   89CHL1   C24 9054   1.692   3.294   7.959 -0.6405 -0.2077  0.8710
   89CHL1  H24A 9055   1.773   3.230   7.999  0.2676  0.0235 -0.5477
   89CHL1  H24B 9056   1.718   3.398   7.990 -1.7777  1.1503 -2.2723
   89CHL1   C25 9057   1.556   3.270   8.025  0.2433 -0.0294  0.0499
   89CHL1   H25 9058   1.525   3.184   7.961  0.9200 -0.9880  0.9886
   89CHL1   C26 9059   1.592   3.236   8.172 -0.1236 -0.2303  0.8550
   89CHL1  H26A 9060   1.655   3.317   8.214  2.5837 -0.9513 -1.5294
   89CHL1  H26B 9061   1.496   3.232   8.229 -1.1432  0.1564 -0.7555
   89CHL1  H26C 9062   1.650   3.142   8.178  1.0249  0.4936  1.5009
   89CHL1   C27 9063   1.470   3.395   8.015 -0.2628 -0.2904  0.3908
   89CHL1  H27A 9064   1.452   3.423   7.910  3.8347  3.2772  0.3902
   89CHL1  H27B 9065   1.376   3.376   8.072 -1.3197  0.3582 -1.0842
   89CHL1  H27C 9066   1.519   3.484   8.060  0.1104 -0.2880 -0.0245
   90CHL1    C3 9067   3.060   2.025   6.914 -0.6842  0.5362 -0.0847
   90CHL1    H3 9068   3.038   1.919   6.940  1.8906 -0.0969 -0.2189
   90CHL1    O3 9069   3.103   2.027   6.776  0.5526 -0.1835  0.4468
   90CHL1   H3' 9070   3.038   1.972   6.733  2.0468 -1.5539 -0.1526
   90CHL1    C4 9071   2.941   2.122   6.937  0.5878 -0.3364  0.0445
   90CHL1   H4A 9072   2.983   2.218   6.902  0.1875 -0.6188 -1.2533
   90CHL1   H4B 9073   2.853   2.095   6.875  1.4798 -0.5018 -1.1834
   90CHL1    C5 9074   2.900   2.132   7.084  0.1986  0.9956 -0.0185
   90CHL1    C6 9075   2.769   2.105   7.131  0.1913  0.8313 -0.5401
   90CHL1    H6 9076   2.685   2.080   7.064 -1.1174 -1.6397  1.8235
   90CHL1    C7 9077   2.735   2.112   7.274 -0.3946 -0.4801 -0.8325
   90CHL1   H7A 9078   2.633   2.153   7.291 -0.8993 -1.6922 -0.8245
   90CHL1   H7B 9079   2.742   2.014   7.328  0.0574 -0.5034 -0.9299
   90CHL1    C8 9080   2.837   2.195   7.361 -0.2109  0.0411  0.6589
   90CHL1    H8 9081   2.835   2.303   7.337  1.5129  0.1208  0.7935
   90CHL1   C14 9082   2.811   2.188   7.515 -0.4659 -0.0034  0.3262
   90CHL1   H14 9083   2.817   2.082   7.546 -0.2298  0.2503  1.1714
   90CHL1   C15 9084   2.662   2.243   7.548 -0.8580  0.3799  0.2199
   90CHL1  H15A 9085   2.644   2.333   7.485  0.9165 -0.3285 -1.3841
   90CHL1  H15B 9086   2.593   2.161   7.519 -2.4462  1.4953  0.7176
   90CHL1   C16 9087   2.684   2.279   7.699  0.2762  0.2927  0.3648
   90CHL1  H16A 9088   2.647   2.382   7.717 -1.6834 -0.2642 -0.1139
   90CHL1  H16B 9089   2.616   2.217   7.761  0.2672 -1.2436 -1.1077
   90CHL1   C17 9090   2.834   2.259   7.736 -0.3908  0.0732  0.2347
   90CHL1   H17 9091   2.854   2.151   7.754 -0.1837  0.3632  1.9947
   90CHL1   C13 9092   2.911   2.274   7.601  0.6775 -0.1406  0.2342
   90CHL1   C18 9093   2.930   2.427   7.565 -0.0427  0.3130 -0.9711
   90CHL1  H18A 9094   3.003   2.466   7.639 -0.3041 -0.4556 -0.2941
   90CHL1  H18B 9095   2.963   2.440   7.460 -1.0983 -0.4745 -1.4218
   90CHL1  H18C 9096   2.830   2.474   7.575  0.2469  1.5974 -3.3899
   90CHL1   C12 9097   3.045   2.190   7.582  0.2437 -0.0880  0.9741
   90CHL1  H12A 9098   3.124   2.257   7.623 -0.6606  2.2773 -0.8457
   90CHL1  H12B 9099   3.038   2.085   7.615 -3.4476 -0.7639 -1.3133
   90CHL1   C11 9100   3.095   2.179   7.429  1.0062  0.2254 -0.5993
   90CHL1  H11A 9101   3.116   2.285   7.403 -2.6257  0.6767 -2.4587
   90CHL1  H11B 9102   3.176   2.105   7.413 -0.9984 -2.4119  0.5801
   90CHL1    C9 9103   2.980   2.141   7.328  0.0854  0.0345 -0.2287
   90CHL1    H9 9104   2.963   2.032   7.346  2.2966 -0.2677  0.4053
   90CHL1   C10 9105   3.011   2.162   7.182  0.3359 -0.4136 -0.3328
   90CHL1   C19 9106   3.048   2.308   7.155  0.0536  0.3467  0.4439
   90CHL1  H19A 9107   2.967   2.373   7.194 -0.2116 -0.5710  1.4941
   90CHL1  H19B 9108   3.148   2.324   7.202  0.9141  2.4749 -1.8821
   90CHL1  H19C 9109   3.063   2.338   7.049 -3.0348  0.8000  0.0628
   90CHL1    C1 9110   3.141   2.072   7.151 -0.2583  0.2163  0.5203
   90CHL1   H1A 9111   3.231   2.104   7.207 -0.0095  1.0004 -0.3086
   90CHL1   H1B 9112   3.118   1.970   7.188  1.8567 -1.1519 -1.5774
   90CHL1    C2 9113   3.176   2.059   6.996 -0.1377 -0.5139 -0.2190
   90CHL1   H2A 9114   3.264   1.991   6.992 -0.3098 -0.7111 -0.7004
   90CHL1   H2B 9115   3.208   2.157   6.956 -1.3535 -0.9141 -2.2769
   90CHL1   C20 9116   2.869   2.341   7.856  0.1654  0.0636 -0.1269
   90CHL1   H20 9117   2.832   2.445   7.846  0.6341  0.3693  1.1344
   90CHL1   C21 9118   3.018   2.341   7.898  0.1642 -0.6879 -0.0785
   90CHL1  H21A 9119   3.080   2.374   7.811  0.2644 -0.8162 -0.0562
   90CHL1  H21B 9120   3.059   2.239   7.914  3.0930  0.0791 -1.7709
   90CHL1  H21C 9121   3.037   2.398   7.991  1.2392 -0.7984 -0.2114
   90CHL1   C22 9122   2.774   2.297   7.983  0.7281  0.4202  0.3671
   90CHL1  H22A 9123   2.668   2.301   7.949  0.9471 -1.6181 -0.7411
   90CHL1  H22B 9124   2.802   2.190   7.997  0.5473  0.0124 -2.0527
   90CHL1   C23 9125   2.784   2.363   8.122  0.2647  0.0140 -0.3303
   90CHL1  H23A 9126   2.705   2.327   8.190  1.7641  1.2996  2.2193
   90CHL1  H23B 9127   2.880   2.322   8.159 -0.6693 -2.1016 -0.1069
   90CHL1   C24 9128   2.767   2.518   8.124 -0.0255  0.4029  0.7954
   90CHL1  H24A 9129   2.832   2.571   8.050 -2.2215  0.4731 -1.2033
   90CHL1  H24B 9130   2.669   2.536   8.076 -0.3542  1.8616  1.9369
   90CHL1   C25 9131   2.783   2.572   8.271  0.2056  0.2258  0.4808
   90CHL1   H25 9132   2.752   2.490   8.339  1.3154 -1.2411 -0.7022
   90CHL1   C26 9133   2.926   2.615   8.306  0.5507 -0.1472 -0.3724
   90CHL1  H26A 9134   2.950   2.630   8.414  1.3426 -3.4308  0.0272
   90CHL1  H26B 9135   2.992   2.529   8.283 -1.8431 -2.0684 -0.4037
   90CHL1  H26C 9136   2.959   2.706   8.251 -3.0202  2.4019  1.2697
   90CHL1   C27 9137   2.700   2.698   8.291 -0.0242 -0.3699 -0.5710
   90CHL1  H27A 9138   2.592   2.676   8.294  0.0259 -0.5243  0.2727
   90CHL1  H27B 9139   2.719   2.740   8.392  1.3889  2.1327 -1.7678
   90CHL1  H27C 9140   2.727   2.772   8.212 -1.5085  1.6531  0.7062
   91CHL1    C3 9141   4.958   4.117   6.985  0.5908  0.0473 -0.5421
   91CHL1    H3 9142   5.051   4.172   7.012  0.9308 -0.6865 -0.1837
   91CHL1    O3 9143   4.967   4.090   6.853  0.8453  0.2195  0.4802
   91CHL1   H3' 9144   4.923   4.005   6.850  0.8024  0.2257  0.9710
   91CHL1    C4 9145   4.949   3.984   7.064 -0.4681 -0.2743 -0.2959
   91CHL1   H4A 9146   4.859   3.923   7.041 -0.6001 -0.3210  0.3365
   91CHL1   H4B 9147   5.035   3.921   7.033  1.2806  1.8038  0.1604
   91CHL1    C5 9148   4.976   4.022   7.210  0.0542  0.7164  0.5539
   91CHL1    C6 9149   5.084   3.993   7.280 -0.6695 -0.0376  0.0531
   91CHL1    H6 9150   5.168   3.942   7.232  0.7161  0.2368  2.0682
   91CHL1    C7 9151   5.094   4.021   7.426  0.1982  0.2136 -0.1668
   91CHL1   H7A 9152   5.118   3.922   7.470 -3.2806 -1.3406 -1.4130
   91CHL1   H7B 9153   5.181   4.088   7.444  1.0135  0.4356 -4.0581
   91CHL1    C8 9154   4.966   4.068   7.499 -0.6500  0.3710 -0.6305
   91CHL1    H8 9155   4.897   3.981   7.504 -1.0975  0.7913  0.8511
   91CHL1   C14 9156   4.993   4.125   7.633  0.4062  0.0871  0.2811
   91CHL1   H14 9157   5.058   4.216   7.629  0.1272  0.4693  2.6105
   91CHL1   C15 9158   5.068   4.044   7.741 -0.3950 -0.2089 -0.5663
   91CHL1  H15A 9159   5.035   3.938   7.739 -0.5775 -0.1437 -2.2335
   91CHL1  H15B 9160   5.174   4.042   7.709 -0.1954 -0.5764  0.1002
   91CHL1   C16 9161   5.047   4.125   7.870 -0.8781 -0.5123  0.8838
   91CHL1  H16A 9162   5.018   4.048   7.944 -0.7866 -1.2335  0.1885
   91CHL1  H16B 9163   5.129   4.189   7.909 -1.8542  0.9473  0.6076
   91CHL1   C17 9164   4.929   4.222   7.848 -0.0591 -0.0029 -0.8957
   91CHL1   H17 9165   4.962   4.326   7.824 -2.6510  0.6356 -2.0162
   91CHL1   C13 9166   4.869   4.172   7.714 -0.4089 -0.2694 -0.2072
   91CHL1   C18 9167   4.772   4.058   7.749 -0.3245 -0.3189 -0.1462
   91CHL1  H18A 9168   4.786   3.989   7.664  1.2238 -0.6240  0.3128
   91CHL1  H18B 9169   4.810   3.982   7.822 -3.5038 -2.1080 -0.1959
   91CHL1  H18C 9170   4.666   4.089   7.758 -0.5520 -0.5628 -1.7744
   91CHL1   C12 9171   4.801   4.277   7.624 -0.2596  0.5813  0.4377
   91CHL1  H12A 9172   4.707   4.308   7.674 -1.2393  3.9381 -3.0010
   91CHL1  H12B 9173   4.868   4.366   7.618  0.8959 -0.2612  0.5177
   91CHL1   C11 9174   4.775   4.224   7.484  0.4622  0.1371  0.8859
   91CHL1  H11A 9175   4.683   4.161   7.494 -0.7235  1.5740 -0.4319
   91CHL1  H11B 9176   4.739   4.312   7.426  2.2377 -0.2140 -0.8629
   91CHL1    C9 9177   4.901   4.168   7.405  0.2211 -0.2123 -0.2179
   91CHL1    H9 9178   4.970   4.254   7.391 -0.3492  0.3328  0.2681
   91CHL1   C10 9179   4.859   4.106   7.266  0.3529  0.2072 -0.7334
   91CHL1   C19 9180   4.743   4.006   7.278  0.1355  0.0098  0.3673
   91CHL1  H19A 9181   4.740   3.933   7.361  0.5179  1.1046  1.3657
   91CHL1  H19B 9182   4.645   4.058   7.274 -0.0611 -0.2781  1.2747
   91CHL1  H19C 9183   4.730   3.949   7.183 -0.8897 -0.9723  1.0639
   91CHL1    C1 9184   4.830   4.228   7.172 -1.5388 -0.2902 -0.5534
   91CHL1   H1A 9185   4.737   4.279   7.204  0.0130  2.2806  0.1222
   91CHL1   H1B 9186   4.913   4.298   7.192  0.1760 -2.1031 -0.9923
   91CHL1    C2 9187   4.831   4.200   7.026 -0.2447  0.2049 -0.2244
   91CHL1   H2A 9188   4.833   4.290   6.960  1.7054  0.8380  0.6544
   91CHL1   H2B 9189   4.741   4.143   6.994  0.1911 -0.4326 -0.3259
   91CHL1   C20 9190   4.842   4.236   7.978  0.7142 -0.4403 -0.1193
   91CHL1   H20 9191   4.801   4.134   7.994 -0.0716  0.1498  1.9208
   91CHL1   C21 9192   4.726   4.338   7.961  0.0168  0.0293 -0.1121
   91CHL1  H21A 9193   4.757   4.445   7.969  1.3348 -0.2701 -0.8592
   91CHL1  H21B 9194   4.650   4.319   8.040 -0.0006  0.5631  0.0034
   91CHL1  H21C 9195   4.672   4.331   7.865 -0.4098 -0.0951  0.1335
   91CHL1   C22 9196   4.922   4.261   8.108 -0.4598  0.4725 -0.2623
   91CHL1  H22A 9197   5.008   4.192   8.124  0.0874  0.9006 -1.2042
   91CHL1  H22B 9198   4.959   4.365   8.107  0.4824  0.2112  2.2772
   91CHL1   C23 9199   4.838   4.256   8.232  0.2020 -0.2794 -0.1553
   91CHL1  H23A 9200   4.759   4.334   8.219  1.4789  1.1023  0.0488
   91CHL1  H23B 9201   4.786   4.159   8.222  0.6864 -0.5279 -0.2832
   91CHL1   C24 9202   4.913   4.282   8.360  0.9224  0.2012  0.4465
   91CHL1  H24A 9203   5.016   4.239   8.353  0.7862 -0.0455 -0.0716
   91CHL1  H24B 9204   4.937   4.390   8.367  2.5479 -0.1297  0.2994
   91CHL1   C25 9205   4.848   4.242   8.491 -0.1332 -0.2428 -0.3724
   91CHL1   H25 9206   4.745   4.282   8.488 -0.7679 -1.4418  2.2864
   91CHL1   C26 9207   4.848   4.090   8.514 -0.0391 -0.5627  0.5250
   91CHL1  H26A 9208   4.792   4.036   8.435 -0.7205  1.0700 -0.1491
   91CHL1  H26B 9209   4.954   4.055   8.516  2.1977  5.0446 -0.9005
   91CHL1  H26C 9210   4.802   4.066   8.612  1.4421  4.4895  2.7526
   91CHL1   C27 9211   4.919   4.315   8.609 -0.1564 -0.0047 -0.5055
   91CHL1  H27A 9212   4.888   4.277   8.708  0.3944  0.1607 -0.2661
   91CHL1  H27B 9213   5.029   4.311   8.619 -0.1253  2.8847  1.8129
   91CHL1  H27C 9214   4.896   4.423   8.597  2.8575  0.7651 -0.2265
   92CHL1    C3 9215   0.692   6.185   6.760  0.1400  0.0726 -0.5590
   92CHL1    H3 9216   0.583   6.203   6.770  0.3060  0.5928  0.4893
   92CHL1    O3 9217   0.726   6.179   6.625  0.2573 -0.0346 -0.3393
   92CHL1   H3' 9218   0.813   6.141   6.612  1.7646  2.6143  1.2732
   92CHL1    C4 9219   0.772   6.292   6.837  0.2490 -0.3327 -0.8163
   92CHL1   H4A 9220   0.877   6.263   6.812  0.2077  0.7883 -2.4296
   92CHL1   H4B 9221   0.760   6.394   6.795  1.0691  0.8259  1.5798
   92CHL1    C5 9222   0.749   6.299   6.989  0.1724 -0.2719 -0.0949
   92CHL1    C6 9223   0.713   6.410   7.049 -0.5105 -0.1221  0.3586
   92CHL1    H6 9224   0.702   6.501   6.988 -0.4016  0.3496  1.0332
   92CHL1    C7 9225   0.724   6.426   7.199  0.6367  0.8811 -0.1867
   92CHL1   H7A 9226   0.774   6.522   7.223 -1.3360  1.7244  0.8078
   92CHL1   H7B 9227   0.616   6.437   7.221  0.3958  0.2131 -0.9972
   92CHL1    C8 9228   0.782   6.301   7.272 -0.7094  0.1942  0.2746
   92CHL1    H8 9229   0.892   6.320   7.269 -0.7446  0.3931 -2.4021
   92CHL1   C14 9230   0.752   6.298   7.422 -0.2945  0.4089  0.5981
   92CHL1   H14 9231   0.641   6.291   7.431 -0.3434  0.4188  0.0500
   92CHL1   C15 9232   0.779   6.427   7.498  0.0677 -0.1889 -0.1923
   92CHL1  H15A 9233   0.873   6.482   7.480  1.2122 -0.7456  3.3124
   92CHL1  H15B 9234   0.692   6.494   7.480  0.3014 -0.1743 -1.3833
   92CHL1   C16 9235   0.791   6.376   7.640  0.2623  0.0536 -0.5229
   92CHL1  H16A 9236   0.899   6.392   7.659 -0.0483 -0.3762  2.0240
   92CHL1  H16B 9237   0.720   6.432   7.705 -0.8859 -0.5967 -1.1848
   92CHL1   C17 9238   0.774   6.219   7.635 -0.0105  0.3873 -0.0183
   92CHL1   H17 9239   0.664   6.208   7.642 -0.1086  0.7414 -0.9059
   92CHL1   C13 9240   0.804   6.175   7.492  0.0104  0.0223 -0.3225
   92CHL1   C18 9241   0.959   6.169   7.481  0.9076  0.1206 -0.3382
   92CHL1  H18A 9242   0.998   6.080   7.534 -1.6367 -1.0687 -0.2951
   92CHL1  H18B 9243   0.985   6.165   7.374 -1.0517 -1.1918 -0.8172
   92CHL1  H18C 9244   0.999   6.262   7.527 -1.9339  0.6466  1.3283
   92CHL1   C12 9245   0.728   6.055   7.435  0.1516 -0.6391 -0.4606
   92CHL1  H12A 9246   0.752   5.962   7.490 -2.9578 -1.3901 -0.2029
   92CHL1  H12B 9247   0.617   6.062   7.437  0.0979 -1.5235 -0.1568
   92CHL1   C11 9248   0.769   6.038   7.289  0.1132 -0.3437  0.8840
   92CHL1  H11A 9249   0.874   6.009   7.269  0.5061  1.7559 -0.4508
   92CHL1  H11B 9250   0.705   5.960   7.243 -1.8509  1.4533  0.3803
   92CHL1    C9 9251   0.743   6.170   7.206 -0.8407  0.0742  0.1643
   92CHL1    H9 9252   0.633   6.180   7.217 -0.9454 -0.6451 -0.1545
   92CHL1   C10 9253   0.782   6.165   7.057  0.5123 -0.0824 -0.3162
   92CHL1   C19 9254   0.936   6.138   7.045  0.2704  0.2880  0.0085
   92CHL1  H19A 9255   0.999   6.194   7.118 -0.8817 -0.6773  1.8011
   92CHL1  H19B 9256   0.965   6.032   7.062 -1.1029  0.2382  2.6046
   92CHL1  H19C 9257   0.965   6.158   6.940  0.0710  0.7305  0.0330
   92CHL1    C1 9258   0.702   6.053   6.985 -0.1973 -0.8291 -0.3687
   92CHL1   H1A 9259   0.739   5.958   7.029  0.5195 -0.4437 -0.1295
   92CHL1   H1B 9260   0.593   6.060   7.002  0.2106  2.3788  1.7011
   92CHL1    C2 9261   0.727   6.046   6.827 -0.2009  0.8890 -0.0999
   92CHL1   H2A 9262   0.658   5.970   6.784  1.4411 -1.2875  0.8968
   92CHL1   H2B 9263   0.824   6.006   6.790 -1.7650 -4.0981  0.3802
   92CHL1   C20 9264   0.842   6.146   7.754 -0.1485 -0.2948  0.4496
   92CHL1   H20 9265   0.952   6.155   7.746 -0.1201  0.8832  1.9063
   92CHL1   C21 9266   0.809   6.000   7.761  0.3712  0.4735 -0.9294
   92CHL1  H21A 9267   0.881   5.938   7.704  0.0683 -2.2993  1.5030
   92CHL1  H21B 9268   0.709   5.971   7.721 -1.1224  0.2450  2.6323
   92CHL1  H21C 9269   0.829   5.961   7.863 -2.0429  0.9347 -0.2089
   92CHL1   C22 9270   0.809   6.217   7.886  0.6491  0.4155 -0.8400
   92CHL1  H22A 9271   0.825   6.326   7.875 -2.0621  0.8383 -1.4533
   92CHL1  H22B 9272   0.698   6.211   7.897  0.6820  0.6547 -0.3801
   92CHL1   C23 9273   0.889   6.177   8.003  1.2892  0.1251  0.1084
   92CHL1  H23A 9274   0.906   6.067   8.014 -2.7662 -0.5103  1.9508
   92CHL1  H23B 9275   0.991   6.221   7.990  2.0348 -2.1979 -3.3395
   92CHL1   C24 9276   0.836   6.235   8.137  0.4545 -0.3689  0.0766
   92CHL1  H24A 9277   0.909   6.239   8.221 -0.7660 -1.6665  1.2571
   92CHL1  H24B 9278   0.822   6.345   8.125  1.4989 -0.1995  0.3045
   92CHL1   C25 9279   0.700   6.178   8.196  0.3053 -0.0193 -0.3472
   92CHL1   H25 9280   0.628   6.203   8.116 -0.4597  0.1389  0.3724
   92CHL1   C26 9281   0.704   6.025   8.214  0.0528  0.1738  0.2075
   92CHL1  H26A 9282   0.790   5.993   8.276 -1.4232 -0.8080  1.8237
   92CHL1  H26B 9283   0.606   5.983   8.245  1.0635 -2.1905  0.3684
   92CHL1  H26C 9284   0.739   5.973   8.122  0.3415 -0.5687  0.7270
   92CHL1   C27 9285   0.656   6.249   8.330  0.1263 -1.1432 -0.4224
   92CHL1  H27A 9286   0.550   6.240   8.361  0.4259 -2.4406  0.2883
   92CHL1  H27B 9287   0.713   6.205   8.415  2.3423 -2.8369 -2.6163
   92CHL1  H27C 9288   0.679   6.357   8.339 -2.1662 -0.7462  1.6289
   93CHL1    C3 9289   0.816   4.720   6.713  0.3651 -0.1269 -1.0010
   93CHL1    H3 9290   0.786   4.827   6.724 -2.3202 -0.9696  0.4772
   93CHL1    O3 9291   0.857   4.697   6.584  0.6629  0.6004  0.4022
   93CHL1   H3' 9292   0.792   4.742   6.528  1.1287  0.2313 -0.4608
   93CHL1    C4 9293   0.925   4.687   6.810  0.1948 -0.6076 -0.4731
   93CHL1   H4A 9294   0.971   4.587   6.792  0.2497 -0.5530 -0.6333
   93CHL1   H4B 9295   1.005   4.761   6.787  2.2521 -2.6277 -0.2320
   93CHL1    C5 9296   0.865   4.692   6.951 -0.9348  0.9111  0.1441
   93CHL1    C6 9297   0.927   4.767   7.048  0.2888  0.4064 -0.1460
   93CHL1    H6 9298   1.026   4.808   7.025 -0.3366  1.9985 -0.1473
   93CHL1    C7 9299   0.882   4.762   7.190 -0.1225 -0.2588  0.2761
   93CHL1   H7A 9300   0.976   4.735   7.241  1.8102  2.2414 -1.6831
   93CHL1   H7B 9301   0.858   4.866   7.221 -1.3480  0.4640 -2.6716
   93CHL1    C8 9302   0.766   4.659   7.219 -0.1789  0.5525 -0.5464
   93CHL1    H8 9303   0.808   4.556   7.232 -0.3478  0.5738  0.1987
   93CHL1   C14 9304   0.712   4.687   7.356  0.1845  0.1476 -0.1688
   93CHL1   H14 9305   0.652   4.778   7.337 -2.1602 -1.7591 -2.6854
   93CHL1   C15 9306   0.808   4.722   7.473  0.3607  0.5097  0.1284
   93CHL1  H15A 9307   0.879   4.637   7.469  0.7486  0.8209 -3.2481
   93CHL1  H15B 9308   0.867   4.816   7.469  0.4965  0.4669  0.9452
   93CHL1   C16 9309   0.718   4.708   7.598 -0.1473  0.3985 -0.3472
   93CHL1  H16A 9310   0.747   4.628   7.669 -1.8939 -0.4343 -0.5064
   93CHL1  H16B 9311   0.700   4.809   7.641  0.0953  0.3591 -0.1542
   93CHL1   C17 9312   0.575   4.648   7.548  0.3193 -0.5752 -0.0561
   93CHL1   H17 9313   0.504   4.733   7.540 -0.1503 -1.1326 -2.4848
   93CHL1   C13 9314   0.608   4.590   7.405 -0.1020  0.2759  0.5621
   93CHL1   C18 9315   0.665   4.446   7.414  0.7760  0.0189  1.0265
   93CHL1  H18A 9316   0.694   4.403   7.316 -3.0956  0.5726 -0.5080
   93CHL1  H18B 9317   0.758   4.446   7.475  0.6216  2.4233  1.3807
   93CHL1  H18C 9318   0.584   4.383   7.455  0.2543 -1.0851 -1.5479
   93CHL1   C12 9319   0.497   4.580   7.293  0.7503  0.0567  0.1106
   93CHL1  H12A 9320   0.421   4.503   7.321 -3.4076  3.3727 -0.9064
   93CHL1  H12B 9321   0.449   4.680   7.292  3.1702  1.2701 -0.2857
   93CHL1   C11 9322   0.545   4.548   7.151  0.1594  0.2661  0.1290
   93CHL1  H11A 9323   0.586   4.445   7.145  0.4378  0.3549  0.5192
   93CHL1  H11B 9324   0.468   4.561   7.072 -2.5704 -1.9416  2.2328
   93CHL1    C9 9325   0.665   4.649   7.108  1.1102  0.4249 -0.2632
   93CHL1    H9 9326   0.604   4.742   7.097  0.0692 -0.1226  0.6859
   93CHL1   C10 9327   0.734   4.615   6.975 -0.0268  0.2603  0.0400
   93CHL1   C19 9328   0.785   4.470   6.981 -0.9455 -0.1812  0.4115
   93CHL1  H19A 9329   0.695   4.405   6.975 -0.1384 -1.4809  1.8217
   93CHL1  H19B 9330   0.846   4.445   6.892  0.5208  0.5746  1.1689
   93CHL1  H19C 9331   0.846   4.450   7.072  0.2341 -0.1740 -0.3644
   93CHL1    C1 9332   0.637   4.642   6.865 -0.0024  0.1989 -0.4394
   93CHL1   H1A 9333   0.556   4.571   6.892  2.5457 -1.8910  2.3016
   93CHL1   H1B 9334   0.596   4.746   6.865  2.8823  1.4270 -0.5869
   93CHL1    C2 9335   0.695   4.624   6.731  0.6185  0.1714 -0.1197
   93CHL1   H2A 9336   0.617   4.643   6.654  0.2973  1.6823  0.5373
   93CHL1   H2B 9337   0.733   4.521   6.717  1.3741  0.2181  1.3066
   93CHL1   C20 9338   0.516   4.556   7.656  0.0957 -0.4806 -0.8139
   93CHL1   H20 9339   0.589   4.474   7.677 -2.0790 -2.9168 -2.1210
   93CHL1   C21 9340   0.382   4.500   7.598  0.1213  0.2927  0.4439
   93CHL1  H21A 9341   0.398   4.420   7.524 -0.5171 -1.2981  1.9571
   93CHL1  H21B 9342   0.328   4.585   7.550 -1.6282 -0.5862  0.8046
   93CHL1  H21C 9343   0.320   4.452   7.677  1.9362 -2.3695  0.3640
   93CHL1   C22 9344   0.495   4.634   7.793  0.0856  0.1495 -1.1146
   93CHL1  H22A 9345   0.594   4.678   7.817  0.2730  0.1595 -1.9009
   93CHL1  H22B 9346   0.434   4.726   7.787  2.0380  1.9255  2.7403
   93CHL1   C23 9347   0.444   4.561   7.919  1.1514 -0.0625 -0.3867
   93CHL1  H23A 9348   0.337   4.531   7.909  0.8234  0.1763  1.9231
   93CHL1  H23B 9349   0.504   4.470   7.943  2.0522  0.9777  1.5106
   93CHL1   C24 9350   0.451   4.644   8.053  0.4383  0.3836 -0.2615
   93CHL1  H24A 9351   0.559   4.669   8.063 -0.2168  3.0422  0.9607
   93CHL1  H24B 9352   0.401   4.743   8.043 -2.1634 -0.7204  0.8969
   93CHL1   C25 9353   0.385   4.584   8.177 -0.6031  0.2072 -0.1229
   93CHL1   H25 9354   0.281   4.558   8.148 -0.4244 -2.0711  1.0150
   93CHL1   C26 9355   0.457   4.451   8.229  0.1422  0.0999 -0.0142
   93CHL1  H26A 9356   0.399   4.404   8.311  1.7035 -2.9055 -0.4937
   93CHL1  H26B 9357   0.455   4.369   8.154 -1.2397  1.7563 -1.9030
   93CHL1  H26C 9358   0.560   4.480   8.258  1.0029 -2.7380  0.0765
   93CHL1   C27 9359   0.386   4.681   8.300  0.0590  0.2404  0.3685
   93CHL1  H27A 9360   0.326   4.772   8.276 -0.6341 -0.3395 -0.1427
   93CHL1  H27B 9361   0.339   4.633   8.389  2.7144 -0.8514  1.2578
   93CHL1  H27C 9362   0.484   4.727   8.322 -0.6698  1.5010  1.0809
   94CHL1    C3 9363   3.003   6.633   6.789 -0.6506  0.1163  0.7193
   94CHL1    H3 9364   2.985   6.532   6.832 -0.7533  0.7359  2.1689
   94CHL1    O3 9365   3.036   6.613   6.653 -0.3432  0.4328 -0.0447
   94CHL1   H3' 9366   3.068   6.523   6.654  0.1251  0.5952  0.7370
   94CHL1    C4 9367   2.880   6.717   6.800  0.1367  0.3301 -0.1639
   94CHL1   H4A 9368   2.904   6.813   6.749  1.9657  0.6215  1.1071
   94CHL1   H4B 9369   2.809   6.665   6.734 -1.2137  1.5592  0.2681
   94CHL1    C5 9370   2.839   6.730   6.944  0.3336  0.5125  0.5614
   94CHL1    C6 9371   2.717   6.693   6.988  0.5446 -0.7970 -0.3742
   94CHL1    H6 9372   2.637   6.659   6.921 -2.6756 -0.0551  2.8081
   94CHL1    C7 9373   2.673   6.709   7.136 -0.5495 -0.1413 -0.3862
   94CHL1   H7A 9374   2.571   6.749   7.152  0.0319  1.1045  0.3350
   94CHL1   H7B 9375   2.668   6.606   7.177  0.0076 -0.1318 -0.2911
   94CHL1    C8 9376   2.771   6.813   7.204 -0.7904 -0.4520  0.3715
   94CHL1    H8 9377   2.744   6.919   7.185 -2.0797 -0.1612  3.1972
   94CHL1   C14 9378   2.744   6.821   7.351 -0.1706  0.3242 -0.3498
   94CHL1   H14 9379   2.758   6.716   7.386  0.5455  0.2304 -0.8842
   94CHL1   C15 9380   2.611   6.850   7.409  0.3178 -0.2945  0.8264
   94CHL1  H15A 9381   2.562   6.933   7.355  1.8326 -0.6465 -1.2135
   94CHL1  H15B 9382   2.545   6.761   7.402 -2.2957  1.4872  1.4477
   94CHL1   C16 9383   2.629   6.861   7.556  0.3635  0.6316 -0.4620
   94CHL1  H16A 9384   2.575   6.947   7.599 -0.1441 -0.8823  2.1249
   94CHL1  H16B 9385   2.594   6.768   7.605 -1.3104  1.7277  0.5298
   94CHL1   C17 9386   2.785   6.880   7.580 -0.7994  0.4887 -0.9327
   94CHL1   H17 9387   2.829   6.782   7.611 -2.0205  0.0137 -0.6581
   94CHL1   C13 9388   2.835   6.908   7.437 -0.0440  0.3109  0.4197
   94CHL1   C18 9389   2.809   7.056   7.417 -0.2665  0.0830 -0.4094
   94CHL1  H18A 9390   2.816   7.083   7.309 -0.1099 -0.6285 -0.5874
   94CHL1  H18B 9391   2.713   7.090   7.460  0.0858 -1.0034  1.3426
   94CHL1  H18C 9392   2.895   7.105   7.468  0.7857 -0.5035 -1.5682
   94CHL1   C12 9393   2.985   6.863   7.411 -0.3785 -0.0531 -0.2143
   94CHL1  H12A 9394   3.050   6.934   7.467 -1.7733 -0.0972  1.5600
   94CHL1  H12B 9395   2.994   6.757   7.443 -0.8366  0.1256  0.5291
   94CHL1   C11 9396   3.013   6.876   7.265  0.1490 -0.3658 -0.0360
   94CHL1  H11A 9397   3.014   6.984   7.237 -0.9672 -0.4772 -0.5806
   94CHL1  H11B 9398   3.118   6.848   7.240  0.8418  2.9603 -1.4032
   94CHL1    C9 9399   2.919   6.787   7.178 -0.5354 -0.1518 -0.1516
   94CHL1    H9 9400   2.931   6.682   7.212 -0.2876 -0.4820 -1.2168
   94CHL1   C10 9401   2.954   6.791   7.027 -0.8527  0.2399  0.0940
   94CHL1   C19 9402   2.980   6.933   6.983  0.0480 -0.1676 -0.7694
   94CHL1  H19A 9403   2.996   6.959   6.877  0.6682 -0.9013 -0.8599
   94CHL1  H19B 9404   2.899   7.000   7.021  0.6700  0.3408 -0.3110
   94CHL1  H19C 9405   3.078   6.959   7.029 -0.1264 -1.5707  0.4756
   94CHL1    C1 9406   3.089   6.706   7.013 -0.8362  0.1531  0.0793
   94CHL1   H1A 9407   3.173   6.760   7.061 -0.6483  1.5515 -1.7197
   94CHL1   H1B 9408   3.076   6.605   7.058 -0.2736 -0.2107 -0.5534
   94CHL1    C2 9409   3.129   6.690   6.864  0.1916 -0.2858  0.0645
   94CHL1   H2A 9410   3.206   6.615   6.837  0.9559  0.2404  0.7410
   94CHL1   H2B 9411   3.154   6.789   6.819 -2.2903 -0.3996 -1.7459
   94CHL1   C20 9412   2.819   6.980   7.694  1.3525 -0.2468  0.3507
   94CHL1   H20 9413   2.787   7.081   7.659  1.8362 -1.0873 -2.7763
   94CHL1   C21 9414   2.974   6.993   7.707  0.1269  0.9865 -0.3266
   94CHL1  H21A 9415   3.020   6.902   7.663 -0.1067 -0.1636  1.6842
   94CHL1  H21B 9416   3.006   6.994   7.814  1.7459  1.3125 -0.7927
   94CHL1  H21C 9417   3.016   7.088   7.668  0.7794  1.7461  2.0096
   94CHL1   C22 9418   2.758   6.941   7.829 -0.1856 -0.1418 -0.2799
   94CHL1  H22A 9419   2.649   6.926   7.814 -0.4670  1.6870 -0.1979
   94CHL1  H22B 9420   2.802   6.844   7.863  0.8116 -0.6670 -2.8150
   94CHL1   C23 9421   2.785   7.046   7.941  0.4835  0.2568  0.0092
   94CHL1  H23A 9422   2.874   7.018   8.002 -0.4674  1.8422  2.2924
   94CHL1  H23B 9423   2.819   7.142   7.898  2.5663  0.1070  1.1395
   94CHL1   C24 9424   2.667   7.074   8.038  0.2559 -0.3993 -0.2445
   94CHL1  H24A 9425   2.585   7.139   7.998  0.5290 -0.2275 -0.5265
   94CHL1  H24B 9426   2.621   6.974   8.053 -0.6310  0.0164 -0.1344
   94CHL1   C25 9427   2.709   7.138   8.168 -0.1184 -0.1006  0.0532
   94CHL1   H25 9428   2.780   7.062   8.207 -1.4928 -0.9222  1.0531
   94CHL1   C26 9429   2.770   7.278   8.144 -0.5712 -0.3050 -0.4904
   94CHL1  H26A 9430   2.688   7.345   8.110 -1.9219 -1.0696  1.0787
   94CHL1  H26B 9431   2.810   7.306   8.244 -2.1724  0.3135  0.0071
   94CHL1  H26C 9432   2.856   7.286   8.074 -0.1336  0.2639  0.1039
   94CHL1   C27 9433   2.592   7.130   8.263 -0.4997  0.4748  0.5908
   94CHL1  H27A 9434   2.575   7.022   8.281 -0.6044 -0.1463 -2.6758
   94CHL1  H27B 9435   2.616   7.166   8.366 -0.4899 -0.2174  0.8363
   94CHL1  H27C 9436   2.503   7.182   8.223 -0.0846  1.2061  0.5761
   95CHL1    C3 9437   1.824   6.412   6.561 -0.2044 -0.5283  0.3164
   95CHL1    H3 9438   1.935   6.418   6.564 -0.2551  0.0347  1.6594
   95CHL1    O3 9439   1.782   6.389   6.427 -0.0846  0.9036  0.3600
   95CHL1   H3' 9440   1.769   6.294   6.426 -0.4865  0.9464 -0.8702
   95CHL1    C4 9441   1.774   6.311   6.659  0.1413 -0.2772 -0.1986
   95CHL1   H4A 9442   1.665   6.311   6.640  0.1113 -0.1782 -0.0285
   95CHL1   H4B 9443   1.810   6.210   6.631 -2.2767 -0.8785 -1.3845
   95CHL1    C5 9444   1.791   6.352   6.804  0.0208 -0.0342  0.1524
   95CHL1    C6 9445   1.864   6.273   6.886 -0.0371 -0.1517 -0.1774
   95CHL1    H6 9446   1.917   6.185   6.847  0.4863  0.2721 -0.4308
   95CHL1    C7 9447   1.885   6.302   7.034  0.0385 -0.5013  0.2217
   95CHL1   H7A 9448   1.880   6.209   7.096 -1.7964  0.7020  1.9873
   95CHL1   H7B 9449   1.985   6.349   7.043 -0.5835  0.4992  3.3055
   95CHL1    C8 9450   1.788   6.402   7.093  0.6164  0.1126 -0.0655
   95CHL1    H8 9451   1.688   6.356   7.110  1.5195 -2.0530 -0.4157
   95CHL1   C14 9452   1.843   6.449   7.225  0.4641 -0.2353 -0.2257
   95CHL1   H14 9453   1.940   6.499   7.205  0.6292  0.3373  1.7576
   95CHL1   C15 9454   1.879   6.344   7.331  0.0921  0.7898 -0.5909
   95CHL1  H15A 9455   1.803   6.264   7.333  0.3550  0.5243  1.9810
   95CHL1  H15B 9456   1.979   6.300   7.314 -1.1164 -1.5347 -2.1831
   95CHL1   C16 9457   1.872   6.430   7.460  0.0041 -0.2706 -1.1332
   95CHL1  H16A 9458   1.804   6.364   7.519  0.5262  1.9043  2.1596
   95CHL1  H16B 9459   1.970   6.426   7.511 -0.7564 -1.6203  0.3150
   95CHL1   C17 9460   1.832   6.573   7.426  0.7661  0.5940 -0.7638
   95CHL1   H17 9461   1.926   6.629   7.404  1.3246 -0.6923 -1.7469
   95CHL1   C13 9462   1.756   6.550   7.291 -0.1013 -0.3490 -0.4886
   95CHL1   C18 9463   1.611   6.499   7.320  0.5115 -0.2561  0.3494
   95CHL1  H18A 9464   1.543   6.509   7.232 -0.0137  3.8965  1.0229
   95CHL1  H18B 9465   1.618   6.398   7.364  1.1032  0.3562  1.6973
   95CHL1  H18C 9466   1.548   6.565   7.382 -1.6769  1.1859 -3.1056
   95CHL1   C12 9467   1.746   6.673   7.197 -0.5388  0.5799 -0.5736
   95CHL1  H12A 9468   1.675   6.737   7.255  0.1546  1.7289 -0.9708
   95CHL1  H12B 9469   1.849   6.714   7.203  1.3513 -3.7997  2.4782
   95CHL1   C11 9470   1.706   6.638   7.061  0.0451 -0.2107  0.3912
   95CHL1  H11A 9471   1.599   6.607   7.063  0.2475 -1.0705 -0.6302
   95CHL1  H11B 9472   1.709   6.732   7.001  0.4165  0.2741  1.1642
   95CHL1    C9 9473   1.779   6.517   6.996  0.1714 -1.1804 -0.1467
   95CHL1    H9 9474   1.885   6.551   6.991  0.6013 -2.5782 -1.2296
   95CHL1   C10 9475   1.736   6.485   6.850 -0.3382 -0.4713 -0.3539
   95CHL1   C19 9476   1.584   6.503   6.833  0.1132  0.0051 -0.5184
   95CHL1  H19A 9477   1.542   6.465   6.738 -2.5237  0.9132  0.2154
   95CHL1  H19B 9478   1.545   6.455   6.925 -0.9456  0.9532 -0.4513
   95CHL1  H19C 9479   1.557   6.610   6.845  0.3494 -0.1051  1.2318
   95CHL1    C1 9480   1.798   6.595   6.751  0.0323  0.5923  0.0440
   95CHL1   H1A 9481   1.741   6.690   6.758  1.0754  1.1619  1.5330
   95CHL1   H1B 9482   1.898   6.637   6.776 -0.2708  1.1604  0.3371
   95CHL1    C2 9483   1.778   6.556   6.603 -0.2901 -0.3011 -0.7146
   95CHL1   H2A 9484   1.820   6.625   6.526  3.7434 -1.4087  0.2213
   95CHL1   H2B 9485   1.669   6.556   6.586 -0.6668  1.4575  1.3796
   95CHL1   C20 9486   1.758   6.636   7.547  0.2998 -0.0179  0.5222
   95CHL1   H20 9487   1.667   6.572   7.555 -0.3128  0.7352 -0.2874
   95CHL1   C21 9488   1.718   6.776   7.523 -0.0108  0.2597  0.3122
   95CHL1  H21A 9489   1.802   6.840   7.486 -0.6175  0.8507 -0.0728
   95CHL1  H21B 9490   1.681   6.829   7.613  2.2865  2.2370  0.2030
   95CHL1  H21C 9491   1.637   6.782   7.446 -0.5014 -1.2530  0.6878
   95CHL1   C22 9492   1.843   6.616   7.675  0.1974  0.2282  0.2974
   95CHL1  H22A 9493   1.835   6.509   7.703  1.3937  0.0680  0.1052
   95CHL1  H22B 9494   1.948   6.629   7.642 -0.2792 -0.3634 -1.5636
   95CHL1   C23 9495   1.817   6.704   7.797 -0.8507 -0.4920  0.1105
   95CHL1  H23A 9496   1.892   6.680   7.876  0.4319 -0.3920 -1.0302
   95CHL1  H23B 9497   1.844   6.809   7.772 -0.0027 -0.6679  0.2525
   95CHL1   C24 9498   1.678   6.693   7.863 -0.1251  0.4802  0.1117
   95CHL1  H24A 9499   1.595   6.718   7.794 -2.1075  1.5174  2.6949
   95CHL1  H24B 9500   1.659   6.589   7.899 -1.8786  0.2659 -1.3053
   95CHL1   C25 9501   1.658   6.796   7.978 -0.6795  0.0649  0.7992
   95CHL1   H25 9502   1.733   6.781   8.059 -0.5438 -0.4368  0.5846
   95CHL1   C26 9503   1.665   6.947   7.917  0.3036 -0.1868 -0.4546
   95CHL1  H26A 9504   1.588   6.966   7.840  1.2337  1.1900 -1.0830
   95CHL1  H26B 9505   1.653   7.020   8.000  0.6802  0.7874 -1.2363
   95CHL1  H26C 9506   1.765   6.958   7.870 -0.1721  0.8256 -1.2577
   95CHL1   C27 9507   1.515   6.774   8.038  0.0296  0.4645  0.5355
   95CHL1  H27A 9508   1.522   6.683   8.100 -1.0110  0.1704  0.2467
   95CHL1  H27B 9509   1.464   6.848   8.104 -0.1848 -0.6887  1.7004
   95CHL1  H27C 9510   1.437   6.746   7.964  0.2540 -1.2092  0.9001
   96CHL1    C3 9511   1.319   3.886   6.623  0.2189 -0.9586  0.2007
   96CHL1    H3 9512   1.218   3.840   6.628 -0.0027 -0.3669  1.5067
   96CHL1    O3 9513   1.374   3.859   6.496 -0.4366  0.1635  0.0637
   96CHL1   H3' 9514   1.459   3.824   6.522 -1.0159 -0.2026  1.5709
   96CHL1    C4 9515   1.295   4.038   6.651  0.4288 -0.1180 -0.5298
   96CHL1   H4A 9516   1.387   4.091   6.619  1.5585 -1.6478  0.0796
   96CHL1   H4B 9517   1.228   4.074   6.570 -2.0769  1.4809  2.0659
   96CHL1    C5 9518   1.244   4.073   6.786  0.4031  0.3049  0.0934
   96CHL1    C6 9519   1.135   4.155   6.804  0.5885  0.0114  0.4245
   96CHL1    H6 9520   1.085   4.205   6.720  0.4801  0.2092  0.6042
   96CHL1    C7 9521   1.085   4.198   6.943 -0.0127  0.1386 -0.3183
   96CHL1   H7A 9522   1.065   4.307   6.946 -0.4609  0.1127 -1.7933
   96CHL1   H7B 9523   0.985   4.150   6.959  0.0012 -1.6923 -4.3983
   96CHL1    C8 9524   1.185   4.167   7.053 -0.7283  0.1514 -0.7816
   96CHL1    H8 9525   1.269   4.238   7.041 -0.6496  0.1974 -0.0211
   96CHL1   C14 9526   1.121   4.187   7.195  0.4495 -0.7638 -0.6547
   96CHL1   H14 9527   1.043   4.108   7.206  0.1739 -0.4252 -0.1367
   96CHL1   C15 9528   1.070   4.322   7.232 -0.2893  0.0349  0.2720
   96CHL1  H15A 9529   1.132   4.413   7.213 -1.6219  1.0428  0.5686
   96CHL1  H15B 9530   0.973   4.323   7.177 -1.4389 -0.6706  2.2092
   96CHL1   C16 9531   1.030   4.311   7.377 -0.4411 -0.1343 -0.2902
   96CHL1  H16A 9532   1.046   4.405   7.433 -0.5712 -0.3550  0.1211
   96CHL1  H16B 9533   0.923   4.280   7.383 -0.0211 -1.9303 -1.2326
   96CHL1   C17 9534   1.124   4.200   7.432  0.3628  1.0483 -0.7747
   96CHL1   H17 9535   1.061   4.110   7.451  3.1222 -0.9105 -0.2015
   96CHL1   C13 9536   1.216   4.152   7.307  0.3585  0.0058 -0.0052
   96CHL1   C18 9537   1.343   4.251   7.302 -0.3549  0.7142 -0.6274
   96CHL1  H18A 9538   1.397   4.233   7.206  0.1743 -0.0848 -0.1991
   96CHL1  H18B 9539   1.309   4.355   7.314 -0.0781  0.7049  0.3459
   96CHL1  H18C 9540   1.418   4.235   7.383 -1.1583  0.0909  0.0107
   96CHL1   C12 9541   1.262   4.004   7.300 -0.3545 -0.1404  0.0407
   96CHL1  H12A 9542   1.337   3.979   7.378 -0.6212  1.5217  0.8682
   96CHL1  H12B 9543   1.164   3.952   7.312 -1.1210  0.4455 -2.8141
   96CHL1   C11 9544   1.321   3.978   7.165 -0.3328  0.4030  0.5664
   96CHL1  H11A 9545   1.425   4.015   7.166  1.0338 -2.9442 -1.7503
   96CHL1  H11B 9546   1.319   3.867   7.159 -3.1275  0.3562  0.8453
   96CHL1    C9 9547   1.238   4.026   7.035  0.1677  0.1752  0.5037
   96CHL1    H9 9548   1.153   3.953   7.036  1.3158 -1.2083  1.0988
   96CHL1   C10 9549   1.317   3.997   6.901  0.6244  0.1159  1.1058
   96CHL1   C19 9550   1.455   4.073   6.904 -0.9239 -0.5904  0.1183
   96CHL1  H19A 9551   1.508   4.083   6.807 -3.0030 -2.5971 -1.3352
   96CHL1  H19B 9552   1.435   4.180   6.922 -2.2537 -0.6418 -0.8860
   96CHL1  H19C 9553   1.524   4.032   6.982 -0.4522 -0.3459 -0.1638
   96CHL1    C1 9554   1.336   3.844   6.864  0.3818  0.0893 -0.2032
   96CHL1   H1A 9555   1.392   3.807   6.952  1.1887  2.8233  0.5063
   96CHL1   H1B 9556   1.240   3.790   6.880  0.5405  0.0743  0.7481
   96CHL1    C2 9557   1.407   3.830   6.733 -0.3563 -0.0741  0.0676
   96CHL1   H2A 9558   1.431   3.723   6.710 -0.5482 -0.0396 -0.3105
   96CHL1   H2B 9559   1.507   3.878   6.742 -1.0990  1.7107 -0.7607
   96CHL1   C20 9560   1.188   4.234   7.572  0.1512 -0.3752 -0.3330
   96CHL1   H20 9561   1.262   4.315   7.557 -0.3478  0.5712  1.8664
   96CHL1   C21 9562   1.266   4.107   7.633 -0.7829  0.3920 -0.2652
   96CHL1  H21A 9563   1.343   4.065   7.565 -0.0854 -1.6980  1.6905
   96CHL1  H21B 9564   1.194   4.026   7.659  1.9898 -2.0007  0.4293
   96CHL1  H21C 9565   1.318   4.129   7.728  0.1653 -1.0431 -0.4226
   96CHL1   C22 9566   1.080   4.284   7.667  0.4519  0.3155 -0.3270
   96CHL1  H22A 9567   1.036   4.378   7.630  1.7411  0.3947 -1.7673
   96CHL1  H22B 9568   0.996   4.214   7.685 -0.1989  1.2491  0.3236
   96CHL1   C23 9569   1.123   4.345   7.798  0.2874  0.6564 -0.1027
   96CHL1  H23A 9570   1.174   4.260   7.847  0.0162  0.0310 -0.8778
   96CHL1  H23B 9571   1.210   4.412   7.785  1.2215 -0.2025  1.4530
   96CHL1   C24 9572   1.007   4.397   7.881  0.8688 -0.3621 -0.3402
   96CHL1  H24A 9573   0.944   4.468   7.824  0.2832 -2.0277 -1.8389
   96CHL1  H24B 9574   0.934   4.319   7.912  0.4292  0.8320  1.8133
   96CHL1   C25 9575   1.044   4.467   8.015 -0.6227  0.3744 -0.2383
   96CHL1   H25 9576   1.110   4.555   8.002 -0.1212  0.4266  2.2830
   96CHL1   C26 9577   0.919   4.532   8.088 -0.4711  0.1251  0.1484
   96CHL1  H26A 9578   0.949   4.598   8.173  2.2057  1.3106 -1.5898
   96CHL1  H26B 9579   0.861   4.587   8.012 -0.2390  0.0709 -0.0709
   96CHL1  H26C 9580   0.857   4.452   8.134 -0.3056 -1.1356 -1.7395
   96CHL1   C27 9581   1.123   4.385   8.113  0.0625  0.7968  0.4045
   96CHL1  H27A 9582   1.219   4.344   8.073  0.4555 -0.6468  2.6537
   96CHL1  H27B 9583   1.161   4.439   8.203  1.2140  3.0713 -1.3250
   96CHL1  H27C 9584   1.061   4.296   8.134  0.5227 -0.0932 -1.7200
   97OSM      N 9585   5.144   6.320  11.360 -0.2035 -0.1961  0.4825
   97OSM    C15 9586   5.142   6.446  11.448 -0.2837  0.6849  0.5294
   97OSM   H15A 9587   5.086   6.523  11.395 -1.0511  0.0238  0.3614
   97OSM   H15B 9588   5.244   6.481  11.448 -0.2046  0.4619  0.2887
   97OSM   H15C 9589   5.110   6.430  11.549 -0.3123  0.0721  0.4228
   97OSM    C14 9590   5.249   6.229  11.412 -0.2358 -0.0473 -0.7831
   97OSM   H14A 9591   5.277   6.148  11.345  1.7683 -0.1081  0.0518
   97OSM   H14B 9592   5.222   6.177  11.502 -1.8535  2.5810  0.3326
   97OSM   H14C 9593   5.346   6.277  11.418  0.1276 -0.8191 -0.2027
   97OSM    C13 9594   5.014   6.253  11.354  0.6176  0.6294  0.3067
   97OSM   H13A 9595   5.018   6.164  11.293 -0.6916  1.3954 -0.9568
   97OSM   H13B 9596   4.942   6.323  11.314  1.2300  1.5798  0.8271
   97OSM   H13C 9597   4.974   6.220  11.449 -1.0073  1.9813  0.1297
   97OSM    C12 9598   5.173   6.366  11.217 -0.2532 -0.2437  0.3240
   97OSM   H12A 9599   5.277   6.395  11.223 -0.3282 -0.2512  1.8542
   97OSM   H12B 9600   5.110   6.451  11.196 -0.7508 -0.6519  0.1302
   97OSM    C11 9601   5.170   6.262  11.102  0.1297 -0.9460 -0.4239
   97OSM   H11A 9602   5.189   6.310  11.003 -0.7455  4.1615  1.5844
   97OSM   H11B 9603   5.062   6.239  11.090  0.4525 -2.2573 -1.0430
   97OSM      P 9604   5.205   6.008  11.099  0.0579 -0.3700 -0.2597
   97OSM    O13 9605   5.280   5.920  11.189 -0.3654 -0.3104 -0.7668
   97OSM    O14 9606   5.058   5.999  11.111 -0.1991  0.0365  0.1784
   97OSM    O11 9607   5.246   5.990  10.945 -0.1277  0.1467 -0.3034
   97OSM    O12 9608   5.258   6.153  11.125 -0.6653 -0.2099  0.0189
   97OSM    C1S 9609   5.166   5.990  10.827 -0.2063 -0.2108 -0.1929
   97OSM    H1S 9610   5.063   6.026  10.849 -0.2959 -0.1340 -0.7302
   97OSM    H1T 9611   5.164   5.882  10.800  0.4376 -0.1292 -0.5781
   97OSM     NF 9612   5.121   6.088  10.610  0.4054 -0.0729 -0.1659
   97OSM    HNF 9613   5.147   6.021  10.541  2.1834  0.8398 -0.4651
   97OSM    C2S 9614   5.225   6.082  10.722  0.2211  0.3874  1.1384
   97OSM    H2S 9615   5.237   6.182  10.769 -1.0088  1.2366 -0.2333
   97OSM    C3S 9616   5.364   6.030  10.668  0.1727 -0.0643  0.6802
   97OSM    H3S 9617   5.358   5.935  10.611  0.0770  0.1511  0.3294
   97OSM     O3 9618   5.463   6.007  10.771 -0.0633 -0.1306 -0.3235
   97OSM    HO3 9619   5.420   6.025  10.854  3.2295  4.3870  0.8101
   97OSM    C4S 9620   5.409   6.132  10.562  0.2326 -0.2137  0.1696
   97OSM    H4S 9621   5.380   6.110  10.458  0.6509 -1.3682  0.2772
   97OSM    C5S 9622   5.479   6.241  10.580  0.0369  0.2972 -0.3796
   97OSM    H5S 9623   5.519   6.254  10.682  0.1318  0.6912 -0.4645
   97OSM    C6S 9624   5.523   6.351  10.479  0.4310 -0.3300 -0.3413
   97OSM    H6S 9625   5.609   6.406  10.523 -1.2463  0.3465  2.3697
   97OSM    H6T 9626   5.429   6.407  10.460 -0.4086 -1.4536  0.3697
   97OSM    C7S 9627   5.560   6.299  10.339 -0.0398 -0.1804 -0.2885
   97OSM    H7S 9628   5.486   6.223  10.308  1.3049 -1.9245  0.6270
   97OSM    H7T 9629   5.650   6.234  10.339  0.7684  0.8897 -0.8342
   97OSM    C8S 9630   5.568   6.400  10.232  0.0708  1.4188 -0.5124
   97OSM    H8S 9631   5.652   6.467  10.263 -1.0731  2.0089  1.4470
   97OSM    H8T 9632   5.477   6.464  10.238  1.2599  3.1500  0.0161
   97OSM    C9S 9633   5.570   6.335  10.090  0.0201 -0.1459 -0.3790
   97OSM    H9S 9634   5.469   6.304  10.055  0.0272 -2.6211  1.5426
   97OSM    H9T 9635   5.645   6.253  10.097 -0.2026 -0.2835  0.5511
   97OSM   C10S 9636   5.624   6.435   9.985  0.8591  0.2279  1.0221
   97OSM   H10S 9637   5.722   6.480  10.012  1.4853  1.3433 -2.5464
   97OSM   H10T 9638   5.553   6.520   9.972  2.2334  1.1032 -1.2458
   97OSM   C11S 9639   5.653   6.362   9.854 -0.9180  0.3227  0.1542
   97OSM   H11S 9640   5.567   6.304   9.813 -1.5325  2.4913 -1.8286
   97OSM   H11T 9641   5.721   6.280   9.884 -0.1643  0.2514 -1.6647
   97OSM   C12S 9642   5.712   6.437   9.742  0.0163  0.1677  0.3853
   97OSM   H12S 9643   5.794   6.505   9.772 -0.0928  0.2324  0.5354
   97OSM   H12T 9644   5.639   6.507   9.696 -0.3093 -0.0776  0.5301
   97OSM   C13S 9645   5.759   6.351   9.626  0.4184 -0.1644  0.4554
   97OSM   H13S 9646   5.687   6.268   9.611 -0.5036  0.7597 -0.3631
   97OSM   H13T 9647   5.855   6.307   9.661 -0.1974 -1.1336  0.9630
   97OSM   C14S 9648   5.774   6.424   9.496  0.2631 -0.0696  0.5574
   97OSM   H14S 9649   5.842   6.509   9.517 -0.0287  0.4349 -0.4849
   97OSM   H14T 9650   5.681   6.473   9.462 -0.8758 -1.6160  1.3147
   97OSM   C15S 9651   5.822   6.336   9.376 -0.0195 -0.3984 -0.4448
   97OSM   H15S 9652   5.755   6.249   9.364 -0.8809  0.0559  0.8558
   97OSM   H15T 9653   5.926   6.306   9.402  0.3592  1.3100  0.1542
   97OSM   C16S 9654   5.818   6.407   9.239 -0.3885 -0.3109 -0.5024
   97OSM   H16S 9655   5.886   6.494   9.236 -1.6716  0.7470  0.0413
   97OSM   H16T 9656   5.717   6.452   9.227  0.0252  0.8962  0.3697
   97OSM   C17S 9657   5.848   6.321   9.111 -0.3592 -0.3781 -0.1108
   97OSM   H17S 9658   5.957   6.306   9.130  0.0233 -0.2905 -2.0683
   97OSM   H17T 9659   5.840   6.384   9.020 -0.0072  2.4473  1.6791
   97OSM   C18S 9660   5.763   6.191   9.098  0.2430  1.2508 -0.3594
   97OSM   H18S 9661   5.775   6.133   9.004  0.0164 -0.9091  0.8801
   97OSM   H18T 9662   5.654   6.214   9.107 -0.2338 -1.2125  0.9359
   97OSM   H18U 9663   5.779   6.126   9.186 -0.9921  0.3313 -0.7775
   97OSM    C1F 9664   5.008   6.162  10.612 -0.2372  0.1180  0.2165
   97OSM     OF 9665   4.981   6.229  10.710 -0.7103  0.5641  0.1271
   97OSM    C2F 9666   4.935   6.166  10.486  0.1465 -0.5144 -1.1700
   97OSM    H2F 9667   4.980   6.083  10.426  1.6792 -0.2391 -0.4416
   97OSM    H2G 9668   4.961   6.262  10.436 -0.7523  1.0239  1.1471
   97OSM    C3F 9669   4.781   6.152  10.492 -0.2252 -0.2581 -0.9513
   97OSM    H3F 9670   4.741   6.251  10.524  1.1495  0.5059 -1.4965
   97OSM    H3G 9671   4.748   6.087  10.576 -0.1643 -0.0214 -0.7425
   97OSM    C4F 9672   4.714   6.127  10.351  0.1857 -0.1382 -0.6447
   97OSM    H4F 9673   4.722   6.017  10.335 -2.5431 -0.6027  0.5468
   97OSM    H4G 9674   4.762   6.184  10.268  1.2417  0.0413  0.0685
   97OSM    C5F 9675   4.564   6.159  10.364  0.2631  0.1218 -0.0747
   97OSM    H5F 9676   4.553   6.269  10.367  1.2656  0.2742 -1.0302
   97OSM    H5G 9677   4.533   6.105  10.456  1.9624  0.6801  0.8710
   97OSM    C6F 9678   4.489   6.098  10.246 -0.0389  0.5420  0.0945
   97OSM    H6F 9679   4.379   6.110  10.251 -0.0991  0.7445 -1.1988
   97OSM    H6G 9680   4.515   5.990  10.241  0.0131  0.5441  0.3464
   97OSM    C7F 9681   4.526   6.169  10.111 -0.1918 -0.4072 -0.3202
   97OSM    H7F 9682   4.627   6.130  10.085 -1.1391 -3.3796  0.0623
   97OSM    H7G 9683   4.522   6.278  10.130 -1.0437 -0.5306  0.2463
   97OSM    C8F 9684   4.425   6.144  10.001  0.8409 -0.4434  0.2927
   97OSM    H8F 9685   4.452   6.199   9.908  1.0361 -0.3209  0.4225
   97OSM    H8G 9686   4.328   6.184  10.037 -0.0995 -0.3724 -2.0999
   97OSM    C9F 9687   4.415   5.996   9.960 -0.3266 -0.1802  0.2155
   97OSM    H9F 9688   4.407   5.930  10.047  1.0088 -0.8949 -0.1689
   97OSM   C10F 9689   4.427   5.937   9.838  0.5606 -0.1748 -0.2377
   97OSM   H10F 9690   4.412   5.828   9.840  0.1653 -0.1188  0.0853
   97OSM   C11F 9691   4.434   6.018   9.715  0.0906 -0.0148 -0.1928
   97OSM   H11F 9692   4.531   6.072   9.716 -0.4305  0.9812  1.6671
   97OSM   H11G 9693   4.352   6.091   9.694 -1.6536 -2.2601 -1.6629
   97OSM   C12F 9694   4.427   5.925   9.593  0.0517 -0.3160 -0.6625
   97OSM   H12F 9695   4.336   5.862   9.601  0.1557 -0.4056 -0.1877
   97OSM   H12G 9696   4.513   5.856   9.582  0.0249 -0.2515 -1.3436
   97OSM   C13F 9697   4.415   6.007   9.457 -0.4905  0.3125 -0.2980
   97OSM   H13F 9698   4.505   6.072   9.459 -0.1446 -0.1782  1.3534
   97OSM   H13G 9699   4.321   6.064   9.468 -1.6280 -1.3440 -0.9265
   97OSM   C14F 9700   4.420   5.920   9.337  0.8251  0.4269 -0.2061
   97OSM   H14F 9701   4.338   5.844   9.333  0.7140  0.5457 -0.1955
   97OSM   H14G 9702   4.514   5.861   9.331  1.0355  0.8045 -0.7016
   97OSM   C15F 9703   4.407   6.014   9.214  0.5951  0.2230 -0.3248
   97OSM   H15F 9704   4.509   6.056   9.207  2.1656 -3.0787  0.7264
   97OSM   H15G 9705   4.315   6.075   9.228 -0.9115 -1.7686 -1.0916
   97OSM   C16F 9706   4.377   5.941   9.086  0.1256  0.3334  0.5575
   97OSM   H16F 9707   4.290   5.875   9.105 -2.2567  2.8164 -1.0272
   97OSM   H16G 9708   4.467   5.888   9.047  1.0442  0.3205  2.5747
   97OSM   C17F 9709   4.324   6.029   8.972  0.2734  0.4431  0.7943
   97OSM   H17F 9710   4.407   6.100   8.948  2.3857 -1.9332  0.6135
   97OSM   H17G 9711   4.238   6.087   9.011 -0.4060 -1.6832  2.6440
   97OSM   C18F 9712   4.283   5.960   8.838 -0.4499  0.0500  0.2440
   97OSM   H18F 9713   4.233   6.022   8.761  2.8556  0.3788 -1.7966
   97OSM   H18G 9714   4.207   5.884   8.868 -0.1645 -0.4006 -0.1623
   97OSM   H18H 9715   4.371   5.907   8.796 -0.6764  0.9349 -1.4041
   98OSM      N 9716   4.884   5.330  10.876 -0.2452 -0.0087 -0.0254
   98OSM    C15 9717   4.803   5.452  10.828 -0.7364 -0.1100  0.0121
   98OSM   H15A 9718   4.751   5.411  10.743  2.2514 -1.8499 -1.1327
   98OSM   H15B 9719   4.874   5.526  10.796  1.3813 -2.1418 -0.2373
   98OSM   H15C 9720   4.735   5.485  10.906  2.4992  1.7793  2.2583
   98OSM    C14 9721   4.960   5.365  11.000  0.2334 -0.3847 -0.0079
   98OSM   H14A 9722   5.038   5.436  10.979 -0.0825 -0.1586 -0.4457
   98OSM   H14B 9723   5.006   5.278  11.043  1.6790 -0.7162 -2.0420
   98OSM   H14C 9724   4.884   5.407  11.063 -2.4959 -2.3765 -1.7394
   98OSM    C13 9725   4.785   5.227  10.925  1.0250  0.6499 -0.5902
   98OSM   H13A 9726   4.849   5.147  10.960  2.6736  2.1790  0.0471
   98OSM   H13B 9727   4.721   5.203  10.842  0.3576  2.7543 -0.7359
   98OSM   H13C 9728   4.721   5.265  11.003 -0.0313 -1.3927 -0.3947
   98OSM    C12 9729   4.977   5.271  10.769  0.2963 -0.3696 -0.1569
   98OSM   H12A 9730   4.906   5.246  10.691 -2.2006 -0.5980  2.0613
   98OSM   H12B 9731   5.016   5.179  10.808 -0.1967  0.5995  2.8616
   98OSM    C11 9732   5.090   5.351  10.705 -0.1268  0.8248 -0.0129
   98OSM   H11A 9733   5.040   5.419  10.632 -0.2609  0.3185 -0.4031
   98OSM   H11B 9734   5.147   5.283  10.639 -1.7459  1.0557 -1.7576
   98OSM      P 9735   5.192   5.566  10.835 -0.1832 -0.1318 -0.0099
   98OSM    O13 9736   5.068   5.630  10.804  0.0932  0.2799 -0.8143
   98OSM    O14 9737   5.251   5.578  10.973  0.1945 -0.1032  0.5345
   98OSM    O11 9738   5.302   5.617  10.730  0.9570 -0.4756  0.3435
   98OSM    O12 9739   5.179   5.414  10.800  0.4767 -0.0603 -0.1341
   98OSM    C1S 9740   5.321   5.556  10.606 -0.4075  0.2503  0.1155
   98OSM    H1S 9741   5.226   5.529  10.556  1.3442 -1.6485 -2.4695
   98OSM    H1T 9742   5.359   5.452  10.621 -0.3497  0.5116  1.9826
   98OSM     NF 9743   5.428   5.588  10.379  0.2791 -0.3812 -0.1035
   98OSM    HNF 9744   5.514   5.541  10.360  1.0607  1.1132 -0.3865
   98OSM    C2S 9745   5.419   5.643  10.517 -0.4677 -0.2319 -0.0176
   98OSM    H2S 9746   5.388   5.749  10.511 -0.5523 -0.2806 -0.5013
   98OSM    C3S 9747   5.555   5.648  10.596 -0.8653 -0.1112  0.3746
   98OSM    H3S 9748   5.577   5.543  10.626  0.9407  0.0420 -0.3165
   98OSM     O3 9749   5.546   5.725  10.715  0.4523  0.1366  0.6420
   98OSM    HO3 9750   5.452   5.748  10.718  0.2320 -0.4393 -0.9430
   98OSM    C4S 9751   5.666   5.707  10.513 -0.4133 -0.5237 -0.7335
   98OSM    H4S 9752   5.747   5.641  10.478  0.3561  0.2777 -0.5014
   98OSM    C5S 9753   5.687   5.838  10.484  0.6995 -0.4013 -0.3746
   98OSM    H5S 9754   5.621   5.911  10.533 -1.3107 -1.2136 -1.7582
   98OSM    C6S 9755   5.803   5.904  10.407 -0.3382  0.4738 -0.4960
   98OSM    H6S 9756   5.894   5.908  10.471  0.5028  1.2182 -1.6819
   98OSM    H6T 9757   5.785   6.013  10.394 -0.5927  0.4076 -0.7018
   98OSM    C7S 9758   5.825   5.826  10.274  0.6774 -0.3570  0.0039
   98OSM    H7S 9759   5.868   5.726  10.298  0.7357 -0.0335  1.2966
   98OSM    H7T 9760   5.909   5.872  10.218  1.1966 -1.3907 -0.0940
   98OSM    C8S 9761   5.696   5.823  10.182  0.2436  0.4814 -0.8444
   98OSM    H8S 9762   5.636   5.916  10.195  0.9589  0.9808 -1.0351
   98OSM    H8T 9763   5.631   5.736  10.203 -0.3089  0.8483 -1.0314
   98OSM    C9S 9764   5.743   5.814  10.034 -0.5956  0.4374 -0.6847
   98OSM    H9S 9765   5.810   5.727  10.018 -2.0221 -0.6483 -0.8939
   98OSM    H9T 9766   5.803   5.906  10.015  2.8119 -1.2327  1.0404
   98OSM   C10S 9767   5.633   5.781   9.932 -0.3184 -0.1442 -0.1539
   98OSM   H10S 9768   5.544   5.820   9.986 -0.2762 -0.5733  0.2249
   98OSM   H10T 9769   5.615   5.673   9.917 -1.7482  0.1660 -0.8440
   98OSM   C11S 9770   5.664   5.861   9.802  0.4056 -0.7528  0.9846
   98OSM   H11S 9771   5.688   5.964   9.837  1.0691 -1.2956  2.1656
   98OSM   H11T 9772   5.584   5.880   9.727  0.9213 -0.7159  0.4402
   98OSM   C12S 9773   5.786   5.793   9.740  0.6342  0.4030  0.0104
   98OSM   H12S 9774   5.864   5.744   9.801 -0.4191  0.5240  1.4938
   98OSM   H12T 9775   5.841   5.883   9.705  2.1574 -0.6824 -0.4930
   98OSM   C13S 9776   5.758   5.706   9.615  0.1488 -0.5022 -0.8456
   98OSM   H13S 9777   5.667   5.749   9.568 -1.8653 -0.8338  2.4063
   98OSM   H13T 9778   5.737   5.605   9.655  1.9331 -0.8345 -0.6584
   98OSM   C14S 9779   5.877   5.686   9.519  0.4368 -0.1873 -0.5030
   98OSM   H14S 9780   5.971   5.672   9.578 -0.3647 -0.4903  0.7310
   98OSM   H14T 9781   5.888   5.782   9.465 -0.4033 -0.5770 -1.3931
   98OSM   C15S 9782   5.861   5.574   9.420  0.2787  0.7092 -0.1549
   98OSM   H15S 9783   5.763   5.557   9.372  0.3611  0.9665 -0.4162
   98OSM   H15T 9784   5.890   5.476   9.463  1.8166 -0.3851 -3.3757
   98OSM   C16S 9785   5.960   5.599   9.301 -0.5199  0.7400  0.5845
   98OSM   H16S 9786   6.058   5.598   9.355 -0.4082 -0.1802  0.3757
   98OSM   H16T 9787   5.948   5.702   9.261  0.3130  0.8070  0.4776
   98OSM   C17S 9788   5.950   5.495   9.186 -0.1072  0.0810 -0.6274
   98OSM   H17S 9789   6.032   5.515   9.114  2.9910 -1.6528  2.0853
   98OSM   H17T 9790   5.861   5.518   9.124  0.4360  1.8640 -0.8022
   98OSM   C18S 9791   5.956   5.354   9.240  0.7806 -0.3300 -0.3855
   98OSM   H18S 9792   5.870   5.335   9.308  1.0148 -0.5787 -0.1543
   98OSM   H18T 9793   6.047   5.339   9.303 -0.0521  0.1505  0.9726
   98OSM   H18U 9794   5.944   5.284   9.155 -1.7816  1.7835 -1.8685
   98OSM    C1F 9795   5.315   5.575  10.305 -0.2847 -0.2602  0.3323
   98OSM     OF 9796   5.211   5.633  10.339  0.0083  0.2011 -0.0662
   98OSM    C2F 9797   5.324   5.484  10.186 -0.4436  0.1560  0.4117
   98OSM    H2F 9798   5.230   5.425  10.198 -0.4080 -0.0475 -0.2827
   98OSM    H2G 9799   5.416   5.423  10.178 -1.2738 -0.9710 -0.9295
   98OSM    C3F 9800   5.311   5.553  10.048  0.1161 -0.5979  0.9560
   98OSM    H3F 9801   5.378   5.642  10.044 -0.2657 -0.2960  1.2182
   98OSM    H3G 9802   5.207   5.590  10.041  0.1875 -0.6579 -0.5862
   98OSM    C4F 9803   5.336   5.459   9.926  0.1041  0.5419  0.1647
   98OSM    H4F 9804   5.248   5.392   9.930  0.1988  0.4507  0.7231
   98OSM    H4G 9805   5.434   5.407   9.933  0.0580  0.2996 -0.8409
   98OSM    C5F 9806   5.324   5.543   9.797  0.0366  1.0836  0.1109
   98OSM    H5F 9807   5.380   5.636   9.822 -0.3983  1.0449  1.2628
   98OSM    H5G 9808   5.219   5.571   9.775  0.4303  1.7586 -1.0535
   98OSM    C6F 9809   5.373   5.476   9.664 -0.1533 -0.1188 -0.7546
   98OSM    H6F 9810   5.322   5.378   9.652  0.7246 -0.6779 -0.0870
   98OSM    H6G 9811   5.482   5.454   9.669 -0.3747 -1.3177 -0.8031
   98OSM    C7F 9812   5.347   5.553   9.533 -0.2836 -0.0840 -0.4342
   98OSM    H7F 9813   5.391   5.655   9.534  0.5345 -0.3827  2.5755
   98OSM    H7G 9814   5.236   5.553   9.527 -0.3307 -1.0853  0.1265
   98OSM    C8F 9815   5.407   5.477   9.413 -0.2556  0.1035  0.6863
   98OSM    H8F 9816   5.508   5.449   9.451 -0.7741 -1.2056  1.1659
   98OSM    H8G 9817   5.417   5.548   9.329 -0.9488 -0.8712 -0.2436
   98OSM    C9F 9818   5.329   5.354   9.370 -0.2152 -0.1319 -0.2523
   98OSM    H9F 9819   5.337   5.273   9.444  0.3828 -0.5094 -0.7156
   98OSM   C10F 9820   5.246   5.347   9.266 -0.0688  1.0113 -0.8103
   98OSM   H10F 9821   5.196   5.253   9.239 -1.6023  1.7174 -0.4753
   98OSM   C11F 9822   5.198   5.459   9.177  0.5004  0.2367  0.2428
   98OSM   H11F 9823   5.286   5.522   9.150  0.6900 -0.1938 -0.1527
   98OSM   H11G 9824   5.131   5.527   9.234 -1.7055  1.0143 -2.9840
   98OSM   C12F 9825   5.130   5.397   9.060 -0.5176 -0.3717  0.3660
   98OSM   H12F 9826   5.024   5.371   9.081 -1.7261  3.1721 -0.6543
   98OSM   H12G 9827   5.192   5.315   9.019 -1.0724 -0.4352 -0.3638
   98OSM   C13F 9828   5.113   5.498   8.945  0.4872 -0.6788  0.0523
   98OSM   H13F 9829   5.209   5.497   8.889  0.1807 -1.9189 -0.5023
   98OSM   H13G 9830   5.076   5.600   8.968 -0.0255  0.3602 -4.3787
   98OSM   C14F 9831   5.002   5.454   8.846 -0.1371  0.0681  0.5952
   98OSM   H14F 9832   4.905   5.442   8.899 -0.4982 -0.7778 -0.2347
   98OSM   H14G 9833   5.031   5.351   8.815  0.4201 -0.2397  2.0000
   98OSM   C15F 9834   4.993   5.546   8.722  0.1063 -0.6731 -0.4733
   98OSM   H15F 9835   4.970   5.653   8.743 -0.1578 -0.4606 -1.7464
   98OSM   H15G 9836   4.909   5.517   8.655 -0.1195 -1.0765 -0.0193
   98OSM   C16F 9837   5.115   5.540   8.624 -0.0045  0.5245  0.4275
   98OSM   H16F 9838   5.148   5.440   8.590  0.2993  0.2680  1.4348
   98OSM   H16G 9839   5.200   5.590   8.675  1.7728  0.2815 -2.1270
   98OSM   C17F 9840   5.092   5.623   8.503  0.3948  0.7967  0.3534
   98OSM   H17F 9841   5.022   5.706   8.528 -1.7514 -0.8074 -0.0016
   98OSM   H17G 9842   5.027   5.565   8.434  1.6426 -0.5203  0.2405
   98OSM   C18F 9843   5.212   5.670   8.424 -0.4779  0.1060 -0.0829
   98OSM   H18F 9844   5.262   5.580   8.381  2.8497  1.7844 -0.0711
   98OSM   H18G 9845   5.286   5.704   8.499  0.7216 -0.5623 -0.9145
   98OSM   H18H 9846   5.198   5.743   8.341  2.0784  1.9989  1.0020
   99OSM      N 9847   0.728   5.904  11.206  0.0416  0.1671  0.3625
   99OSM    C15 9848   0.642   5.933  11.094  0.5111  0.5219 -0.4596
   99OSM   H15A 9849   0.554   5.871  11.085 -2.3115  3.9602  0.9517
   99OSM   H15B 9850   0.706   5.906  11.012  1.7685  1.7840  0.0724
   99OSM   H15C 9851   0.608   6.036  11.090 -0.9826  0.0633 -0.3482
   99OSM    C14 9852   0.837   6.012  11.211  1.2553 -0.8531  0.5953
   99OSM   H14A 9853   0.897   6.019  11.122 -0.9827  0.0357 -0.9348
   99OSM   H14B 9854   0.888   6.015  11.307  1.0583 -2.0206  0.7499
   99OSM   H14C 9855   0.776   6.101  11.213  1.7293 -0.5234  2.1790
   99OSM    C13 9856   0.650   5.908  11.338 -0.1551 -0.3647  0.0957
   99OSM   H13A 9857   0.604   6.004  11.354  2.4503  0.9804  0.1067
   99OSM   H13B 9858   0.723   5.910  11.417 -0.0427  3.3055  0.0828
   99OSM   H13C 9859   0.572   5.834  11.337 -1.1227  0.5850  1.6241
   99OSM    C12 9860   0.788   5.765  11.201  0.6728 -1.0223 -0.1472
   99OSM   H12A 9861   0.716   5.686  11.186 -0.4251 -0.6166  2.4803
   99OSM   H12B 9862   0.825   5.739  11.299 -1.3204  0.8493  1.2178
   99OSM    C11 9863   0.905   5.740  11.101  0.0345  0.2469 -0.2830
   99OSM   H11A 9864   0.935   5.635  11.122 -1.1537  0.0067  0.3179
   99OSM   H11B 9865   0.991   5.811  11.107  1.0523 -0.8361 -1.5101
   99OSM      P 9866   0.785   5.628  10.889  0.5253 -0.0869  0.0705
   99OSM    O13 9867   0.865   5.583  10.769  0.2369  0.2342  0.3842
   99OSM    O14 9868   0.740   5.523  10.983  0.0204  0.8441 -0.6165
   99OSM    O11 9869   0.652   5.704  10.838 -0.4279 -0.1470 -0.0196
   99OSM    O12 9870   0.865   5.746  10.965  0.0568 -0.4538 -0.0031
   99OSM    C1S 9871   0.663   5.818  10.750  0.3008 -0.0157 -0.4928
   99OSM    H1S 9872   0.767   5.857  10.747 -0.4592  2.0390 -1.7855
   99OSM    H1T 9873   0.599   5.895  10.798 -2.0406 -3.3822  2.3843
   99OSM     NF 9874   0.632   5.925  10.536 -0.4901 -0.0492  0.0998
   99OSM    HNF 9875   0.568   5.996  10.563 -1.3364 -1.6038  2.5116
   99OSM    C2S 9876   0.611   5.803  10.609 -0.4394 -0.1306  0.0885
   99OSM    H2S 9877   0.671   5.721  10.564  0.7845  0.3082  0.8874
   99OSM    C3S 9878   0.465   5.750  10.609  0.2389  0.5942 -0.8583
   99OSM    H3S 9879   0.410   5.789  10.697  1.1756 -1.7209  0.8577
   99OSM     O3 9880   0.453   5.610  10.633  0.1448  0.1868  0.2555
   99OSM    HO3 9881   0.545   5.586  10.642 -0.2931 -0.7745  3.6027
   99OSM    C4S 9882   0.403   5.770  10.475 -0.2156  0.1701 -0.3500
   99OSM    H4S 9883   0.456   5.718  10.394 -1.5653 -1.4957 -0.2209
   99OSM    C5S 9884   0.293   5.841  10.453 -0.1694  0.2071 -0.2752
   99OSM    H5S 9885   0.253   5.904  10.534 -0.2237 -1.0839  0.7363
   99OSM    C6S 9886   0.215   5.866  10.330  0.8320  1.0625  0.1122
   99OSM    H6S 9887   0.187   5.974  10.324  2.3904  1.3884 -2.7598
   99OSM    H6T 9888   0.121   5.807  10.323  0.7336  1.0589  1.2743
   99OSM    C7S 9889   0.292   5.840  10.196 -0.4092  0.1092  0.3003
   99OSM    H7S 9890   0.309   5.732  10.180  0.3024  0.1319  0.8569
   99OSM    H7T 9891   0.393   5.885  10.205 -0.2990 -0.3674  1.7112
   99OSM    C8S 9892   0.232   5.900  10.066 -0.1191  0.5973  0.2375
   99OSM    H8S 9893   0.244   6.009  10.084 -0.1757  0.8432 -1.1542
   99OSM    H8T 9894   0.126   5.867  10.066  0.1704 -0.3656  0.5701
   99OSM    C9S 9895   0.303   5.870   9.930  0.1648  0.3927  0.3401
   99OSM    H9S 9896   0.337   5.764   9.932  1.4534  0.7077 -1.8851
   99OSM    H9T 9897   0.393   5.930   9.907  2.1840 -2.0592  1.3511
   99OSM   C10S 9898   0.207   5.894   9.814 -0.8489 -0.2069 -0.4881
   99OSM   H10S 9899   0.156   5.989   9.841  1.3077  0.5737  1.1502
   99OSM   H10T 9900   0.123   5.822   9.823  0.5227 -1.7515  0.7791
   99OSM   C11S 9901   0.256   5.892   9.667  0.6183  0.0648 -0.2585
   99OSM   H11S 9902   0.333   5.969   9.648  2.6648 -1.3247  1.9078
   99OSM   H11T 9903   0.173   5.929   9.602  1.1664 -0.3146 -1.1973
   99OSM   C12S 9904   0.308   5.755   9.629  0.5971 -0.3148  0.3912
   99OSM   H12S 9905   0.355   5.759   9.528  2.0117  1.8592  1.0616
   99OSM   H12T 9906   0.394   5.713   9.684 -0.3745 -1.9689  0.6855
   99OSM   C13S 9907   0.198   5.648   9.617 -0.5639 -0.0762  0.0869
   99OSM   H13S 9908   0.148   5.633   9.715  1.1516 -0.4872  0.9426
   99OSM   H13T 9909   0.253   5.556   9.585  0.8141  1.2290 -1.4981
   99OSM   C14S 9910   0.085   5.673   9.520  0.1208  0.1676 -0.1768
   99OSM   H14S 9911   0.057   5.780   9.525 -0.5016 -0.0322  1.0239
   99OSM   H14T 9912  -0.001   5.612   9.553 -0.3333  0.1047 -1.4498
   99OSM   C15S 9913   0.116   5.634   9.380 -0.3027  0.3044  0.3268
   99OSM   H15S 9914   0.208   5.682   9.341 -0.3787 -0.9426 -1.4942
   99OSM   H15T 9915   0.033   5.673   9.316 -2.1836 -0.5171  2.1720
   99OSM   C16S 9916   0.127   5.481   9.356 -0.4281 -0.5079  0.8933
   99OSM   H16S 9917   0.030   5.447   9.399 -2.3982  2.7223 -0.6247
   99OSM   H16T 9918   0.206   5.433   9.417  0.9344 -0.2039 -0.5896
   99OSM   C17S 9919   0.146   5.441   9.213 -0.2716 -0.2261 -0.3771
   99OSM   H17S 9920   0.174   5.334   9.203  0.0891 -0.1135 -0.6243
   99OSM   H17T 9921   0.231   5.498   9.169 -1.5506  1.5282 -0.7096
   99OSM   C18S 9922   0.035   5.473   9.113  0.7655  0.2761 -0.1037
   99OSM   H18S 9923   0.082   5.467   9.012 -0.0243  0.2180 -0.4820
   99OSM   H18T 9924  -0.012   5.573   9.125 -0.3348  0.0860 -2.1867
   99OSM   H18U 9925  -0.045   5.396   9.116 -1.1279  2.1672  0.6966
   99OSM    C1F 9926   0.754   5.958  10.491  0.3843  0.0926 -0.0835
   99OSM     OF 9927   0.850   5.885  10.514  0.3642  0.4979  0.1253
   99OSM    C2F 9928   0.762   6.088  10.416  0.2004  0.0111  0.3635
   99OSM    H2F 9929   0.853   6.148  10.438  0.5673  0.1338 -1.3833
   99OSM    H2G 9930   0.676   6.150  10.451 -0.6792 -1.0981  0.2431
   99OSM    C3F 9931   0.758   6.056  10.266  0.4569 -0.8067  0.1294
   99OSM    H3F 9932   0.823   5.972  10.232  2.6356  0.8817 -0.1683
   99OSM    H3G 9933   0.656   6.027  10.233  0.5141  0.0128 -0.8428
   99OSM    C4F 9934   0.794   6.185  10.187 -0.2224 -0.1181 -1.1057
   99OSM    H4F 9935   0.899   6.209  10.215 -0.8035  0.7288  0.4784
   99OSM    H4G 9936   0.726   6.271  10.208 -1.1150 -1.3126  1.1983
   99OSM    C5F 9937   0.783   6.166  10.033  0.7885 -0.1644  0.1971
   99OSM    H5F 9938   0.824   6.250   9.974 -1.0274  1.0882  0.6519
   99OSM    H5G 9939   0.673   6.165  10.014 -0.0995  1.8451  4.2186
   99OSM    C6F 9940   0.842   6.036   9.972 -0.6331 -0.0540  0.6186
   99OSM    H6F 9941   0.803   5.942  10.017 -3.7421  1.9506  2.4831
   99OSM    H6G 9942   0.953   6.030   9.981 -0.3452 -2.1067 -2.6328
   99OSM    C7F 9943   0.800   6.018   9.824  0.2229  0.2089 -0.2086
   99OSM    H7F 9944   0.853   5.929   9.784  0.0802 -1.4747  2.9858
   99OSM    H7G 9945   0.808   6.114   9.768 -2.2324  0.8003  0.3208
   99OSM    C8F 9946   0.658   5.964   9.801 -0.0847  0.1436  0.1094
   99OSM    H8F 9947   0.595   6.004   9.883  0.1374  0.5660  0.0769
   99OSM    H8G 9948   0.661   5.854   9.819  1.2619 -0.1790 -1.7492
   99OSM    C9F 9949   0.614   5.990   9.658  0.1948  1.2644 -0.4354
   99OSM    H9F 9950   0.576   6.093   9.647 -0.4877  0.9920 -0.7119
   99OSM   C10F 9951   0.622   5.916   9.546 -0.3247  0.9639  0.5444
   99OSM   H10F 9952   0.575   5.950   9.453  0.1686 -1.6651 -0.7287
   99OSM   C11F 9953   0.673   5.774   9.539  0.7424 -0.2419  0.2886
   99OSM   H11F 9954   0.580   5.718   9.514  0.8325  0.2793 -1.3735
   99OSM   H11G 9955   0.702   5.741   9.641  2.9065 -3.5824 -1.2291
   99OSM   C12F 9956   0.771   5.746   9.423  0.2240 -0.3189  0.2729
   99OSM   H12F 9957   0.827   5.650   9.427  1.7157  0.5380  1.1888
   99OSM   H12G 9958   0.849   5.823   9.439 -0.7108  0.3062  2.1080
   99OSM   C13F 9959   0.716   5.765   9.275 -0.6375  0.3116  0.1210
   99OSM   H13F 9960   0.804   5.791   9.212  0.9318 -1.0279  1.6367
   99OSM   H13G 9961   0.658   5.859   9.265 -0.6011  0.2732 -0.4670
   99OSM   C14F 9962   0.640   5.647   9.231 -0.1561 -0.3133 -0.0279
   99OSM   H14F 9963   0.557   5.613   9.296 -0.4868  1.7173  0.6964
   99OSM   H14G 9964   0.705   5.558   9.229  0.3881  0.0722  0.2294
   99OSM   C15F 9965   0.593   5.668   9.084  0.4272  0.4757  0.2090
   99OSM   H15F 9966   0.600   5.567   9.038  0.3897  0.7092 -0.3162
   99OSM   H15G 9967   0.660   5.736   9.027 -0.0386  0.6740 -0.1107
   99OSM   C16F 9968   0.443   5.706   9.079  0.1432  0.1226  0.4084
   99OSM   H16F 9969   0.444   5.801   9.136  1.1240  0.5574 -0.2961
   99OSM   H16G 9970   0.402   5.626   9.144 -0.9358 -0.6296 -1.1094
   99OSM   C17F 9971   0.374   5.723   8.941 -0.7592  0.2328  0.2756
   99OSM   H17F 9972   0.268   5.750   8.959 -0.8751  0.0108 -0.0705
   99OSM   H17G 9973   0.378   5.626   8.888 -0.0704  0.3607  0.0783
   99OSM   C18F 9974   0.449   5.815   8.838 -0.2301 -0.1695 -0.6697
   99OSM   H18F 9975   0.555   5.796   8.866 -0.4148  0.9375  0.9318
   99OSM   H18G 9976   0.424   5.922   8.856  1.4299  0.3459 -1.2366
   99OSM   H18H 9977   0.429   5.781   8.734 -0.0128 -0.6325 -0.5625
  100OSM      N 9978   2.238   0.879  10.954 -0.1520  0.2513 -0.0844
  100OSM    C15 9979   2.310   0.999  10.903 -0.0900  0.4932  0.5442
  100OSM   H15A 9980   2.298   1.009  10.796 -2.8460  0.8962  0.8262
  100OSM   H15B 9981   2.417   1.005  10.919  0.3018 -1.2856 -1.1566
  100OSM   H15C 9982   2.276   1.095  10.939  2.0021  1.5015  0.0167
  100OSM    C14 9983   2.210   0.879  11.092  0.3284 -0.0690  0.1339
  100OSM   H14A 9984   2.298   0.878  11.155 -0.3020 -1.5068  1.0102
  100OSM   H14B 9985   2.163   0.787  11.121 -0.6719  0.6558  0.8559
  100OSM   H14C 9986   2.155   0.968  11.119  0.2408 -0.2284  0.4735
  100OSM    C13 9987   2.104   0.870  10.881 -1.1572  0.7122 -0.3828
  100OSM   H13A 9988   2.058   0.967  10.894 -1.2824  0.4904  1.0985
  100OSM   H13B 9989   2.040   0.804  10.938 -2.3477  2.1008 -0.0445
  100OSM   H13C 9990   2.127   0.842  10.780  1.2321  1.4190 -0.0924
  100OSM    C12 9991   2.322   0.752  10.928  0.2399  0.0510  0.3830
  100OSM   H12A 9992   2.270   0.664  10.962  1.0577 -0.6802 -0.1958
  100OSM   H12B 9993   2.416   0.756  10.982  0.1449  0.1663  0.5383
  100OSM    C11 9994   2.366   0.722  10.785 -0.4238 -0.3231 -0.1397
  100OSM   H11A 9995   2.451   0.652  10.794 -0.3433 -0.2169 -0.0677
  100OSM   H11B 9996   2.396   0.821  10.745 -3.4167 -0.0464 -2.0038
  100OSM      P 9997   2.206   0.530  10.705  0.4068  0.3996 -0.1138
  100OSM    O13 9998   2.179   0.479  10.839  0.1009 -0.7053 -0.2628
  100OSM    O14 9999   2.102   0.503  10.600 -0.1535 -0.0911  1.1356
  100OSM    O1110000   2.342   0.452  10.662  0.5362 -0.1957  0.1494
  100OSM    O1210001   2.250   0.681  10.713 -0.0119  0.1763  0.3887
  100OSM    C1S10002   2.347   0.394  10.527 -0.4990 -0.7928 -0.6206
  100OSM    H1S10003   2.257   0.331  10.508 -0.7012 -0.6134 -0.2800
  100OSM    H1T10004   2.436   0.327  10.518  1.8629  1.9053  1.0019
  100OSM     NF10005   2.365   0.438  10.272  0.6828 -0.2695  0.2119
  100OSM    HNF10006   2.449   0.405  10.231  0.9882  2.6424 -1.8627
  100OSM    C2S10007   2.374   0.498  10.404  0.1172  0.9107  0.7069
  100OSM    H2S10008   2.298   0.578  10.411 -0.5858  0.2610  0.6056
  100OSM    C3S10009   2.521   0.563  10.426  0.7340 -0.1819  1.0241
  100OSM    H3S10010   2.599   0.489  10.396 -0.4531 -1.7016  1.5630
  100OSM     O310011   2.555   0.605  10.558  0.3163  0.3797  0.2586
  100OSM    HO310012   2.478   0.573  10.606  0.5127  0.8503  0.8897
  100OSM    C4S10013   2.540   0.676  10.326  0.1925 -1.0192  0.4794
  100OSM    H4S10014   2.615   0.658  10.248  2.6665  0.2645  2.4361
  100OSM    C5S10015   2.487   0.803  10.334 -0.3904 -0.9801 -0.1090
  100OSM    H5S10016   2.428   0.835  10.421 -0.0392  0.3974 -0.3590
  100OSM    C6S10017   2.524   0.910  10.232  0.5577  0.7308 -0.0672
  100OSM    H6S10018   2.616   0.969  10.255  1.9818 -1.8577  1.3282
  100OSM    H6T10019   2.438   0.979  10.249 -1.2142 -1.7092  1.4799
  100OSM    C7S10020   2.534   0.857  10.088  0.7617 -0.4267 -0.5070
  100OSM    H7S10021   2.438   0.802  10.078  0.0578  0.5741  0.4609
  100OSM    H7T10022   2.624   0.794  10.073  0.4079 -1.2873  0.8070
  100OSM    C8S10023   2.535   0.966   9.983  0.1970  0.2147  0.5249
  100OSM    H8S10024   2.631   1.021   9.997  1.6982 -1.5253 -2.0300
  100OSM    H8T10025   2.445   1.030   9.989 -2.2297 -2.6794 -1.6462
  100OSM    C9S10026   2.534   0.915   9.839 -0.5177 -0.3535  0.1775
  100OSM    H9S10027   2.440   0.861   9.816 -0.6915 -0.0264  0.1215
  100OSM    H9T10028   2.619   0.844   9.837  1.4690  1.9146 -0.4131
  100OSM   C10S10029   2.560   1.016   9.727  1.1220  0.3045 -0.0955
  100OSM   H10S10030   2.655   1.068   9.750  1.3717 -0.4118  0.5621
  100OSM   H10T10031   2.477   1.089   9.711 -0.8815 -2.0036 -0.7917
  100OSM   C11S10032   2.561   0.934   9.603 -0.1177  0.2826 -0.1988
  100OSM   H11S10033   2.464   0.882   9.589 -0.8799  1.8783 -1.1762
  100OSM   H11T10034   2.630   0.849   9.621 -0.2800 -0.2906 -2.0994
  100OSM   C12S10035   2.580   1.003   9.473 -0.5491  0.4909  0.0941
  100OSM   H12S10036   2.675   1.061   9.463 -1.4105  1.9426  0.0245
  100OSM   H12T10037   2.497   1.076   9.460 -0.2541  0.4790 -2.3701
  100OSM   C13S10038   2.574   0.903   9.353  0.2409 -0.1245  0.4322
  100OSM   H13S10039   2.480   0.846   9.369 -0.0182 -0.5686 -2.2598
  100OSM   H13T10040   2.657   0.829   9.354 -0.2148 -0.7539 -1.8317
  100OSM   C14S10041   2.592   0.975   9.220 -0.6121  0.3535  0.2749
  100OSM   H14S10042   2.678   1.041   9.193  1.2497 -1.8717  0.4124
  100OSM   H14T10043   2.505   1.044   9.214  0.6722  2.1695  1.1854
  100OSM   C15S10044   2.580   0.875   9.110 -0.0052 -0.4691  0.0664
  100OSM   H15S10045   2.477   0.836   9.119 -0.0969  0.2262  2.8972
  100OSM   H15T10046   2.646   0.788   9.135 -0.9763 -0.7929  1.6252
  100OSM   C16S10047   2.603   0.927   8.968  0.0308  0.3395  0.4799
  100OSM   H16S10048   2.712   0.926   8.948  0.2469  2.4188  1.3058
  100OSM   H16T10049   2.570   1.033   8.964 -1.1783  0.1008  2.6277
  100OSM   C17S10050   2.526   0.840   8.872  0.7204  0.0101 -0.4391
  100OSM   H17S10051   2.427   0.828   8.923  0.9039  0.3283  0.0043
  100OSM   H17T10052   2.573   0.740   8.864 -0.7092 -0.7495  0.1300
  100OSM   C18S10053   2.504   0.908   8.736  0.2237  0.2435  0.4724
  100OSM   H18S10054   2.462   0.837   8.661  4.1317  0.6358 -2.4260
  100OSM   H18T10055   2.602   0.953   8.709 -0.0609  2.3097  2.5814
  100OSM   H18U10056   2.423   0.984   8.741 -0.0365 -0.1110  1.9488
  100OSM    C1F10057   2.251   0.408  10.206  0.1141  0.4048  0.0455
  100OSM     OF10058   2.140   0.426  10.263  0.0109 -0.3708  0.7537
  100OSM    C2F10059   2.267   0.353  10.065  0.1598 -0.6212  0.0514
  100OSM    H2F10060   2.333   0.264  10.056 -0.1983 -1.0441  1.4099
  100OSM    H2G10061   2.311   0.438  10.009 -1.1969  0.9328  1.2509
  100OSM    C3F10062   2.126   0.336   9.997  0.4183 -0.1702 -0.4446
  100OSM    H3F10063   2.062   0.423  10.022  1.0105 -0.1044  0.8984
  100OSM    H3G10064   2.093   0.239  10.040 -0.1809  0.9913  1.8796
  100OSM    C4F10065   2.129   0.327   9.847  0.4760 -0.3382 -0.0175
  100OSM    H4F10066   2.216   0.266   9.815 -0.1759 -0.4506 -1.6775
  100OSM    H4G10067   2.162   0.425   9.805  0.4769 -0.3092  0.0506
  100OSM    C5F10068   1.989   0.283   9.795 -0.2881  0.3332  0.8177
  100OSM    H5F10069   1.922   0.372   9.795  1.3959  1.6580  1.0759
  100OSM    H5G10070   1.948   0.208   9.866  1.2185 -0.2764  1.0690
  100OSM    C6F10071   1.988   0.234   9.647  0.3224 -0.0612 -0.4766
  100OSM    H6F10072   1.878   0.226   9.633 -0.2573 -0.4045  3.3336
  100OSM    H6G10073   2.032   0.132   9.653 -1.4680 -0.8382  0.2940
  100OSM    C7F10074   2.063   0.325   9.546 -0.6564  0.1798  0.4739
  100OSM    H7F10075   2.173   0.309   9.554 -0.6547 -1.4023 -1.6200
  100OSM    H7G10076   2.027   0.429   9.556 -0.8237  0.1293  0.3929
  100OSM    C8F10077   2.027   0.301   9.394  0.1184 -0.1270 -0.3552
  100OSM    H8F10078   2.088   0.371   9.334 -0.1769  0.1609 -0.3212
  100OSM    H8G10079   1.918   0.319   9.380 -0.2805 -1.6287  0.5248
  100OSM    C9F10080   2.068   0.164   9.349  0.2649 -0.2459  0.5496
  100OSM    H9F10081   2.140   0.120   9.419 -2.1756 -0.0441  3.3741
  100OSM   C10F10082   2.021   0.092   9.241 -0.4865 -0.0392 -0.1906
  100OSM   H10F10083   2.076   0.003   9.208  1.2723  1.3604 -1.2602
  100OSM   C11F10084   1.917   0.126   9.145  0.5152 -0.0116 -0.0880
  100OSM   H11F10085   1.824   0.165   9.190  1.1692  0.7595  0.6436
  100OSM   H11G10086   1.883   0.031   9.099  0.0163  0.1714 -0.0933
  100OSM   C12F10087   1.971   0.218   9.033  0.2811  0.6064 -0.2176
  100OSM   H12F10088   1.996   0.319   9.071  0.0439 -0.1048  1.9663
  100OSM   H12G10089   1.886   0.231   8.963  0.4805 -1.1319 -0.8337
  100OSM   C13F10090   2.095   0.161   8.954  0.2178 -0.4207  0.0471
  100OSM   H13F10091   2.080   0.051   8.958 -2.6355 -0.0945  0.3341
  100OSM   H13G10092   2.187   0.190   9.010 -0.0191  1.0175 -0.2584
  100OSM   C14F10093   2.100   0.202   8.806 -0.5399  0.0258 -0.1108
  100OSM   H14F10094   2.068   0.307   8.791 -0.1941  0.4739  2.0072
  100OSM   H14G10095   2.029   0.139   8.748 -0.7276 -0.4025  0.5659
  100OSM   C15F10096   2.232   0.174   8.737 -0.5396  0.9068  0.1529
  100OSM   H15F10097   2.296   0.237   8.801 -0.6870  2.1755 -0.9095
  100OSM   H15G10098   2.257   0.214   8.636  0.4764  0.0332  0.0450
  100OSM   C16F10099   2.285   0.026   8.745  0.0582  0.4559 -0.1090
  100OSM   H16F10100   2.224  -0.050   8.692 -0.8517  0.9963  0.1418
  100OSM   H16G10101   2.288  -0.001   8.853 -2.9517 -0.3500 -0.1508
  100OSM   C17F10102   2.425   0.021   8.690 -0.8426  0.3913 -0.1587
  100OSM   H17F10103   2.452  -0.084   8.715  1.4097  1.1522  0.8155
  100OSM   H17G10104   2.499   0.083   8.745  0.5045 -1.2717  0.0175
  100OSM   C18F10105   2.440   0.046   8.542  0.3821  0.0167 -0.7132
  100OSM   H18F10106   2.402   0.144   8.506  2.8012  0.3701 -2.5621
  100OSM   H18G10107   2.391  -0.027   8.473 -0.2267 -0.9025  0.6519
  100OSM   H18H10108   2.548   0.033   8.520  1.1890  0.8949  2.2818
  101OSM      N10109   4.670   0.039  11.366  0.3017 -0.0541  0.4412
  101OSM    C1510110   4.806  -0.028  11.372  0.0799  0.6722  0.3216
  101OSM   H15A10111   4.842  -0.060  11.276 -0.6152  0.1527  0.2255
  101OSM   H15B10112   4.798  -0.124  11.422  2.1216  0.2265 -0.1325
  101OSM   H15C10113   4.879   0.041  11.411  1.3302 -1.1034  1.2609
  101OSM    C1410114   4.559  -0.046  11.333  0.3768  0.1833 -0.1261
  101OSM   H14A10115   4.525  -0.103  11.417 -0.0786 -1.0774 -1.1398
  101OSM   H14B10116   4.585  -0.113  11.253  0.5586 -0.4896  0.4926
  101OSM   H14C10117   4.481   0.015  11.289  2.0435  1.3504 -1.6796
  101OSM    C1310118   4.634   0.095  11.501 -0.4899 -0.3744 -0.2732
  101OSM   H13A10119   4.533   0.130  11.511 -0.4699 -0.4801  0.3286
  101OSM   H13B10120   4.704   0.172  11.528  0.2029 -1.3667  0.8498
  101OSM   H13C10121   4.649   0.009  11.564 -0.3884 -0.9325 -1.0376
  101OSM    C1210122   4.683   0.161  11.281  1.0576 -0.1960  0.2346
  101OSM   H12A10123   4.761   0.225  11.319  0.5537  0.8569 -0.4476
  101OSM   H12B10124   4.595   0.222  11.302  0.1755 -1.8315  1.5499
  101OSM    C1110125   4.711   0.146  11.133  0.6383  0.5712  0.1203
  101OSM   H11A10126   4.806   0.091  11.119  0.9536  1.4089 -1.1478
  101OSM   H11B10127   4.728   0.245  11.086  0.7538  1.2916  1.6241
  101OSM      P10128   4.479   0.141  11.014  0.4312  0.2518  0.3929
  101OSM    O1310129   4.390   0.027  10.969 -0.2674  0.0808 -0.3924
  101OSM    O1410130   4.423   0.232  11.114  0.2898 -0.1549 -0.3864
  101OSM    O1110131   4.545   0.219  10.892  0.0667 -0.2823 -0.4324
  101OSM    O1210132   4.609   0.067  11.071 -0.6588  0.2757 -0.2174
  101OSM    C1S10133   4.641   0.161  10.798  0.0152  0.0978  0.1079
  101OSM    H1S10134   4.630   0.051  10.803 -0.0920  0.1299  0.6716
  101OSM    H1T10135   4.747   0.179  10.826  0.3180 -0.1984 -0.8122
  101OSM     NF10136   4.717   0.117  10.575 -0.3651  0.6903 -0.3820
  101OSM    HNF10137   4.795   0.164  10.534  1.1518 -0.8668  0.5736
  101OSM    C2S10138   4.625   0.203  10.646 -0.8469  0.8624 -0.5192
  101OSM    H2S10139   4.521   0.183  10.612 -1.1966  1.8744 -0.0983
  101OSM    C3S10140   4.649   0.354  10.630  0.1619 -0.2021  0.0237
  101OSM    H3S10141   4.760   0.359  10.630  0.2431 -0.3771  2.8559
  101OSM     O310142   4.600   0.437  10.734  0.1140  0.2272  0.3926
  101OSM    HO310143   4.565   0.369  10.791  1.4195 -2.4337 -1.7334
  101OSM    C4S10144   4.609   0.397  10.494 -0.9223 -0.7983  0.0488
  101OSM    H4S10145   4.695   0.396  10.426 -0.5455  1.4800  0.4222
  101OSM    C5S10146   4.490   0.446  10.453 -1.0071 -0.4624 -0.5205
  101OSM    H5S10147   4.410   0.466  10.525  0.1730  0.2900  0.6096
  101OSM    C6S10148   4.454   0.500  10.324  0.5596 -0.6853  0.4969
  101OSM    H6S10149   4.393   0.590  10.343  3.4876  1.0586  2.4992
  101OSM    H6T10150   4.387   0.433  10.267  2.7356 -2.2150 -0.4266
  101OSM    C7S10151   4.571   0.539  10.226  0.3485 -0.3576  0.2430
  101OSM    H7S10152   4.641   0.453  10.216  0.5776 -0.1978  0.4774
  101OSM    H7T10153   4.628   0.629  10.258 -1.7208  0.8603  0.6319
  101OSM    C8S10154   4.527   0.564  10.080 -0.2763 -0.0758 -0.4377
  101OSM    H8S10155   4.492   0.669  10.072  2.1329  0.6747 -2.1507
  101OSM    H8T10156   4.449   0.496  10.039  0.2203 -0.0094 -1.5031
  101OSM    C9S10157   4.640   0.558   9.986  0.0862  0.1083 -0.0632
  101OSM    H9S10158   4.685   0.456   9.983  0.9682  0.4872 -0.0902
  101OSM    H9T10159   4.711   0.638  10.016 -1.0003  1.8976 -1.9807
  101OSM   C10S10160   4.613   0.590   9.840 -0.0191 -0.0178  0.3385
  101OSM   H10S10161   4.577   0.695   9.838 -0.7730 -0.1588  2.8841
  101OSM   H10T10162   4.536   0.518   9.805  0.9694 -0.7458 -0.4146
  101OSM   C11S10163   4.729   0.577   9.744 -0.3834 -0.0259  0.6579
  101OSM   H11S10164   4.763   0.472   9.734  2.2252  0.7136  0.9078
  101OSM   H11T10165   4.813   0.631   9.793 -0.7242 -1.4378  2.9155
  101OSM   C12S10166   4.707   0.630   9.607 -0.0224 -0.5057 -0.1358
  101OSM   H12S10167   4.651   0.724   9.626  2.2552  0.6961  1.2153
  101OSM   H12T10168   4.644   0.560   9.548  1.3796 -2.2948  0.3994
  101OSM   C13S10169   4.838   0.667   9.523  0.6090 -1.3216  0.2843
  101OSM   H13S10170   4.884   0.757   9.568 -2.1161  1.0917 -1.3479
  101OSM   H13T10171   4.799   0.700   9.424  1.6220  1.3713  0.7041
  101OSM   C14S10172   4.921   0.544   9.498 -0.0594  0.2018  0.3748
  101OSM   H14S10173   4.937   0.501   9.599 -0.1290  1.3692  0.8982
  101OSM   H14T10174   5.022   0.568   9.458  0.4096 -2.3455 -0.1164
  101OSM   C15S10175   4.860   0.432   9.409  0.1741  0.0839 -0.0913
  101OSM   H15S10176   4.826   0.470   9.310 -0.6278  1.1605  0.5688
  101OSM   H15T10177   4.762   0.406   9.455 -0.6305  1.0426 -1.2220
  101OSM   C16S10178   4.963   0.314   9.402 -0.3668  0.3109 -0.0516
  101OSM   H16S10179   4.968   0.275   9.506 -0.9848  2.0568  0.6602
  101OSM   H16T10180   5.064   0.357   9.382 -0.3217  0.2199 -0.0201
  101OSM   C17S10181   4.916   0.208   9.297  0.5510  0.0142 -0.1181
  101OSM   H17S10182   4.897   0.268   9.205 -1.7490 -0.1812  0.1696
  101OSM   H17T10183   4.819   0.178   9.341  0.5099  1.0947  0.5745
  101OSM   C18S10184   5.010   0.093   9.267  1.1930 -0.5267  0.9501
  101OSM   H18S10185   4.954   0.031   9.193  1.3732  0.3733  0.0448
  101OSM   H18T10186   5.022   0.036   9.362 -1.8456 -0.4465  1.4904
  101OSM   H18U10187   5.107   0.123   9.222  1.9684  0.5043  3.1885
  101OSM    C1F10188   4.690  -0.011  10.552  0.2769  0.9316 -0.0403
  101OSM     OF10189   4.590  -0.064  10.596  0.1616  0.3988 -0.2891
  101OSM    C2F10190   4.777  -0.086  10.447  0.1741 -0.0833  0.3756
  101OSM    H2F10191   4.861  -0.138  10.498 -0.0494 -0.0239  0.8148
  101OSM    H2G10192   4.829  -0.013  10.381  1.6559 -0.9537  0.5273
  101OSM    C3F10193   4.697  -0.175  10.355 -0.3387  0.2215 -0.4058
  101OSM    H3F10194   4.631  -0.114  10.289 -1.1805  1.7361  1.7114
  101OSM    H3G10195   4.633  -0.247  10.409 -0.3011  0.1239 -0.4909
  101OSM    C4F10196   4.783  -0.250  10.251  0.4648  0.5888  0.4932
  101OSM    H4F10197   4.849  -0.320  10.307  1.2160  0.6737 -0.2487
  101OSM    H4G10198   4.848  -0.174  10.202 -1.1963  1.7284 -0.0253
  101OSM    C5F10199   4.699  -0.316  10.134  0.1299  0.1919 -0.8260
  101OSM    H5F10200   4.631  -0.238  10.095  1.0001  0.2525 -2.3022
  101OSM    H5G10201   4.639  -0.402  10.171  2.5663 -1.6241 -0.8354
  101OSM    C6F10202   4.785  -0.375  10.025  0.5567 -0.0906  0.2371
  101OSM    H6F10203   4.867  -0.310   9.988  0.0693  2.0483  2.6555
  101OSM    H6G10204   4.833  -0.471  10.054  0.5977 -0.7759 -1.9546
  101OSM    C7F10205   4.688  -0.408   9.906 -0.8786  0.5040  0.2125
  101OSM    H7F10206   4.662  -0.317   9.848 -1.3140 -0.6269 -1.4492
  101OSM    H7G10207   4.591  -0.440   9.948  0.2004 -2.3594  0.7597
  101OSM    C8F10208   4.754  -0.510   9.809 -0.2589 -0.2588 -0.0164
  101OSM    H8F10209   4.759  -0.607   9.864  0.6085 -0.7978 -1.0088
  101OSM    H8G10210   4.857  -0.474   9.789  0.6116 -0.8643  2.8091
  101OSM    C9F10211   4.667  -0.522   9.683 -0.0116  0.1509  0.1227
  101OSM    H9F10212   4.567  -0.485   9.712 -1.6502 -3.9938  0.4031
  101OSM   C10F10213   4.702  -0.558   9.559  0.3364  0.3137 -0.1640
  101OSM   H10F10214   4.621  -0.561   9.485 -1.7754 -2.0628  2.0619
  101OSM   C11F10215   4.835  -0.625   9.527 -0.2111  0.1323  0.0969
  101OSM   H11F10216   4.917  -0.604   9.599  1.0436  0.2591 -1.3471
  101OSM   H11G10217   4.876  -0.593   9.430  0.3853  0.4571  0.4507
  101OSM   C12F10218   4.817  -0.776   9.537 -0.2057  0.5084 -0.0640
  101OSM   H12F10219   4.725  -0.817   9.490 -0.0223 -0.4905  0.4217
  101OSM   H12G10220   4.810  -0.811   9.643  1.3097 -2.0003 -0.6925
  101OSM   C13F10221   4.946  -0.843   9.490  0.2947 -0.2141  0.2264
  101OSM   H13F10222   4.976  -0.938   9.540  0.6653 -0.2997 -0.1561
  101OSM   H13G10223   5.033  -0.775   9.503  1.9597 -1.7890 -2.0004
  101OSM   C14F10224   4.947  -0.874   9.341  0.2812  0.1154 -1.0445
  101OSM   H14F10225   4.927  -0.790   9.272 -2.7957  2.0059  1.8220
  101OSM   H14G10226   4.859  -0.939   9.323  0.0437  0.4724 -1.1761
  101OSM   C15F10227   5.075  -0.941   9.290 -0.0670  0.5177  0.2396
  101OSM   H15F10228   5.070  -0.948   9.179 -1.5170 -0.5085  0.3388
  101OSM   H15G10229   5.073  -1.046   9.326 -1.2713  0.4276 -0.0556
  101OSM   C16F10230   5.208  -0.858   9.315 -0.4433  0.4758 -0.2789
  101OSM   H16F10231   5.225  -0.847   9.424  2.2882  0.4128 -0.6396
  101OSM   H16G10232   5.198  -0.751   9.288  0.1607  0.9268  1.2107
  101OSM   C17F10233   5.321  -0.913   9.230 -0.6281 -0.6158  0.1396
  101OSM   H17F10234   5.287  -0.902   9.125  2.6741  1.0686 -0.8776
  101OSM   H17G10235   5.340  -1.021   9.245  1.3964 -0.2439  0.5117
  101OSM   C18F10236   5.458  -0.842   9.248  0.0532  0.0787  0.1771
  101OSM   H18F10237   5.531  -0.880   9.174 -0.7909 -0.6056 -0.3170
  101OSM   H18G10238   5.494  -0.858   9.352 -2.2297  0.4509  1.0897
  101OSM   H18H10239   5.439  -0.734   9.227  1.2748  0.1679 -0.5555
  102OSM      N10240   1.318   3.023  10.770  0.6000  0.5979  0.4958
  102OSM    C1510241   1.240   2.899  10.799 -0.2102  0.1969  0.1439
  102OSM   H15A10242   1.267   2.811  10.743  1.4371  0.3145  0.7169
  102OSM   H15B10243   1.137   2.923  10.777  0.4222  0.9162 -2.3206
  102OSM   H15C10244   1.241   2.868  10.903  0.1148  2.1206  0.7675
  102OSM    C1410245   1.246   3.135  10.846 -0.1355  0.5431  0.2804
  102OSM   H14A10246   1.236   3.098  10.946  2.1070 -0.6049  0.1300
  102OSM   H14B10247   1.149   3.152  10.802  0.4949 -0.4828 -1.6451
  102OSM   H14C10248   1.310   3.221  10.856  0.8786 -0.1741  0.1286
  102OSM    C1310249   1.459   3.005  10.820 -0.3930  0.3264 -0.0550
  102OSM   H13A10250   1.522   3.090  10.798 -2.0355  1.8642  0.8473
  102OSM   H13B10251   1.504   2.917  10.778  0.2259  1.1678 -1.2289
  102OSM   H13C10252   1.458   2.985  10.926  1.5895  2.3306  0.4187
  102OSM    C1210253   1.325   3.044  10.622  0.4444  0.7294  0.2636
  102OSM   H12A10254   1.227   3.068  10.584 -1.0239 -1.2170  2.5484
  102OSM   H12B10255   1.347   2.947  10.578  0.7843  0.4163  1.1069
  102OSM    C1110256   1.426   3.145  10.571 -0.6042 -0.2739  0.2016
  102OSM   H11A10257   1.419   3.151  10.461 -0.3050  1.3198  0.2475
  102OSM   H11B10258   1.529   3.110  10.592  0.2964  2.4348  0.6838
  102OSM      P10259   1.292   3.363  10.585  0.0535 -0.5804  0.1662
  102OSM    O1310260   1.199   3.399  10.695  0.4363  0.1267 -0.3807
  102OSM    O1410261   1.359   3.470  10.517 -0.8317  0.0521  0.3561
  102OSM    O1110262   1.208   3.269  10.479  0.3001 -0.1363 -0.3929
  102OSM    O1210263   1.402   3.272  10.635 -0.1289  0.2220  0.0057
  102OSM    C1S10264   1.078   3.313  10.426 -0.3673  0.3071 -0.2788
  102OSM    H1S10265   1.065   3.422  10.441 -0.0483  0.4567 -1.0614
  102OSM    H1T10266   0.994   3.269  10.483 -0.2021  1.8384  1.2428
  102OSM     NF10267   0.931   3.357  10.232 -0.0853 -0.3274 -0.2109
  102OSM    HNF10268   0.851   3.298  10.223  0.9668 -1.5304 -2.4141
  102OSM    C2S10269   1.054   3.285  10.279  0.1398  0.4715  0.5556
  102OSM    H2S10270   1.135   3.335  10.222  1.4935 -0.8442  1.2711
  102OSM    C3S10271   1.047   3.132  10.257  0.5633 -0.1462 -0.0093
  102OSM    H3S10272   0.964   3.096  10.322 -0.5838  0.9010 -0.8583
  102OSM     O310273   1.173   3.072  10.298 -0.2478 -0.1600  0.1977
  102OSM    HO310274   1.213   3.145  10.346 -0.9141  0.6315 -0.4239
  102OSM    C4S10275   1.030   3.082  10.112  0.4048  0.4662  0.4720
  102OSM    H4S10276   1.125   3.057  10.061  1.1803 -1.4529  2.6857
  102OSM    C5S10277   0.912   3.036  10.068 -0.4044  0.1402  0.0194
  102OSM    H5S10278   0.821   3.035  10.131 -0.0309  2.3552  0.7108
  102OSM    C6S10279   0.890   2.983   9.927 -1.1298  0.7988 -0.0748
  102OSM    H6S10280   0.797   3.027   9.887 -0.9601  2.1268  0.9034
  102OSM    H6T10281   0.866   2.875   9.929  1.5141  0.0772 -1.6940
  102OSM    C7S10282   1.007   2.997   9.822  0.3065  0.4736  0.5531
  102OSM    H7S10283   1.106   2.962   9.858 -0.2385 -2.1629 -0.3199
  102OSM    H7T10284   1.026   3.105   9.802 -2.6654  1.3151  1.6548
  102OSM    C8S10285   0.975   2.922   9.687  0.0398  0.5080 -0.9003
  102OSM    H8S10286   0.868   2.941   9.667  0.0729  0.8453 -0.7467
  102OSM    H8T10287   0.965   2.811   9.693  0.6650  0.4060 -1.6171
  102OSM    C9S10288   1.060   2.963   9.566  0.1380 -0.1498 -0.5492
  102OSM    H9S10289   1.163   2.923   9.575 -0.2243 -0.7830  1.1881
  102OSM    H9T10290   1.057   3.074   9.571 -0.7182 -0.1221 -1.3353
  102OSM   C10S10291   1.000   2.917   9.440 -0.7979 -0.1903  0.2406
  102OSM   H10S10292   0.905   2.972   9.422  0.3947  2.1009  0.5571
  102OSM   H10T10293   0.977   2.810   9.461  1.3309 -0.6760  0.3399
  102OSM   C11S10294   1.089   2.943   9.321 -0.5282 -0.0441  0.3068
  102OSM   H11S10295   1.192   2.907   9.339 -0.3232 -2.3932 -4.0980
  102OSM   H11T10296   1.091   3.053   9.303  0.7157  0.1240  1.3696
  102OSM   C12S10297   1.031   2.887   9.191 -0.1369 -0.1472 -0.0890
  102OSM   H12S10298   0.935   2.940   9.170  1.0108  1.8647 -0.5440
  102OSM   H12T10299   1.016   2.778   9.205 -0.4064 -0.0272  0.5502
  102OSM   C13S10300   1.113   2.916   9.063 -0.5744 -0.1376 -0.1431
  102OSM   H13S10301   1.207   2.857   9.065 -0.4779 -0.0662  3.5506
  102OSM   H13T10302   1.145   3.022   9.063  0.1336 -0.3381 -1.0246
  102OSM   C14S10303   1.031   2.886   8.934  0.1974 -0.5279 -0.3535
  102OSM   H14S10304   1.068   2.962   8.861 -0.8132 -1.9307 -2.4365
  102OSM   H14T10305   0.925   2.905   8.961  0.2913 -0.3764 -0.0844
  102OSM   C15S10306   1.046   2.746   8.877 -0.2556 -0.2783  0.1263
  102OSM   H15S10307   0.993   2.678   8.947 -0.6678  0.5842  0.6713
  102OSM   H15T10308   1.153   2.719   8.871 -0.9537 -3.1312 -1.7600
  102OSM   C16S10309   0.989   2.723   8.729  0.2580  0.2883 -0.2078
  102OSM   H16S10310   1.008   2.811   8.663  1.8529  0.0709 -0.0837
  102OSM   H16T10311   0.879   2.724   8.742  0.3521  1.9237  0.7329
  102OSM   C17S10312   1.020   2.593   8.650  0.1253  0.3174 -0.4094
  102OSM   H17S10313   0.973   2.508   8.706  0.3996  1.4583  1.6527
  102OSM   H17T10314   1.124   2.553   8.657 -0.5484 -1.4635  0.1137
  102OSM   C18S10315   0.974   2.580   8.504  0.0834  0.1271  0.1931
  102OSM   H18S10316   1.032   2.648   8.439  0.8425 -1.3059 -0.6646
  102OSM   H18T10317   0.865   2.604   8.498 -0.2703 -1.6592 -1.6227
  102OSM   H18U10318   0.986   2.476   8.468  0.9738 -0.0501  0.9597
  102OSM    C1F10319   0.926   3.491  10.217  0.0457  0.2436  0.1996
  102OSM     OF10320   1.016   3.574  10.245  0.1889 -0.2641 -0.2847
  102OSM    C2F10321   0.792   3.538  10.167 -0.0479  0.2113 -0.6869
  102OSM    H2F10322   0.762   3.634  10.216 -2.6915 -0.6681 -0.3872
  102OSM    H2G10323   0.705   3.476  10.199  0.1669  0.3786  0.2377
  102OSM    C3F10324   0.793   3.560  10.009  0.4226  0.7365 -0.4397
  102OSM    H3F10325   0.858   3.650   9.997  0.6450  0.5549 -0.6098
  102OSM    H3G10326   0.689   3.591   9.989 -0.7864 -0.6913  2.8587
  102OSM    C4F10327   0.841   3.439   9.920 -0.0730  0.1442 -0.3013
  102OSM    H4F10328   0.781   3.348   9.942  0.5604 -1.2809 -3.7549
  102OSM    H4G10329   0.950   3.418   9.928 -0.3934 -1.4683  0.3563
  102OSM    C5F10330   0.802   3.477   9.768 -0.3845  0.4486  0.6578
  102OSM    H5F10331   0.848   3.571   9.730  0.0211 -1.2129 -3.4909
  102OSM    H5G10332   0.692   3.496   9.769 -0.7054 -1.2509  0.4300
  102OSM    C6F10333   0.830   3.360   9.662  0.0647  0.6440 -0.0730
  102OSM    H6F10334   0.809   3.256   9.693  1.5857  0.0661 -0.8599
  102OSM    H6G10335   0.937   3.364   9.632 -0.0831  0.8295 -0.5895
  102OSM    C7F10336   0.755   3.390   9.534 -0.1540 -0.0809  0.2830
  102OSM    H7F10337   0.782   3.496   9.510 -0.0176 -0.0018  0.7722
  102OSM    H7G10338   0.648   3.389   9.564 -1.1061 -2.8822 -2.6603
  102OSM    C8F10339   0.784   3.289   9.415  0.3315 -0.2965 -0.5473
  102OSM    H8F10340   0.706   3.313   9.340  0.5231 -2.3713 -1.4669
  102OSM    H8G10341   0.755   3.193   9.463  1.8967 -0.7477 -0.4518
  102OSM    C9F10342   0.924   3.271   9.364 -0.4441  0.9839  0.1773
  102OSM    H9F10343   0.992   3.214   9.430 -0.7898 -1.0415 -1.1309
  102OSM   C10F10344   0.974   3.305   9.247  0.3277  0.1464  0.5883
  102OSM   H10F10345   1.081   3.295   9.224 -0.0309 -2.1627 -0.3647
  102OSM   C11F10346   0.896   3.369   9.136 -0.5376 -0.1061  0.6356
  102OSM   H11F10347   0.922   3.476   9.122 -2.5570  0.0809 -3.0611
  102OSM   H11G10348   0.791   3.384   9.167 -0.3629  0.8285  0.8137
  102OSM   C12F10349   0.888   3.295   8.996 -0.7122  0.1001 -0.3581
  102OSM   H12F10350   0.809   3.336   8.930  1.0422  0.0143 -2.6305
  102OSM   H12G10351   0.847   3.194   9.017 -3.1237  1.2573  0.8394
  102OSM   C13F10352   1.018   3.291   8.915  0.8240  0.2744 -0.8791
  102OSM   H13F10353   1.092   3.237   8.978  0.9237  0.7172 -0.6186
  102OSM   H13G10354   1.057   3.391   8.889 -0.1120  0.6987 -0.6656
  102OSM   C14F10355   1.002   3.228   8.782 -0.1154 -0.0462  0.0332
  102OSM   H14F10356   0.925   3.288   8.729 -1.8817 -2.4685 -0.3249
  102OSM   H14G10357   0.953   3.128   8.786  0.8001 -0.4791  0.6131
  102OSM   C15F10358   1.124   3.244   8.696 -0.0211  0.3733  0.9615
  102OSM   H15F10359   1.210   3.197   8.748 -0.7298 -1.1039  0.8278
  102OSM   H15G10360   1.139   3.352   8.673 -0.0271 -0.1799 -1.9576
  102OSM   C16F10361   1.110   3.170   8.570  0.4102  0.0212  0.3061
  102OSM   H16F10362   1.015   3.197   8.521  0.5790  1.4175  0.6950
  102OSM   H16G10363   1.104   3.066   8.608 -1.2392 -0.1570 -0.3711
  102OSM   C17F10364   1.231   3.181   8.475  0.1274  0.0685  0.1521
  102OSM   H17F10365   1.227   3.291   8.464 -2.4005  0.1039  0.7068
  102OSM   H17G10366   1.201   3.139   8.377 -0.7063  0.6977  0.1311
  102OSM   C18F10367   1.356   3.124   8.537  0.1600 -0.1987 -0.0336
  102OSM   H18F10368   1.370   3.174   8.635  1.2070  0.2654 -0.4048
  102OSM   H18G10369   1.438   3.152   8.467 -0.3654 -1.8407 -1.3743
  102OSM   H18H10370   1.359   3.014   8.545  0.5226 -0.2083 -0.2839
  103OSM      N10371   0.019   5.744  10.972 -0.0347  0.2892  0.5561
  103OSM    C1510372   0.058   5.856  11.061  0.3234 -0.0621  0.7262
  103OSM   H15A10373   0.159   5.891  11.047 -0.9602  3.0006 -2.4155
  103OSM   H15B10374   0.029   5.830  11.162  0.2895  0.2333  0.7926
  103OSM   H15C10375   0.004   5.946  11.034  0.3893 -1.1837 -3.8080
  103OSM    C1410376   0.100   5.623  11.018  0.4475  0.4695  0.6433
  103OSM   H14A10377   0.207   5.637  11.020  0.5360  0.1515 -0.9240
  103OSM   H14B10378   0.079   5.539  10.953 -0.7727  1.1171  0.1619
  103OSM   H14C10379   0.066   5.599  11.118  0.1190  3.4293  1.3264
  103OSM    C1310380  -0.121   5.719  10.979  0.9130  0.4607 -0.3318
  103OSM   H13A10381  -0.153   5.714  11.082  0.7792 -1.0506 -0.4256
  103OSM   H13B10382  -0.141   5.621  10.938  1.6250 -0.6095  1.7187
  103OSM   H13C10383  -0.178   5.788  10.919 -1.7853 -2.1436 -1.0225
  103OSM    C1210384   0.063   5.769  10.827  0.4888 -0.5664 -0.1178
  103OSM   H12A10385   0.047   5.676  10.775 -0.4442 -0.4680 -0.0156
  103OSM   H12B10386   0.170   5.782  10.832  0.1733  2.6007  0.9180
  103OSM    C1110387   0.002   5.887  10.747 -0.1652  0.2785 -0.7477
  103OSM   H11A10388  -0.108   5.868  10.753 -0.1058  0.0890 -0.2066
  103OSM   H11B10389   0.039   5.877  10.644  1.2719 -0.6157 -0.1659
  103OSM      P10390  -0.044   6.133  10.772 -0.4855 -0.2965 -0.0722
  103OSM    O1310391  -0.149   6.145  10.876  0.2224  0.4250  0.0210
  103OSM    O1410392   0.034   6.261  10.757  0.1980  0.3137 -0.6425
  103OSM    O1110393  -0.110   6.105  10.631  0.4507 -0.0853  0.1991
  103OSM    O1210394   0.044   6.016  10.798  0.5603  0.8303  0.4096
  103OSM    C1S10395  -0.105   6.191  10.517 -0.1660  0.4168 -1.1696
  103OSM    H1S10396  -0.008   6.244  10.521  0.3616 -0.5592  2.2046
  103OSM    H1T10397  -0.192   6.261  10.522 -1.0824 -0.7334 -0.5299
  103OSM     NF10398  -0.099   6.207  10.264  0.5578  0.1192  0.3375
  103OSM    HNF10399  -0.176   6.204  10.201  1.8197 -1.0440 -1.2246
  103OSM    C2S10400  -0.109   6.113  10.375  0.3907 -0.0144 -1.1852
  103OSM    H2S10401  -0.018   6.051  10.367  2.5754  2.5903  1.3039
  103OSM    C3S10402  -0.235   6.021  10.377  0.8043 -0.4066  0.1439
  103OSM    H3S10403  -0.329   6.078  10.367  1.2293  0.3388  0.3650
  103OSM     O310404  -0.235   5.923  10.477 -0.1219 -0.2194  0.3195
  103OSM    HO310405  -0.176   5.956  10.545  0.1997  2.3611 -1.0943
  103OSM    C4S10406  -0.232   5.947  10.243  0.3536 -0.7388 -0.0871
  103OSM    H4S10407  -0.149   5.877  10.228  0.2333 -0.9328  0.1367
  103OSM    C5S10408  -0.328   5.950  10.153  0.6396  0.6572  0.0224
  103OSM    H5S10409  -0.413   6.017  10.171 -2.1590 -1.9522 -2.4298
  103OSM    C6S10410  -0.326   5.887  10.013  0.8213  0.6215 -0.6453
  103OSM    H6S10411  -0.428   5.902   9.972 -0.6880 -1.3524  2.0144
  103OSM    H6T10412  -0.319   5.776  10.016 -0.8072  0.5126  1.4543
  103OSM    C7S10413  -0.222   5.956   9.934 -0.2751 -0.3973  0.7423
  103OSM    H7S10414  -0.120   5.911   9.929  0.3574  1.1120 -1.7031
  103OSM    H7T10415  -0.217   6.063   9.963 -0.5905 -0.8215  2.4637
  103OSM    C8S10416  -0.257   5.950   9.781  0.2181 -0.1714 -0.1681
  103OSM    H8S10417  -0.363   5.981   9.771 -0.2376 -1.8649 -0.9092
  103OSM    H8T10418  -0.237   5.845   9.749 -0.0666  0.3405 -2.1576
  103OSM    C9S10419  -0.170   6.042   9.689  0.5852 -0.0601 -0.0588
  103OSM    H9S10420  -0.060   6.026   9.701  0.7501  0.5675 -0.6583
  103OSM    H9T10421  -0.183   6.147   9.722  2.4869  0.4542 -0.7829
  103OSM   C10S10422  -0.211   6.021   9.541 -0.1508 -0.6302 -0.0928
  103OSM   H10S10423  -0.318   6.050   9.528  0.5753  2.0609 -0.6810
  103OSM   H10T10424  -0.191   5.915   9.518  1.8874 -0.3815  0.3695
  103OSM   C11S10425  -0.133   6.106   9.440  0.1281  0.2402  0.2237
  103OSM   H11S10426  -0.028   6.083   9.470 -0.3216 -1.0987  0.8011
  103OSM   H11T10427  -0.150   6.215   9.451 -2.1987  0.0002 -0.5253
  103OSM   C12S10428  -0.162   6.085   9.288  0.0361 -0.1353 -0.7441
  103OSM   H12S10429  -0.119   6.170   9.231  1.7933 -0.8085 -0.5043
  103OSM   H12T10430  -0.271   6.068   9.272 -0.0294 -1.9839  1.1659
  103OSM   C13S10431  -0.087   5.954   9.247 -0.2368  0.4562  0.1517
  103OSM   H13S10432  -0.120   5.865   9.306  0.0294 -0.7605 -1.4686
  103OSM   H13T10433   0.018   5.957   9.282 -0.3132  4.0979  0.4830
  103OSM   C14S10434  -0.077   5.933   9.097  0.7633 -0.4744 -0.3714
  103OSM   H14S10435  -0.006   5.851   9.073  0.9467 -0.3703 -0.1804
  103OSM   H14T10436  -0.047   6.026   9.044  1.9999  0.5784  2.0310
  103OSM   C15S10437  -0.217   5.901   9.038  0.0086  0.2449 -0.0359
  103OSM   H15S10438  -0.278   5.994   9.036  0.2344  0.3972 -1.8772
  103OSM   H15T10439  -0.262   5.828   9.108  1.9278 -0.2657  0.7148
  103OSM   C16S10440  -0.217   5.866   8.889 -0.0830  0.3699 -0.1811
  103OSM   H16S10441  -0.320   5.827   8.874  0.4502 -0.8760 -0.6999
  103OSM   H16T10442  -0.142   5.789   8.862 -0.4215 -0.6082  1.5156
  103OSM   C17S10443  -0.189   5.995   8.803 -0.3302 -0.1233  0.7386
  103OSM   H17S10444  -0.087   6.030   8.829  0.0977  1.0688 -2.1076
  103OSM   H17T10445  -0.270   6.069   8.820 -1.2744 -0.8742 -0.3669
  103OSM   C18S10446  -0.205   5.974   8.651 -0.9055 -0.8850  0.4229
  103OSM   H18S10447  -0.302   5.932   8.619  0.4349 -2.7745 -1.4538
  103OSM   H18T10448  -0.132   5.893   8.630 -1.7224 -1.1898 -1.3757
  103OSM   H18U10449  -0.171   6.065   8.597 -0.0163  0.5311  3.1486
  103OSM    C1F10450   0.020   6.270  10.235  0.1122  0.0674  0.2628
  103OSM     OF10451   0.127   6.245  10.293 -0.6387 -0.2947 -0.8504
  103OSM    C2F10452   0.012   6.373  10.128  0.0741 -0.2393  0.3463
  103OSM    H2F10453  -0.045   6.460  10.168  0.5047 -0.2962  1.1009
  103OSM    H2G10454  -0.055   6.335  10.049 -1.3642 -2.0421  2.3059
  103OSM    C3F10455   0.148   6.429  10.061  0.1455  0.0695  0.1512
  103OSM    H3F10456   0.209   6.454  10.150  2.4021 -1.8656 -0.7226
  103OSM    H3G10457   0.123   6.520  10.003 -0.5084 -1.7538 -2.6395
  103OSM    C4F10458   0.221   6.323   9.975  0.0117 -0.1964  0.0054
  103OSM    H4F10459   0.239   6.228  10.030 -1.6765  0.1465  1.2014
  103OSM    H4G10460   0.321   6.364   9.947 -0.6103  1.1647 -0.3123
  103OSM    C5F10461   0.159   6.293   9.838 -0.0198 -0.0677 -0.1336
  103OSM    H5F10462   0.051   6.266   9.844  0.0894 -0.5201 -0.1812
  103OSM    H5G10463   0.210   6.205   9.795  0.0289 -0.6041  0.9704
  103OSM    C6F10464   0.179   6.409   9.740  0.0534  0.3902  0.1612
  103OSM    H6F10465   0.288   6.428   9.728 -0.1990  1.7845 -0.1024
  103OSM    H6G10466   0.149   6.504   9.789 -0.0635  0.0811  0.7039
  103OSM    C7F10467   0.114   6.397   9.604  0.1475  0.4985  0.6726
  103OSM    H7F10468   0.114   6.495   9.553  1.8275  0.5713  0.7596
  103OSM    H7G10469   0.006   6.389   9.628  0.5294  0.2819  2.3935
  103OSM    C8F10470   0.161   6.290   9.510 -0.0708  0.4861 -0.1609
  103OSM    H8F10471   0.099   6.289   9.418 -1.0425  0.8381  0.4713
  103OSM    H8G10472   0.141   6.190   9.554 -0.4269  0.8446  0.5207
  103OSM    C9F10473   0.306   6.283   9.476  0.0978  1.2135 -0.0999
  103OSM    H9F10474   0.369   6.368   9.509  1.9532  0.4242 -1.4513
  103OSM   C10F10475   0.381   6.192   9.407  0.6349 -0.1913 -0.3809
  103OSM   H10F10476   0.484   6.213   9.373  0.7901 -0.7076 -0.2455
  103OSM   C11F10477   0.321   6.061   9.358  0.5089  0.1332 -0.1200
  103OSM   H11F10478   0.212   6.056   9.381  0.3789  1.9895 -0.2231
  103OSM   H11G10479   0.369   5.971   9.402 -0.7907  1.0134  3.4281
  103OSM   C12F10480   0.322   6.050   9.202 -0.5821 -0.0881 -0.7308
  103OSM   H12F10481   0.276   5.950   9.183 -2.7215  0.9001 -0.9985
  103OSM   H12G10482   0.425   6.042   9.163  0.4030  1.2754  1.3700
  103OSM   C13F10483   0.266   6.167   9.119 -0.5953 -0.1753  0.4357
  103OSM   H13F10484   0.311   6.267   9.133 -1.3109  0.2468 -0.2328
  103OSM   H13G10485   0.162   6.182   9.157 -0.7737  0.9809 -0.4793
  103OSM   C14F10486   0.269   6.143   8.971 -0.8588 -0.7367 -0.0239
  103OSM   H14F10487   0.206   6.053   8.953 -0.9817 -0.2041 -2.5487
  103OSM   H14G10488   0.370   6.140   8.925 -1.3800  2.6797 -1.7015
  103OSM   C15F10489   0.198   6.252   8.897 -0.1493 -0.0089 -0.1356
  103OSM   H15F10490   0.273   6.333   8.883 -0.4003  0.2334 -0.0867
  103OSM   H15G10491   0.116   6.298   8.956  0.7599 -1.6904  2.6457
  103OSM   C16F10492   0.128   6.235   8.761 -0.4473 -0.1705 -0.3895
  103OSM   H16F10493   0.104   6.341   8.737 -1.3248 -0.2905 -0.0828
  103OSM   H16G10494   0.028   6.189   8.775 -0.0553 -0.6463  1.0592
  103OSM   C17F10495   0.210   6.162   8.662 -0.0708  0.0924  0.1314
  103OSM   H17F10496   0.149   6.144   8.571  0.9442  0.8380 -0.7204
  103OSM   H17G10497   0.245   6.067   8.708 -0.9139  0.0012  0.6020
  103OSM   C18F10498   0.341   6.225   8.610  0.5241 -0.4134  0.2650
  103OSM   H18F10499   0.397   6.265   8.697 -0.2050  0.2401  0.4529
  103OSM   H18G10500   0.314   6.312   8.547  1.3649 -1.8576 -2.2241
  103OSM   H18H10501   0.389   6.153   8.541 -0.8018 -0.8311 -0.2495
  104OSM      N10502   1.401   4.460  10.699 -0.5950  0.0946 -0.1313
  104OSM    C1510503   1.394   4.340  10.612  0.1799 -0.5995  0.2521
  104OSM   H15A10504   1.321   4.355  10.534 -1.1131 -1.1060  1.3348
  104OSM   H15B10505   1.366   4.246  10.658 -0.3717 -0.0056  1.1530
  104OSM   H15C10506   1.492   4.318  10.571  0.5200 -0.2764  0.8833
  104OSM    C1410507   1.264   4.503  10.729  0.0049 -0.1985 -0.8772
  104OSM   H14A10508   1.219   4.450  10.811 -0.1560  1.1887 -0.0286
  104OSM   H14B10509   1.198   4.520  10.645 -2.1326 -0.7581  0.6202
  104OSM   H14C10510   1.266   4.603  10.772  0.8177 -0.8018  0.5486
  104OSM    C1310511   1.466   4.408  10.825 -0.0808  0.1238  0.0218
  104OSM   H13A10512   1.400   4.352  10.889 -1.0009  0.9094 -0.2331
  104OSM   H13B10513   1.513   4.481  10.889  0.3982 -1.4921  1.5942
  104OSM   H13C10514   1.542   4.333  10.805  1.5051  0.9406  2.5634
  104OSM    C1210515   1.478   4.574  10.621 -0.4384  0.0325  0.6135
  104OSM   H12A10516   1.432   4.586  10.524  2.1887 -0.8619 -0.8398
  104OSM   H12B10517   1.578   4.536  10.600 -0.4196  0.4732 -0.1123
  104OSM    C1110518   1.483   4.708  10.692 -0.1834  0.2290  0.3040
  104OSM   H11A10519   1.540   4.779  10.628 -0.4795 -1.3396 -1.7803
  104OSM   H11B10520   1.542   4.690  10.785  0.9015  2.6220  0.1717
  104OSM      P10521   1.334   4.934  10.714  0.0189  0.2962 -0.2758
  104OSM    O1310522   1.187   4.961  10.730 -0.6306  0.1984  0.6063
  104OSM    O1410523   1.429   5.004  10.812  0.1196  0.2014  0.5744
  104OSM    O1110524   1.364   4.974  10.566 -0.2939  0.2432 -0.0032
  104OSM    O1210525   1.357   4.769  10.726 -0.1917  0.1190 -0.2507
  104OSM    C1S10526   1.282   4.926  10.458  0.3372  0.4845  0.2702
  104OSM    H1S10527   1.175   4.940  10.482 -0.2625 -0.5057 -1.6123
  104OSM    H1T10528   1.299   4.824  10.416  0.7850 -0.9032  3.5681
  104OSM     NF10529   1.202   5.009  10.242 -0.0902  0.5295  0.4601
  104OSM    HNF10530   1.198   4.938  10.172  0.4589  2.7361 -1.9348
  104OSM    C2S10531   1.319   5.013  10.329  0.3384 -0.0205 -0.4617
  104OSM    H2S10532   1.350   5.115  10.361  1.6322 -0.3489 -0.6115
  104OSM    C3S10533   1.446   4.958  10.259 -0.4376 -0.0222 -0.1693
  104OSM    H3S10534   1.409   4.857  10.229 -2.9010  0.3602  1.2598
  104OSM     O310535   1.557   4.940  10.347  0.1853  0.2701 -0.3419
  104OSM    HO310536   1.519   4.973  10.428 -0.2671 -0.5276 -0.2120
  104OSM    C4S10537   1.476   5.031  10.137 -0.3384 -0.6205 -0.5154
  104OSM    H4S10538   1.423   4.974  10.059 -0.0016 -1.9787  0.2116
  104OSM    C5S10539   1.542   5.148  10.119 -0.0894  0.7319 -0.2240
  104OSM    H5S10540   1.571   5.214  10.202 -0.3736 -0.1449  0.5831
  104OSM    C6S10541   1.569   5.206   9.983  0.0641  0.0150 -0.4895
  104OSM    H6S10542   1.610   5.309   9.989  2.4963 -0.9511  2.8935
  104OSM    H6T10543   1.477   5.207   9.921 -0.8425  3.5625  0.6798
  104OSM    C7S10544   1.680   5.123   9.906  0.5786 -0.1722 -0.5803
  104OSM    H7S10545   1.673   5.019   9.943  3.5750  0.3971  2.0089
  104OSM    H7T10546   1.779   5.164   9.935 -0.4874  0.5408  2.4220
  104OSM    C8S10547   1.659   5.125   9.756 -0.3285 -0.2901  0.3490
  104OSM    H8S10548   1.757   5.095   9.712 -0.3467  0.1825 -0.0173
  104OSM    H8T10549   1.630   5.226   9.722 -1.5689 -1.3299 -1.8412
  104OSM    C9S10550   1.554   5.015   9.710  0.0248  0.0590  0.0664
  104OSM    H9S10551   1.454   5.047   9.747 -0.8411  0.3101 -2.3394
  104OSM    H9T10552   1.581   4.919   9.758  0.4926  0.4292  0.5524
  104OSM   C10S10553   1.548   4.993   9.559  0.7810  0.6612  0.0137
  104OSM   H10S10554   1.513   4.891   9.533  0.0406  0.6005  1.2045
  104OSM   H10T10555   1.653   5.012   9.528  1.4399  1.8760  2.7135
  104OSM   C11S10556   1.457   5.099   9.473  0.4452  1.0171  0.0389
  104OSM   H11S10557   1.521   5.189   9.461  2.2257 -0.2793 -0.6757
  104OSM   H11T10558   1.364   5.130   9.525  0.9740  3.0355 -0.1100
  104OSM   C12S10559   1.443   5.043   9.337 -0.5588  0.2889 -0.0741
  104OSM   H12S10560   1.420   4.935   9.336  1.1567 -0.0904 -0.6308
  104OSM   H12T10561   1.540   5.041   9.284 -0.5350 -3.6416 -0.1619
  104OSM   C13S10562   1.342   5.107   9.249  0.0885 -0.2310 -0.4395
  104OSM   H13S10563   1.358   5.217   9.241 -2.3812  0.2497  0.2034
  104OSM   H13T10564   1.239   5.074   9.277  0.4402 -0.1768  0.9866
  104OSM   C14S10565   1.359   5.048   9.107  0.0366  0.2796  0.3775
  104OSM   H14S10566   1.338   4.938   9.104 -0.7176  0.4180 -1.6562
  104OSM   H14T10567   1.462   5.052   9.067 -1.2062 -0.5754 -3.3750
  104OSM   C15S10568   1.267   5.108   8.999 -0.5722  0.0941  0.2978
  104OSM   H15S10569   1.256   5.217   9.020 -1.5833  0.2386 -0.8862
  104OSM   H15T10570   1.169   5.057   9.009  0.0455 -1.7623 -2.1894
  104OSM   C16S10571   1.314   5.081   8.856 -0.2113  0.1193 -0.6498
  104OSM   H16S10572   1.322   4.976   8.822  0.6679  0.7404 -2.4623
  104OSM   H16T10573   1.410   5.137   8.846  0.1468 -0.0650  1.2820
  104OSM   C17S10574   1.208   5.140   8.751 -1.0539 -0.4594 -0.3665
  104OSM   H17S10575   1.257   5.152   8.652 -0.6246  0.5591 -0.0436
  104OSM   H17T10576   1.187   5.244   8.784  0.4974 -0.1054 -0.4220
  104OSM   C18S10577   1.085   5.055   8.734  0.0739 -0.5203  0.1311
  104OSM   H18S10578   1.118   4.964   8.680  0.0253 -0.5143  0.0910
  104OSM   H18T10579   1.020   5.105   8.659  0.2556 -1.2370 -0.5224
  104OSM   H18U10580   1.031   5.024   8.826  1.8541  0.9735  1.7852
  104OSM    C1F10581   1.098   5.077  10.273 -0.0035 -1.1436  0.2505
  104OSM     OF10582   1.107   5.162  10.364 -0.4997 -0.5074  0.0818
  104OSM    C2F10583   0.973   5.069  10.195 -0.3958  0.6883  0.9955
  104OSM    H2F10584   0.890   5.029  10.257 -1.3989 -0.7271 -1.1554
  104OSM    H2G10585   0.989   4.997  10.112  0.5228  0.4422  1.3673
  104OSM    C3F10586   0.937   5.193  10.108 -1.0461 -0.2294  0.2586
  104OSM    H3F10587   0.951   5.285  10.169  0.6010  0.6433 -1.3480
  104OSM    H3G10588   0.829   5.181  10.084 -1.4512 -0.3646  2.0067
  104OSM    C4F10589   1.028   5.210   9.983 -0.7198 -0.0737  0.3021
  104OSM    H4F10590   1.069   5.111   9.953  1.0421  0.6359  0.2088
  104OSM    H4G10591   1.123   5.255  10.020 -0.1984  0.1551 -1.2158
  104OSM    C5F10592   0.980   5.288   9.868 -0.1895 -0.1608  0.0067
  104OSM    H5F10593   0.958   5.394   9.892 -0.6840 -0.4005  0.6258
  104OSM    H5G10594   0.885   5.236   9.842 -0.5625  0.1114  0.8010
  104OSM    C6F10595   1.071   5.280   9.739 -0.6471 -0.1957  0.1422
  104OSM    H6F10596   1.089   5.176   9.705 -0.2712  0.0672 -0.4751
  104OSM    H6G10597   1.171   5.313   9.775 -0.1756 -1.8973  0.4753
  104OSM    C7F10598   1.011   5.363   9.625 -0.2160  0.8298 -0.1929
  104OSM    H7F10599   1.041   5.469   9.639  1.2446  0.4138 -0.0756
  104OSM    H7G10600   0.900   5.357   9.635 -0.1807  1.5200  0.7293
  104OSM    C8F10601   1.071   5.325   9.482  0.6520  0.2841  0.4513
  104OSM    H8F10602   1.022   5.238   9.432  2.7266 -0.2547 -0.7541
  104OSM    H8G10603   1.178   5.300   9.489  0.6349 -0.7201 -1.8185
  104OSM    C9F10604   1.044   5.450   9.401  0.1791 -0.5403 -0.6722
  104OSM    H9F10605   1.058   5.541   9.460  1.5425 -0.5943 -0.8805
  104OSM   C10F10606   1.007   5.462   9.274 -0.4509  0.7898 -0.0330
  104OSM   H10F10607   0.973   5.560   9.236 -0.7771  0.4473 -0.6372
  104OSM   C11F10608   0.987   5.348   9.169 -0.0687 -0.3616 -0.7636
  104OSM   H11F10609   1.031   5.249   9.192 -0.7283 -0.2745  1.0203
  104OSM   H11G10610   1.040   5.371   9.074  0.4227 -2.6380 -1.0970
  104OSM   C12F10611   0.839   5.310   9.134  0.0862  0.3424 -0.2457
  104OSM   H12F10612   0.790   5.397   9.086  0.8279  0.6309 -0.5033
  104OSM   H12G10613   0.773   5.283   9.218 -0.3677 -1.1148 -1.0440
  104OSM   C13F10614   0.845   5.196   9.033 -0.1276  0.0129 -0.0684
  104OSM   H13F10615   0.896   5.116   9.091  1.4510  3.3436  3.5812
  104OSM   H13G10616   0.920   5.233   8.960  0.3196  1.0462  0.8802
  104OSM   C14F10617   0.706   5.156   8.983  0.0662  0.1220 -0.3340
  104OSM   H14F10618   0.638   5.243   8.969  0.3177  0.5209  0.7827
  104OSM   H14G10619   0.661   5.088   9.059  2.2638 -0.1250  0.8335
  104OSM   C15F10620   0.703   5.075   8.850 -0.3981  0.4193 -0.0525
  104OSM   H15F10621   0.754   4.977   8.853 -2.8452 -0.9534 -0.5011
  104OSM   H15G10622   0.755   5.139   8.776  2.0767 -0.1973  1.0518
  104OSM   C16F10623   0.561   5.045   8.788 -0.6479  0.5390 -0.2099
  104OSM   H16F10624   0.512   5.144   8.779 -1.0243  0.3245 -0.5323
  104OSM   H16G10625   0.503   4.988   8.864 -0.8928 -0.0715 -0.8430
  104OSM   C17F10626   0.558   4.976   8.653  0.5786  0.3974  0.3516
  104OSM   H17F10627   0.452   4.964   8.622  0.4853 -2.4140  1.4875
  104OSM   H17G10628   0.607   4.880   8.679  1.0640 -0.1027 -2.1681
  104OSM   C18F10629   0.637   5.050   8.547 -0.8521 -0.2898  0.4191
  104OSM   H18F10630   0.611   5.008   8.447 -1.2017  1.3313 -0.2026
  104OSM   H18G10631   0.745   5.046   8.572 -1.1505  2.6220  2.7423
  104OSM   H18H10632   0.603   5.156   8.541 -1.1887 -0.4329 -0.2660
  105OSM      N10633   3.992   1.127  10.548 -0.2377  0.2363  0.2813
  105OSM    C1510634   4.129   1.061  10.532 -0.4030 -0.4949  0.7090
  105OSM   H15A10635   4.154   1.019  10.628 -0.2706  0.3594  1.0498
  105OSM   H15B10636   4.198   1.135  10.494 -0.6166 -1.3774 -1.5597
  105OSM   H15C10637   4.125   0.981  10.458 -0.5881 -0.6203  0.8531
  105OSM    C1410638   3.949   1.196  10.415 -0.3912  1.0173 -0.2621
  105OSM   H14A10639   3.872   1.271  10.429  1.0874  2.7521 -1.0419
  105OSM   H14B10640   3.906   1.126  10.345  0.1819  0.5617 -0.1622
  105OSM   H14C10641   4.030   1.236  10.356 -0.4632 -3.3978 -3.9387
  105OSM    C1310642   3.912   1.021  10.597  1.4831  0.5354  0.1444
  105OSM   H13A10643   3.903   0.937  10.529 -0.8793  0.8791 -0.0274
  105OSM   H13B10644   3.809   1.043  10.619  0.6473 -1.6292 -1.2169
  105OSM   H13C10645   3.949   0.982  10.691 -1.5573 -0.5752  0.9796
  105OSM    C1210646   4.013   1.244  10.649 -0.2355 -0.4169 -0.3021
  105OSM   H12A10647   4.091   1.308  10.611  0.2643  0.2199  1.6851
  105OSM   H12B10648   4.050   1.187  10.733  0.0631 -1.5627 -1.1888
  105OSM    C1110649   3.896   1.336  10.694  0.4232  0.4983 -0.2142
  105OSM   H11A10650   3.849   1.388  10.607  0.5543 -0.1218 -0.6640
  105OSM   H11B10651   3.939   1.413  10.762 -1.2349  2.5556 -1.3636
  105OSM      P10652   3.640   1.259  10.748  0.1126  0.0525 -0.0961
  105OSM    O1310653   3.597   1.120  10.775  0.2401  0.1669 -0.3937
  105OSM    O1410654   3.583   1.364  10.835 -0.2789 -0.1108 -0.3674
  105OSM    O1110655   3.623   1.301  10.597 -0.9978 -0.0327  0.2354
  105OSM    O1210656   3.800   1.262  10.762 -0.1123 -0.5613 -0.4146
  105OSM    C1S10657   3.547   1.216  10.504 -0.1493  1.4256 -0.1959
  105OSM    H1S10658   3.453   1.181  10.551  0.9848 -2.0196 -0.2181
  105OSM    H1T10659   3.604   1.128  10.466  0.1220  1.8688 -0.8401
  105OSM     NF10660   3.415   1.218  10.296  0.2632  0.1919  0.5888
  105OSM    HNF10661   3.447   1.189  10.206  1.2308  1.1939  0.5858
  105OSM    C2S10662   3.504   1.297  10.373  0.2940  0.0924 -0.2259
  105OSM    H2S10663   3.454   1.389  10.410 -0.2380 -0.5133  0.5922
  105OSM    C3S10664   3.629   1.326  10.289 -0.2872  0.8883  0.4368
  105OSM    H3S10665   3.671   1.230  10.254 -1.0735  0.9353 -0.6859
  105OSM     O310666   3.739   1.380  10.362 -0.1388  0.1953  0.3132
  105OSM    HO310667   3.699   1.381  10.450 -0.2558  1.5852  0.2707
  105OSM    C4S10668   3.606   1.417  10.171  0.3272 -0.3574 -0.2345
  105OSM    H4S10669   3.585   1.366  10.076  2.1757 -1.8013  0.0859
  105OSM    C5S10670   3.614   1.552  10.173  0.5632 -0.7576 -0.1001
  105OSM    H5S10671   3.624   1.601  10.271  1.1297 -0.1695 -0.4376
  105OSM    C6S10672   3.592   1.654  10.066  0.0093 -0.1406  0.3890
  105OSM    H6S10673   3.684   1.708  10.036 -0.0187  0.6880  1.7004
  105OSM    H6T10674   3.517   1.728  10.103 -1.5885 -0.4019 -2.0674
  105OSM    C7S10675   3.547   1.595   9.934 -0.3836  1.3743  0.4709
  105OSM    H7S10676   3.450   1.545   9.956 -0.2752  0.3300 -1.2105
  105OSM    H7T10677   3.617   1.520   9.892  0.4902  2.3849  0.0654
  105OSM    C8S10678   3.512   1.698   9.826  0.4554  0.4209  0.4365
  105OSM    H8S10679   3.617   1.722   9.800  1.0590 -1.7345  0.7346
  105OSM    H8T10680   3.454   1.784   9.867 -2.5319 -0.8634 -0.8153
  105OSM    C9S10681   3.425   1.649   9.712  0.2819  0.7477 -0.2907
  105OSM    H9S10682   3.400   1.733   9.643 -0.0406  0.4622 -0.5256
  105OSM    H9T10683   3.332   1.616   9.762 -0.3014  0.0636 -1.7682
  105OSM   C10S10684   3.474   1.535   9.623  0.1903  0.6744  0.0397
  105OSM   H10S10685   3.456   1.437   9.671  0.7027  1.0678  1.0625
  105OSM   H10T10686   3.581   1.558   9.603  0.4894 -1.2146 -0.6882
  105OSM   C11S10687   3.393   1.522   9.488 -0.4736 -0.3931 -0.1486
  105OSM   H11S10688   3.415   1.613   9.427 -0.6524 -1.6997 -2.2395
  105OSM   H11T10689   3.284   1.513   9.507 -0.3829  3.3451  3.9269
  105OSM   C12S10690   3.453   1.405   9.408  0.1253  0.2101 -0.7263
  105OSM   H12S10691   3.431   1.310   9.461  0.5800  0.4414 -0.1110
  105OSM   H12T10692   3.561   1.414   9.381 -0.1175  1.2524 -1.4025
  105OSM   C13S10693   3.378   1.395   9.269  0.0146 -0.2014 -0.2666
  105OSM   H13S10694   3.279   1.438   9.294  0.1017 -0.4410  0.5123
  105OSM   H13T10695   3.377   1.291   9.230  0.1937 -1.0586  1.8733
  105OSM   C14S10696   3.437   1.485   9.150  0.1758 -0.1708  0.5076
  105OSM   H14S10697   3.532   1.444   9.110  0.7462  1.4683  0.1302
  105OSM   H14T10698   3.464   1.585   9.191 -4.0185  1.9851 -1.3772
  105OSM   C15S10699   3.343   1.502   9.029  0.5494  0.4375  0.0782
  105OSM   H15S10700   3.241   1.523   9.068 -0.2149 -0.0804 -1.5518
  105OSM   H15T10701   3.347   1.406   8.973 -2.1862  0.5057 -0.3494
  105OSM   C16S10702   3.391   1.607   8.936 -0.0623 -0.5651 -0.2229
  105OSM   H16S10703   3.487   1.572   8.893 -0.3693 -0.1294 -1.2924
  105OSM   H16T10704   3.413   1.690   9.006  2.1068 -1.7299  0.5652
  105OSM   C17S10705   3.290   1.639   8.829 -0.6331  0.0806  0.2662
  105OSM   H17S10706   3.304   1.730   8.767 -3.8200 -0.2622 -1.1693
  105OSM   H17T10707   3.191   1.657   8.875 -1.5138 -0.3684 -1.3691
  105OSM   C18S10708   3.272   1.523   8.738  0.6667 -0.1257 -0.5288
  105OSM   H18S10709   3.193   1.455   8.776  0.3851  1.5363  2.1580
  105OSM   H18T10710   3.369   1.469   8.734  1.8690  1.8076  0.6196
  105OSM   H18U10711   3.248   1.566   8.638 -3.0949 -0.3669  0.1237
  105OSM    C1F10712   3.288   1.197  10.332  0.2638 -0.3871 -0.4161
  105OSM     OF10713   3.242   1.245  10.438 -0.5407 -0.0279  0.2893
  105OSM    C2F10714   3.197   1.130  10.237  0.2875 -0.1828 -0.3870
  105OSM    H2F10715   3.140   1.047  10.285 -2.1850 -0.7795 -3.9654
  105OSM    H2G10716   3.245   1.086  10.148  3.0343  0.9937  0.4135
  105OSM    C3F10717   3.082   1.216  10.177  0.7761  0.4843  0.1645
  105OSM    H3F10718   3.023   1.244  10.267 -0.1258 -0.4568 -0.1210
  105OSM    H3G10719   3.011   1.149  10.124 -0.2277  1.8639 -0.2959
  105OSM    C4F10720   3.115   1.343  10.094  0.3867 -0.1860 -0.3822
  105OSM    H4F10721   3.168   1.407  10.168 -0.7763 -0.2804  0.5711
  105OSM    H4G10722   3.021   1.388  10.056 -0.6835 -0.7339  1.4885
  105OSM    C5F10723   3.193   1.310   9.966 -0.4323 -0.4279  0.1979
  105OSM    H5F10724   3.274   1.238   9.992  0.4664 -1.2937 -4.2443
  105OSM    H5G10725   3.236   1.406   9.931 -0.2754 -0.1688  1.0574
  105OSM    C6F10726   3.107   1.240   9.863  0.4849  0.1551 -0.3814
  105OSM    H6F10727   3.003   1.280   9.861  0.3430 -0.1930 -0.0420
  105OSM    H6G10728   3.096   1.134   9.893 -0.0074  0.2133 -0.3471
  105OSM    C7F10729   3.169   1.245   9.722 -0.6183 -0.3125  0.1379
  105OSM    H7F10730   3.268   1.196   9.727  0.8193  2.1077 -2.1759
  105OSM    H7G10731   3.184   1.347   9.681 -0.4530 -0.9041 -1.3349
  105OSM    C8F10732   3.085   1.164   9.624  0.5225  0.1644  0.8549
  105OSM    H8F10733   3.098   1.058   9.651 -0.9748 -0.1035  0.6044
  105OSM    H8G10734   3.127   1.166   9.521 -2.1022 -2.3794 -0.4009
  105OSM    C9F10735   2.945   1.216   9.613 -0.0380  0.0747  0.3800
  105OSM    H9F10736   2.882   1.213   9.703  0.3056 -0.4946  0.6044
  105OSM   C10F10737   2.888   1.278   9.509  0.2514 -0.8133 -0.0237
  105OSM   H10F10738   2.783   1.310   9.517 -0.5845 -3.5494  0.7978
  105OSM   C11F10739   2.957   1.308   9.383 -0.8242 -0.3547  0.6536
  105OSM   H11F10740   2.973   1.215   9.324  0.6053  1.5988 -2.2308
  105OSM   H11G10741   3.051   1.366   9.397 -1.4732  0.5394  1.3886
  105OSM   C12F10742   2.869   1.394   9.302 -0.0215 -1.2867 -0.3982
  105OSM   H12F10743   2.850   1.488   9.359  2.9713 -1.3823  0.9000
  105OSM   H12G10744   2.777   1.333   9.289 -0.8515 -0.3469  0.7222
  105OSM   C13F10745   2.923   1.448   9.164 -1.0234 -0.3493 -0.1386
  105OSM   H13F10746   3.021   1.495   9.185 -0.4544 -0.7389 -1.7421
  105OSM   H13G10747   2.861   1.534   9.129  1.0366  1.9363  1.4640
  105OSM   C14F10748   2.939   1.358   9.045 -0.2188  0.2514  0.5276
  105OSM   H14F10749   2.983   1.266   9.089 -2.2641 -0.4209  1.2983
  105OSM   H14G10750   3.011   1.396   8.969 -1.1773  0.5686 -0.2557
  105OSM   C15F10751   2.807   1.309   8.987  0.1508  1.0598  0.0732
  105OSM   H15F10752   2.742   1.392   8.953 -0.3557 -0.5082 -3.1244
  105OSM   H15G10753   2.753   1.241   9.056  0.0739 -0.4771 -1.4440
  105OSM   C16F10754   2.821   1.214   8.867  0.2379  0.0582 -0.1287
  105OSM   H16F10755   2.725   1.167   8.839  0.5543  0.1455 -1.4122
  105OSM   H16G10756   2.878   1.124   8.899  2.2550  0.9090 -1.1011
  105OSM   C17F10757   2.870   1.284   8.742  0.1827  0.1828  0.6786
  105OSM   H17F10758   2.978   1.302   8.763  0.3419  1.6330 -1.1390
  105OSM   H17G10759   2.822   1.383   8.723 -1.0627 -0.4098  0.6410
  105OSM   C18F10760   2.863   1.198   8.616 -0.1075  0.3118 -0.5095
  105OSM   H18F10761   2.767   1.147   8.594  0.2273  0.2971 -2.0416
  105OSM   H18G10762   2.939   1.118   8.628 -1.7675 -1.5936 -1.9096
  105OSM   H18H10763   2.880   1.257   8.524  1.7340 -2.4603 -2.0768
  106OSM      N10764   3.418   0.370  10.694  0.0620  0.9148  0.1786
  106OSM    C1510765   3.480   0.237  10.666  0.1232  0.0014 -0.8784
  106OSM   H15A10766   3.405   0.160  10.666  1.0262 -1.0630  2.5512
  106OSM   H15B10767   3.539   0.207  10.752 -2.7978  1.5716  1.8928
  106OSM   H15C10768   3.529   0.228  10.571 -0.4126  3.2185 -1.5692
  106OSM    C1410769   3.342   0.360  10.828 -0.5471  0.5770  0.8148
  106OSM   H14A10770   3.308   0.461  10.849  0.0922  1.0424 -0.2861
  106OSM   H14B10771   3.403   0.326  10.910  2.2056  0.4572 -1.1216
  106OSM   H14C10772   3.255   0.298  10.814  0.9555 -1.4824  0.2655
  106OSM    C1310773   3.531   0.466  10.703  0.1056  0.4180 -0.2625
  106OSM   H13A10774   3.596   0.450  10.788 -0.9145  0.8547  0.6188
  106OSM   H13B10775   3.496   0.566  10.720  0.0386 -0.0492  3.1194
  106OSM   H13C10776   3.582   0.469  10.608 -0.6985 -0.3668 -0.7364
  106OSM    C1210777   3.323   0.398  10.582  0.0151  0.1744  0.3909
  106OSM   H12A10778   3.248   0.320  10.584 -0.0159  0.1211 -1.4053
  106OSM   H12B10779   3.370   0.381  10.486 -2.3158 -0.9053 -0.6470
  106OSM    C1110780   3.246   0.533  10.577  0.3216 -0.5983 -0.3333
  106OSM   H11A10781   3.219   0.562  10.473  3.6175 -1.5507 -1.5882
  106OSM   H11B10782   3.318   0.609  10.611  0.0348 -1.0977  1.5352
  106OSM      P10783   3.010   0.446  10.632 -0.1954  0.1330 -0.2455
  106OSM    O1310784   3.026   0.314  10.694 -0.1750 -0.1348 -0.1063
  106OSM    O1410785   2.884   0.517  10.660 -0.1708 -0.3185  0.3131
  106OSM    O1110786   3.012   0.419  10.480 -0.5889  0.1541 -0.0452
  106OSM    O1210787   3.129   0.537  10.666 -0.3684  0.1456  0.5164
  106OSM    C1S10788   2.956   0.498  10.383 -0.0655  0.0836 -0.0035
  106OSM    H1S10789   2.997   0.600  10.402 -1.7361  0.8867 -0.4559
  106OSM    H1T10790   2.845   0.501  10.392 -0.1438 -2.8773  0.7806
  106OSM     NF10791   2.953   0.554  10.144  0.0598  0.3388 -0.6849
  106OSM    HNF10792   2.865   0.538  10.100 -0.4374  0.4711  0.2269
  106OSM    C2S10793   3.002   0.463  10.240  0.8266 -0.6039 -0.0679
  106OSM    H2S10794   3.113   0.465  10.235  0.8279 -0.2040  0.1069
  106OSM    C3S10795   2.954   0.319  10.209  0.6778 -0.6786  0.0777
  106OSM    H3S10796   2.844   0.316  10.199  0.6172 -1.2767  0.8217
  106OSM     O310797   2.967   0.224  10.315  0.0179 -0.0614 -0.1537
  106OSM    HO310798   2.980   0.280  10.392  1.2814  0.6567 -0.8771
  106OSM    C4S10799   3.023   0.270  10.084  0.0736 -0.6186 -0.0560
  106OSM    H4S10800   2.962   0.296   9.996  1.2915  1.2632 -0.4049
  106OSM    C5S10801   3.141   0.203  10.071  0.5108  0.2791  0.0863
  106OSM    H5S10802   3.203   0.174  10.157  0.9485  0.5558 -0.1375
  106OSM    C6S10803   3.207   0.164   9.943  0.5003  0.5706 -0.1093
  106OSM    H6S10804   3.217   0.054   9.938 -1.1607  0.4558 -1.5259
  106OSM    H6T10805   3.311   0.204   9.945  0.3823  0.8879  1.9182
  106OSM    C7S10806   3.144   0.222   9.821 -0.3336  0.3252  0.0653
  106OSM    H7S10807   3.163   0.331   9.819  0.3289  0.2107 -0.9400
  106OSM    H7T10808   3.036   0.201   9.806  0.0375 -1.6828 -0.0626
  106OSM    C8S10809   3.214   0.185   9.690 -0.4663 -0.2455 -0.2046
  106OSM    H8S10810   3.172   0.082   9.679 -0.3684 -0.4061  0.8233
  106OSM    H8T10811   3.325   0.186   9.693 -0.4865  0.8303  0.6492
  106OSM    C9S10812   3.177   0.267   9.569 -0.2922 -0.5326 -0.6258
  106OSM    H9S10813   3.265   0.329   9.542  0.4181 -1.6051 -0.8786
  106OSM    H9T10814   3.097   0.336   9.603 -0.4444 -1.3771  0.8326
  106OSM   C10S10815   3.141   0.187   9.450  0.0236  0.9208  0.3297
  106OSM   H10S10816   3.034   0.156   9.455  0.2848  0.1840  1.6313
  106OSM   H10T10817   3.196   0.091   9.446 -1.1661  0.2425 -0.6711
  106OSM   C11S10818   3.174   0.243   9.320 -0.1800 -0.1737 -0.0261
  106OSM   H11S10819   3.180   0.166   9.241  0.9010 -0.0273 -0.1112
  106OSM   H11T10820   3.275   0.292   9.319 -1.0957  1.8654 -2.1479
  106OSM   C12S10821   3.083   0.354   9.269 -0.2889 -0.2041 -0.9232
  106OSM   H12S10822   3.093   0.440   9.338  1.0163 -0.7758 -0.3727
  106OSM   H12T10823   2.983   0.305   9.274 -0.6563  0.6764  1.3344
  106OSM   C13S10824   3.102   0.399   9.119  0.3217  0.2826  0.5781
  106OSM   H13S10825   3.014   0.463   9.096  0.6049 -0.5066 -3.5003
  106OSM   H13T10826   3.094   0.313   9.048  2.3174  1.3095 -1.0016
  106OSM   C14S10827   3.229   0.478   9.079  0.4074  0.2187 -0.6132
  106OSM   H14S10828   3.309   0.431   9.140 -0.5804  0.0332  0.5775
  106OSM   H14T10829   3.220   0.585   9.110  0.2217  0.4816 -1.5468
  106OSM   C15S10830   3.264   0.482   8.929 -0.6840 -0.1416  0.6842
  106OSM   H15S10831   3.195   0.551   8.875 -0.9027  0.0445  1.1960
  106OSM   H15T10832   3.242   0.380   8.890 -0.0997  0.5033 -1.4621
  106OSM   C16S10833   3.406   0.533   8.900 -0.1816  0.2176  0.4781
  106OSM   H16S10834   3.488   0.475   8.948  0.4729  0.9130  0.2385
  106OSM   H16T10835   3.416   0.643   8.916  2.4691  0.3370 -1.3932
  106OSM   C17S10836   3.419   0.509   8.749  0.4597  0.1587  0.5361
  106OSM   H17S10837   3.358   0.420   8.721  0.3812  0.3564  0.0658
  106OSM   H17T10838   3.525   0.477   8.742 -0.0153 -1.1899 -1.1538
  106OSM   C18S10839   3.389   0.627   8.657  0.1289  0.8900  0.3714
  106OSM   H18S10840   3.404   0.600   8.550  0.8972 -2.3848  1.1861
  106OSM   H18T10841   3.455   0.715   8.668  0.7406  0.3547  1.0856
  106OSM   H18U10842   3.281   0.654   8.663  0.1264  0.7454  1.0660
  106OSM    C1F10843   2.996   0.679  10.135  0.1551 -1.2697  0.4179
  106OSM     OF10844   3.095   0.716  10.200 -0.1977 -0.3134 -0.0692
  106OSM    C2F10845   2.924   0.776  10.045 -0.6726 -0.3366 -0.3367
  106OSM    H2F10846   2.856   0.830  10.113  0.8774  2.0795 -0.6021
  106OSM    H2G10847   2.855   0.726   9.973  1.0255  0.3139 -2.5195
  106OSM    C3F10848   3.015   0.879   9.979 -0.4026  0.1642 -0.4657
  106OSM    H3F10849   3.084   0.927  10.051 -1.9794 -0.5597  1.6255
  106OSM    H3G10850   2.944   0.961   9.958 -1.5811 -0.6606  0.1395
  106OSM    C4F10851   3.084   0.839   9.848  0.2052  0.6978  0.2651
  106OSM    H4F10852   3.150   0.753   9.873  0.0863  0.5929  0.2197
  106OSM    H4G10853   3.140   0.931   9.820  1.2678  0.6964  2.2179
  106OSM    C5F10854   2.983   0.792   9.738 -0.2266 -1.0907 -0.3186
  106OSM    H5F10855   2.910   0.874   9.717 -2.1839 -3.0878 -1.7934
  106OSM    H5G10856   2.921   0.704   9.764 -3.0086  0.6603 -0.4880
  106OSM    C6F10857   3.053   0.772   9.605 -0.0957 -0.1188  0.6218
  106OSM    H6F10858   3.096   0.669   9.602  1.1337  0.3780  0.4572
  106OSM    H6G10859   3.143   0.836   9.589  0.3098 -0.5530  1.1033
  106OSM    C7F10860   2.961   0.789   9.487  0.0741  0.0042 -0.2601
  106OSM    H7F10861   2.901   0.883   9.494  1.0716  0.8662 -2.2993
  106OSM    H7G10862   2.896   0.699   9.494  1.5441 -1.0593  0.2625
  106OSM    C8F10863   3.045   0.780   9.356  0.8933  0.0201  0.1788
  106OSM    H8F10864   3.109   0.689   9.364  1.0546 -0.1343 -2.1188
  106OSM    H8G10865   3.112   0.868   9.350 -0.6519  1.4617  2.6292
  106OSM    C9F10866   2.964   0.758   9.232 -0.3803 -0.1100  0.0719
  106OSM    H9F10867   2.891   0.675   9.236 -2.0116  1.2863  0.1881
  106OSM   C10F10868   2.973   0.813   9.107 -0.7801  0.0295  0.2878
  106OSM   H10F10869   2.895   0.791   9.032  0.4488 -1.7330 -0.5635
  106OSM   C11F10870   3.080   0.923   9.067  0.4777  0.5324  0.2447
  106OSM   H11F10871   3.148   0.942   9.153  0.5479 -2.1987  0.9035
  106OSM   H11G10872   3.028   1.016   9.037  0.4187  0.8905  1.4230
  106OSM   C12F10873   3.165   0.863   8.953 -0.2748  0.0637  0.2875
  106OSM   H12F10874   3.098   0.841   8.867  1.5892 -2.0152 -0.7446
  106OSM   H12G10875   3.205   0.763   8.983  0.8599  0.4008 -0.0442
  106OSM   C13F10876   3.261   0.972   8.902  0.1159  0.4172 -0.8480
  106OSM   H13F10877   3.358   0.926   8.870 -0.6856 -2.5546  0.5778
  106OSM   H13G10878   3.280   1.045   8.983 -1.4308 -0.3755  0.2802
  106OSM   C14F10879   3.203   1.051   8.788 -0.8646  0.6284 -0.1069
  106OSM   H14F10880   3.101   1.091   8.810 -0.6708  1.1671 -0.1843
  106OSM   H14G10881   3.192   0.980   8.703 -0.7651  2.3770 -1.6427
  106OSM   C15F10882   3.287   1.174   8.750 -0.4514  0.0322 -0.3128
  106OSM   H15F10883   3.297   1.242   8.837 -2.4024  0.8286 -0.6519
  106OSM   H15G10884   3.256   1.242   8.667  1.9860  0.2483 -1.1102
  106OSM   C16F10885   3.423   1.133   8.697 -0.0751  0.0678  0.3125
  106OSM   H16F10886   3.415   1.113   8.588 -2.1416 -0.9819  0.5989
  106OSM   H16G10887   3.465   1.042   8.746  1.1417  1.3637  1.8027
  106OSM   C17F10888   3.525   1.243   8.720 -0.1338 -0.2252 -0.2279
  106OSM   H17F10889   3.509   1.282   8.822 -0.1184  0.6332 -0.5417
  106OSM   H17G10890   3.506   1.328   8.650  0.2858  1.2261  1.3376
  106OSM   C18F10891   3.665   1.193   8.695  0.4401  0.5426  0.2819
  106OSM   H18F10892   3.727   1.281   8.667 -1.2051  1.9842  0.9826
  106OSM   H18G10893   3.668   1.121   8.610 -1.2179 -1.3232  1.6908
  106OSM   H18H10894   3.695   1.140   8.789  0.9681  1.5834  0.7124
  107OSM      N10895   5.581   4.040  10.925  0.5035 -0.4182 -0.4850
  107OSM    C1510896   5.603   4.007  11.068  0.7148 -0.0369  0.1104
  107OSM   H15A10897   5.657   3.913  11.072  0.7880 -0.1061 -1.5852
  107OSM   H15B10898   5.510   3.985  11.117  1.4825 -2.8682  0.5203
  107OSM   H15C10899   5.651   4.087  11.121 -1.3572  0.2822  1.6080
  107OSM    C1410900   5.475   4.144  10.927  0.0681 -0.1073  0.3497
  107OSM   H14A10901   5.501   4.235  10.978  0.1158  0.3314 -0.4443
  107OSM   H14B10902   5.385   4.114  10.979  0.1864 -1.3443 -0.1222
  107OSM   H14C10903   5.451   4.176  10.827  2.5598 -0.3396 -0.3937
  107OSM    C1310904   5.712   4.093  10.886  0.2326  0.2290  0.6509
  107OSM   H13A10905   5.770   4.151  10.955 -0.3527  0.0942  1.2604
  107OSM   H13B10906   5.707   4.143  10.790  0.5009 -0.5406  0.2204
  107OSM   H13C10907   5.784   4.015  10.863  0.3174  0.7475 -1.0049
  107OSM    C1210908   5.540   3.926  10.839  0.2367 -0.4158  0.0784
  107OSM   H12A10909   5.528   3.971  10.742 -2.0495 -0.5301  0.2633
  107OSM   H12B10910   5.438   3.905  10.866 -0.3737  0.9746 -1.0342
  107OSM    C1110911   5.636   3.807  10.831  0.2810  0.1121 -0.4496
  107OSM   H11A10912   5.597   3.722  10.772  2.3320 -0.8922 -0.4452
  107OSM   H11B10913   5.651   3.759  10.930  2.5750  0.9487 -0.3148
  107OSM      P10914   5.876   3.761  10.725  0.2980 -0.3500  0.1472
  107OSM    O1310915   6.001   3.837  10.750 -0.3911  0.0545  0.0814
  107OSM    O1410916   5.866   3.624  10.783  0.3675  0.3503 -0.5684
  107OSM    O1110917   5.848   3.762  10.572  0.2921 -0.1085 -0.0458
  107OSM    O1210918   5.763   3.849  10.778  0.2100 -0.4078  0.3765
  107OSM    C1S10919   5.762   3.856  10.510 -0.4354  0.3422  0.4754
  107OSM    H1S10920   5.774   3.955  10.559 -1.0213  0.7494 -0.1882
  107OSM    H1T10921   5.657   3.818  10.513 -0.4431  0.4009  1.3888
  107OSM     NF10922   5.708   3.971  10.297  0.7118  0.1765  0.2157
  107OSM    HNF10923   5.653   3.940  10.220  0.1189 -0.3148  0.8224
  107OSM    C2S10924   5.796   3.878  10.358 -0.3545  0.7379  0.2700
  107OSM    H2S10925   5.904   3.904  10.346  0.0572 -1.4466 -1.5472
  107OSM    C3S10926   5.794   3.730  10.296 -1.0242  0.6285  0.8287
  107OSM    H3S10927   5.696   3.685  10.319  0.0954 -2.2172  0.4723
  107OSM     O310928   5.891   3.640  10.345  0.5754 -0.5541  0.1250
  107OSM    HO310929   5.926   3.686  10.422 -1.5125  2.6593 -0.6483
  107OSM    C4S10930   5.809   3.742  10.142  0.7327 -0.0968  0.1258
  107OSM    H4S10931   5.715   3.762  10.089  1.6063  3.8278 -0.2434
  107OSM    C5S10932   5.925   3.749  10.073 -0.3089  0.4458  0.1412
  107OSM    H5S10933   6.020   3.741  10.129  0.0935  1.0898 -0.4394
  107OSM    C6S10934   5.938   3.769   9.927 -0.2788 -1.3557  0.1926
  107OSM    H6S10935   6.006   3.698   9.876 -0.0432  0.6504 -2.5804
  107OSM    H6T10936   5.981   3.870   9.906  1.1355 -1.3693  2.7480
  107OSM    C7S10937   5.808   3.756   9.840  0.3662  0.0014 -0.0116
  107OSM    H7S10938   5.727   3.826   9.869  2.1536  2.0713  0.2097
  107OSM    H7T10939   5.765   3.656   9.866 -0.0628  0.2767  0.3518
  107OSM    C8S10940   5.848   3.758   9.695  0.6884  0.5140  0.5158
  107OSM    H8S10941   5.939   3.695   9.682  0.7490  0.4763  1.1022
  107OSM    H8T10942   5.872   3.864   9.671  1.9025  0.1397  0.0031
  107OSM    C9S10943   5.731   3.687   9.618  0.6051  0.0030  0.5105
  107OSM    H9S10944   5.639   3.748   9.631  0.3732 -0.1013 -0.5139
  107OSM    H9T10945   5.709   3.589   9.665 -0.7816  0.0916  0.0861
  107OSM   C10S10946   5.766   3.676   9.468  0.0949  0.3816 -0.7826
  107OSM   H10S10947   5.724   3.577   9.437 -1.3799  0.2742  1.3311
  107OSM   H10T10948   5.876   3.684   9.456  0.0883  1.3654 -0.2449
  107OSM   C11S10949   5.695   3.786   9.380  0.4869 -0.2740  0.1461
  107OSM   H11S10950   5.749   3.882   9.395  1.5669 -0.8213 -0.2130
  107OSM   H11T10951   5.588   3.804   9.404  0.7792  0.9106  0.6386
  107OSM   C12S10952   5.703   3.749   9.231  0.0352 -0.3756 -0.1155
  107OSM   H12S10953   5.643   3.823   9.174  1.3151 -0.3218 -1.4531
  107OSM   H12T10954   5.672   3.644   9.219  0.7073 -0.6965  0.8317
  107OSM   C13S10955   5.845   3.779   9.174  0.6332  0.1833  0.6869
  107OSM   H13S10956   5.901   3.690   9.209  1.3033  0.4841  0.3954
  107OSM   H13T10957   5.882   3.872   9.223 -0.8246  1.7228 -1.0019
  107OSM   C14S10958   5.864   3.800   9.030 -0.2652 -0.6362  0.3323
  107OSM   H14S10959   5.961   3.853   9.015 -0.7222 -0.0506 -0.6511
  107OSM   H14T10960   5.787   3.854   8.971 -0.6486  0.1130  1.4891
  107OSM   C15S10961   5.885   3.664   8.953  0.0704  0.5596 -0.2078
  107OSM   H15S10962   5.806   3.588   8.970  1.7345 -1.6385 -1.6550
  107OSM   H15T10963   5.979   3.618   8.990  0.5601  1.3891 -0.3962
  107OSM   C16S10964   5.891   3.677   8.801 -0.2391  0.3798  0.3950
  107OSM   H16S10965   5.941   3.774   8.782 -2.7517  1.8739  1.0138
  107OSM   H16T10966   5.786   3.684   8.766  0.1466  3.2065 -0.4484
  107OSM   C17S10967   5.959   3.555   8.725 -0.6896  0.1049 -0.0210
  107OSM   H17S10968   5.894   3.468   8.751  0.2073  0.0739  2.3108
  107OSM   H17T10969   6.053   3.533   8.780 -1.3903 -1.1762  0.7120
  107OSM   C18S10970   5.968   3.560   8.572 -0.3274  0.2881 -0.3585
  107OSM   H18S10971   5.992   3.468   8.516 -1.1485  0.1246 -0.4559
  107OSM   H18T10972   6.047   3.633   8.545  1.0808 -1.0415  0.0536
  107OSM   H18U10973   5.871   3.594   8.529 -2.1402 -0.5819  2.6773
  107OSM    C1F10974   5.705   4.099  10.340  0.0462 -0.4246 -0.1941
  107OSM     OF10975   5.797   4.135  10.410  0.4869  0.1311  0.2634
  107OSM    C2F10976   5.588   4.187  10.313  0.6238 -0.0236  0.3889
  107OSM    H2F10977   5.513   4.155  10.389 -0.2894 -0.2294 -0.5728
  107OSM    H2G10978   5.541   4.157  10.217 -0.9146  1.3613  0.6602
  107OSM    C3F10979   5.621   4.342  10.310  0.6579 -0.6583 -0.0982
  107OSM    H3F10980   5.690   4.376  10.230  0.1249 -0.6833 -0.5761
  107OSM    H3G10981   5.658   4.373  10.410 -0.5333  0.4755  0.0190
  107OSM    C4F10982   5.501   4.433  10.286  0.2728  0.4463 -0.1452
  107OSM    H4F10983   5.422   4.431  10.364 -0.2001 -1.5543 -0.6178
  107OSM    H4G10984   5.453   4.401  10.191  1.3909  1.0539 -0.9344
  107OSM    C5F10985   5.546   4.577  10.252 -0.2489  0.0994  0.1753
  107OSM    H5F10986   5.598   4.570  10.154  2.1936 -0.3324  1.4210
  107OSM    H5G10987   5.634   4.617  10.308  2.3377 -2.2415 -1.8887
  107OSM    C6F10988   5.431   4.675  10.234  0.5099  0.2612  0.0006
  107OSM    H6F10989   5.349   4.649  10.304 -1.0043 -1.2860 -2.2166
  107OSM    H6G10990   5.386   4.672  10.133  1.2221 -1.4733 -0.3017
  107OSM    C7F10991   5.471   4.821  10.266  0.8027 -0.2425 -1.0207
  107OSM    H7F10992   5.513   4.807  10.368  0.2510 -2.5534 -1.0566
  107OSM    H7G10993   5.381   4.886  10.269  0.7786 -0.2991 -0.4724
  107OSM    C8F10994   5.571   4.877  10.165 -0.4867  0.0944 -0.4125
  107OSM    H8F10995   5.528   4.847  10.067 -0.2211 -1.1902 -0.1571
  107OSM    H8G10996   5.670   4.826  10.174 -0.2350 -0.0539 -3.1231
  107OSM    C9F10997   5.584   5.024  10.182  0.1792 -1.0212  0.3134
  107OSM    H9F10998   5.681   5.057  10.222  0.0268  0.4139 -0.4432
  107OSM   C10F10999   5.505   5.125  10.131  0.6600  0.6189  1.1392
  107OSM   H10F11000   5.530   5.232  10.144  1.9304  0.6959 -1.3264
  107OSM   C11F11001   5.384   5.087  10.047 -0.2937  0.1174 -0.5394
  107OSM   H11F11002   5.308   5.169  10.049  0.5821  0.9933 -1.8017
  107OSM   H11G11003   5.337   4.994  10.086 -1.4758  0.2200 -1.6712
  107OSM   C12F11004   5.413   5.076   9.901  1.1580 -0.8835 -0.4943
  107OSM   H12F11005   5.494   5.001   9.892  1.9453 -0.1748  0.4834
  107OSM   H12G11006   5.446   5.176   9.865 -0.7785  0.5956  1.5306
  107OSM   C13F11007   5.297   5.035   9.802  0.6243  0.0516  0.2456
  107OSM   H13F11008   5.214   5.106   9.820  1.5092  0.7543  1.7479
  107OSM   H13G11009   5.252   4.935   9.822 -1.4862  0.5928 -1.4458
  107OSM   C14F11010   5.334   5.047   9.655  0.7763 -0.0651  0.1823
  107OSM   H14F11011   5.434   5.000   9.644  0.5113 -0.7824  0.7399
  107OSM   H14G11012   5.349   5.153   9.626  1.9314 -0.0858  0.6538
  107OSM   C15F11013   5.232   4.989   9.557  0.2164  0.2790 -0.4054
  107OSM   H15F11014   5.197   4.892   9.599  2.7900 -0.1627  0.9719
  107OSM   H15G11015   5.282   4.964   9.461  2.2769 -0.5436  0.8251
  107OSM   C16F11016   5.121   5.094   9.539 -0.2534 -0.4127 -0.6533
  107OSM   H16F11017   5.154   5.200   9.539 -1.9845  0.1501 -0.7775
  107OSM   H16G11018   5.055   5.086   9.628  1.3080  0.7198  0.6623
  107OSM   C17F11019   5.043   5.074   9.410 -0.2961  0.6125  0.3548
  107OSM   H17F11020   5.016   4.968   9.394  1.4728  0.1758  0.0561
  107OSM   H17G11021   5.121   5.086   9.332 -0.0287  1.1399  0.6945
  107OSM   C18F11022   4.929   5.175   9.390  0.4226 -0.8366  0.0762
  107OSM   H18F11023   4.838   5.155   9.450 -0.7203 -0.7656 -1.5750
  107OSM   H18G11024   4.902   5.190   9.283 -2.2325  2.7144  1.0516
  107OSM   H18H11025   4.965   5.267   9.440 -0.7919  1.7133 -3.3184
  108OSM      N11026   2.406   6.539  10.886  0.2721  0.1556 -0.4450
  108OSM    C1511027   2.525   6.622  10.848  0.0148 -0.2130 -0.4014
  108OSM   H15A11028   2.520   6.721  10.892 -0.9142 -0.1391 -0.6427
  108OSM   H15B11029   2.535   6.640  10.742  1.6486  1.2903 -0.0366
  108OSM   H15C11030   2.620   6.579  10.875 -0.2618 -2.6532 -2.8107
  108OSM    C1411031   2.403   6.488  11.027  0.1962 -0.9779  0.1473
  108OSM   H14A11032   2.337   6.403  11.033 -0.0438 -0.7121  1.3983
  108OSM   H14B11033   2.379   6.562  11.102  2.1149 -0.4940  0.3366
  108OSM   H14C11034   2.494   6.441  11.061  1.3019  0.8698 -0.1199
  108OSM    C1311035   2.282   6.627  10.863  0.1151 -0.6438  0.4633
  108OSM   H13A11036   2.189   6.571  10.869 -1.0738  1.0527 -1.2118
  108OSM   H13B11037   2.287   6.674  10.767 -0.0052 -1.0362  0.2621
  108OSM   H13C11038   2.276   6.709  10.932  1.4986  0.4597 -0.6715
  108OSM    C1211039   2.403   6.419  10.797  0.0383 -0.1459  1.2141
  108OSM   H12A11040   2.308   6.373  10.818 -1.2887  1.0916 -1.4692
  108OSM   H12B11041   2.481   6.350  10.826 -0.1430 -0.4382  1.0089
  108OSM    C1111042   2.417   6.427  10.638 -0.7555 -0.1973 -0.0707
  108OSM   H11A11043   2.321   6.464  10.595 -1.3222 -3.2708 -1.7279
  108OSM   H11B11044   2.423   6.323  10.599 -1.0120  0.4108 -1.7865
  108OSM      P11045   2.643   6.434  10.526  0.2302 -0.2749 -0.0646
  108OSM    O1311046   2.756   6.527  10.499 -0.0557  0.5291 -0.0648
  108OSM    O1411047   2.667   6.314  10.615  0.4185 -0.2923 -0.5633
  108OSM    O1111048   2.586   6.380  10.389  0.5901 -0.1216 -0.5541
  108OSM    O1211049   2.520   6.515  10.589 -0.2199 -0.3612 -0.2212
  108OSM    C1S11050   2.503   6.478  10.310 -0.3705  0.4913  0.4292
  108OSM    H1S11051   2.566   6.565  10.283  0.1663 -0.3322 -1.1733
  108OSM    H1T11052   2.411   6.511  10.362 -1.8433 -1.2889 -0.8865
  108OSM     NF11053   2.405   6.497  10.083 -0.1585  0.3523  0.4505
  108OSM    HNF11054   2.306   6.486  10.075 -0.0308  0.2971 -1.2925
  108OSM    C2S11055   2.458   6.405  10.181 -0.6781  0.2108 -0.1768
  108OSM    H2S11056   2.550   6.369  10.129  0.1935  2.1319 -0.0429
  108OSM    C3S11057   2.363   6.290  10.223  1.1413  0.0510  0.4125
  108OSM    H3S11058   2.267   6.321  10.269  1.0292 -0.3503  0.4527
  108OSM     O311059   2.415   6.197  10.315 -0.0048 -0.3840 -0.2057
  108OSM    HO311060   2.472   6.253  10.368  2.1470 -0.7705 -1.9363
  108OSM    C4S11061   2.325   6.210  10.098  0.0800 -0.1555 -0.0364
  108OSM    H4S11062   2.402   6.136  10.072 -0.9041 -0.6190 -1.8359
  108OSM    C5S11063   2.208   6.220  10.022 -0.0675  0.2280 -0.2298
  108OSM    H5S11064   2.130   6.292  10.052  0.1896  0.0035  1.0627
  108OSM    C6S11065   2.176   6.140   9.901  0.6849 -0.0407  0.2841
  108OSM    H6S11066   2.069   6.111   9.898  0.5769  0.3760 -0.1101
  108OSM    H6T11067   2.238   6.047   9.897 -1.2226 -1.3429 -0.4702
  108OSM    C7S11068   2.193   6.220   9.771 -0.3476 -0.5491 -0.0589
  108OSM    H7S11069   2.281   6.286   9.788 -0.8771 -0.3260  2.1291
  108OSM    H7T11070   2.104   6.280   9.746 -1.9582 -2.3893  0.9693
  108OSM    C8S11071   2.229   6.129   9.656  0.1632  0.2467 -0.0759
  108OSM    H8S11072   2.158   6.045   9.642  1.8484 -0.7852 -3.5387
  108OSM    H8T11073   2.335   6.097   9.658 -0.1322 -0.7291  1.0317
  108OSM    C9S11074   2.207   6.194   9.521 -0.1759 -0.4537  0.1011
  108OSM    H9S11075   2.279   6.277   9.506 -1.0541  0.4291  0.6219
  108OSM    H9T11076   2.103   6.233   9.512 -0.1021  0.1745  1.6595
  108OSM   C10S11077   2.237   6.095   9.414 -0.2656 -0.5480 -1.3019
  108OSM   H10S11078   2.172   6.004   9.420 -0.3105 -0.4399  1.6641
  108OSM   H10T11079   2.343   6.068   9.435 -0.1650  1.6844  1.8047
  108OSM   C11S11080   2.214   6.145   9.271 -0.2496 -0.2638  0.4050
  108OSM   H11S11081   2.281   6.233   9.266  1.2775 -1.2412  2.5376
  108OSM   H11T11082   2.109   6.180   9.262  0.0135  0.5122  0.2476
  108OSM   C12S11083   2.252   6.047   9.157  1.1963 -0.1474  0.0663
  108OSM   H12S11084   2.202   5.953   9.190  1.3557 -0.0794  0.4951
  108OSM   H12T11085   2.362   6.034   9.161  1.6934  1.7241 -3.4596
  108OSM   C13S11086   2.217   6.108   9.019  0.4919  0.2090  0.6777
  108OSM   H13S11087   2.292   6.185   8.991 -0.9618  0.7605 -2.1726
  108OSM   H13T11088   2.112   6.145   9.016  0.1870 -0.3858 -4.4729
  108OSM   C14S11089   2.233   5.997   8.908  0.7005  0.1628 -1.0086
  108OSM   H14S11090   2.179   5.904   8.937  0.0986  0.6657 -0.4825
  108OSM   H14T11091   2.342   5.974   8.911  0.8242  0.7376  2.4309
  108OSM   C15S11092   2.192   6.040   8.770 -0.0103 -1.0470  0.4065
  108OSM   H15S11093   2.268   6.119   8.748  0.5195 -0.8167  2.7946
  108OSM   H15T11094   2.088   6.079   8.769  0.7043  1.0032  0.0968
  108OSM   C16S11095   2.208   5.934   8.659  0.3973  0.7963  0.3528
  108OSM   H16S11096   2.294   5.865   8.653 -1.0975 -1.2447  1.3737
  108OSM   H16T11097   2.190   5.986   8.563  1.4594 -0.2918 -0.4514
  108OSM   C17S11098   2.102   5.827   8.671  0.3211  0.4345 -0.6484
  108OSM   H17S11099   1.999   5.869   8.676  0.2351  0.1989 -0.3358
  108OSM   H17T11100   2.111   5.766   8.764  0.6360 -1.2774 -1.7485
  108OSM   C18S11101   2.101   5.728   8.551 -0.0349  0.5286  0.0874
  108OSM   H18S11102   2.047   5.767   8.463  1.7232  2.3135 -0.2803
  108OSM   H18T11103   2.054   5.628   8.566 -2.9924  1.3390 -2.8080
  108OSM   H18U11104   2.205   5.720   8.513 -0.2703  0.0803 -0.4756
  108OSM    C1F11105   2.476   6.591  10.024 -0.1463  0.5190  0.2069
  108OSM     OF11106   2.593   6.622  10.055 -0.3302  0.0970  0.2156
  108OSM    C2F11107   2.403   6.652   9.910  0.4920  0.0642  0.4233
  108OSM    H2F11108   2.346   6.740   9.948  2.2010  0.6444  1.7439
  108OSM    H2G11109   2.328   6.583   9.866 -0.0293  1.0014 -0.2047
  108OSM    C3F11110   2.504   6.695   9.802 -0.0730  0.1763  0.9024
  108OSM    H3F11111   2.560   6.607   9.764 -2.7792 -1.1363 -0.2837
  108OSM    H3G11112   2.569   6.777   9.840 -0.7984  0.9692  0.4458
  108OSM    C4F11113   2.436   6.750   9.671  0.4379 -0.1694 -0.9079
  108OSM    H4F11114   2.520   6.791   9.612 -0.7257  0.8166 -1.9207
  108OSM    H4G11115   2.362   6.828   9.696 -2.1388 -1.6757 -3.2250
  108OSM    C5F11116   2.354   6.648   9.591 -0.2945  0.3507  0.7964
  108OSM    H5F11117   2.258   6.628   9.645  0.8418 -2.1907  2.0627
  108OSM    H5G11118   2.420   6.558   9.599 -0.2897  0.3314  0.5315
  108OSM    C6F11119   2.323   6.693   9.448 -0.6889  0.4282 -0.1390
  108OSM    H6F11120   2.424   6.718   9.409  0.2096 -0.4794  1.4974
  108OSM    H6G11121   2.274   6.792   9.446  0.0823  0.8363 -2.3408
  108OSM    C7F11122   2.242   6.594   9.360  0.3023  0.7798  0.0215
  108OSM    H7F11123   2.151   6.638   9.311  0.5884 -1.3480 -2.6782
  108OSM    H7G11124   2.209   6.510   9.425 -0.3125  1.0876  0.1193
  108OSM    C8F11125   2.330   6.539   9.247  1.3416  0.1922 -0.4186
  108OSM    H8F11126   2.273   6.463   9.189  0.2935  1.1798 -0.7191
  108OSM    H8G11127   2.416   6.492   9.299  0.6490 -2.1860 -1.2966
  108OSM    C9F11128   2.362   6.653   9.154 -0.6125  0.0073 -0.3656
  108OSM    H9F11129   2.283   6.727   9.138  0.5283  0.7239 -3.3639
  108OSM   C10F11130   2.489   6.671   9.097  0.0307  0.2665  0.1382
  108OSM   H10F11131   2.507   6.749   9.021  1.1384 -1.6513 -1.6593
  108OSM   C11F11132   2.599   6.569   9.120 -0.5346  0.0689  0.1236
  108OSM   H11F11133   2.673   6.564   9.038  1.1630  0.1821  1.5825
  108OSM   H11G11134   2.561   6.466   9.135  1.9213 -0.7913  0.8462
  108OSM   C12F11135   2.681   6.598   9.251  0.1223  0.4047 -0.0115
  108OSM   H12F11136   2.759   6.519   9.258  1.7955  2.1041  1.6778
  108OSM   H12G11137   2.629   6.571   9.345 -0.5358  0.5771 -0.3253
  108OSM   C13F11138   2.744   6.743   9.259 -0.0127  0.8819 -0.0269
  108OSM   H13F11139   2.658   6.810   9.283  0.2496  1.0474  0.4704
  108OSM   H13G11140   2.781   6.774   9.158  1.6810 -3.3394 -0.9007
  108OSM   C14F11141   2.863   6.764   9.353 -0.5504  0.5284 -0.1606
  108OSM   H14F11142   2.890   6.871   9.356 -1.0957  0.6413  1.8559
  108OSM   H14G11143   2.948   6.697   9.327 -1.4541  0.2136 -2.5705
  108OSM   C15F11144   2.820   6.738   9.502 -0.2092  1.7388 -0.2317
  108OSM   H15F11145   2.765   6.642   9.511  1.9283  0.6600  2.9206
  108OSM   H15G11146   2.756   6.820   9.542  0.0548  1.8191  0.0301
  108OSM   C16F11147   2.939   6.723   9.608  0.0977 -0.1404  0.4008
  108OSM   H16F11148   3.002   6.813   9.593 -0.3919  0.0351 -0.8033
  108OSM   H16G11149   2.992   6.628   9.586 -0.7784 -1.1598  2.4752
  108OSM   C17F11150   2.892   6.717   9.753  0.2631  0.1940 -0.0884
  108OSM   H17F11151   2.795   6.662   9.759  0.9444 -1.0344  0.1060
  108OSM   H17G11152   2.860   6.819   9.783  2.9412  1.2267 -0.4082
  108OSM   C18F11153   2.984   6.639   9.841  0.1402  0.5135 -0.1827
  108OSM   H18F11154   3.019   6.542   9.800 -1.1096  1.0530 -2.7526
  108OSM   H18G11155   2.940   6.618   9.940 -3.3329  3.3930 -0.8871
  108OSM   H18H11156   3.077   6.694   9.868  0.7566 -1.1203  1.2417
  109OSM      N11157   2.441   4.725  10.772  0.4277 -0.5312 -0.2000
  109OSM    C1511158   2.528   4.779  10.878 -0.0543  1.1227  0.1824
  109OSM   H15A11159   2.472   4.822  10.960 -1.2253  0.0628 -0.0416
  109OSM   H15B11160   2.595   4.860  10.852 -1.6220  1.7978 -1.9783
  109OSM   H15C11161   2.597   4.708  10.923  0.5156  1.3955 -0.2492
  109OSM    C1411162   2.522   4.645  10.681 -0.1938  0.6630 -0.2070
  109OSM   H14A11163   2.587   4.712  10.627  1.4366 -0.7141 -0.0206
  109OSM   H14B11164   2.456   4.594  10.613 -2.9583  1.6903  1.5105
  109OSM   H14C11165   2.589   4.575  10.729 -1.1160 -1.4238 -1.8040
  109OSM    C1311166   2.340   4.644  10.843  0.5150 -0.2091  0.3514
  109OSM   H13A11167   2.393   4.589  10.920  3.1327 -1.0950 -1.9185
  109OSM   H13B11168   2.301   4.579  10.766 -0.3377  1.8997 -1.0687
  109OSM   H13C11169   2.261   4.706  10.884 -1.9010 -1.6881 -1.7893
  109OSM    C1211170   2.375   4.839  10.690 -0.5112  0.0355 -0.2314
  109OSM   H12A11171   2.333   4.908  10.762  0.6508 -0.6589  1.1765
  109OSM   H12B11172   2.290   4.806  10.631 -0.2051 -0.7329 -0.2606
  109OSM    C1111173   2.470   4.927  10.607  0.0488 -0.0897  0.1016
  109OSM   H11A11174   2.412   4.980  10.529 -2.4316  0.0842  1.9194
  109OSM   H11B11175   2.555   4.876  10.558 -0.2889 -0.0898 -0.4925
  109OSM      P11176   2.455   5.148  10.730 -0.2014  0.0526  0.1872
  109OSM    O1311177   2.328   5.100  10.794  0.0229 -0.0419  0.3540
  109OSM    O1411178   2.543   5.238  10.802 -0.2327  0.0080 -0.0173
  109OSM    O1111179   2.427   5.211  10.587  0.3923 -0.3086 -0.0797
  109OSM    O1211180   2.534   5.020  10.696  0.1219  0.6600 -0.4484
  109OSM    C1S11181   2.534   5.260  10.519  0.2779  0.5773 -0.2185
  109OSM    H1S11182   2.627   5.202  10.542 -0.5354  0.0526  2.0113
  109OSM    H1T11183   2.552   5.368  10.539 -0.7126  0.3249  2.4663
  109OSM     NF11184   2.639   5.281  10.303 -0.4786  0.7092  0.5477
  109OSM    HNF11185   2.663   5.378  10.297 -1.6852  0.9525 -1.0599
  109OSM    C2S11186   2.515   5.244  10.362 -0.5148  0.3308 -0.0892
  109OSM    H2S11187   2.485   5.142  10.332  2.0843 -0.6649  0.3911
  109OSM    C3S11188   2.406   5.348  10.322 -0.6195  0.2209 -0.4084
  109OSM    H3S11189   2.443   5.445  10.362 -0.8826 -0.4148  1.4700
  109OSM     O311190   2.285   5.316  10.387  0.5343 -0.9738 -0.3891
  109OSM    HO311191   2.326   5.278  10.465  2.3959  1.3429 -0.1257
  109OSM    C4S11192   2.376   5.339  10.175  0.2360  0.4106  0.1324
  109OSM    H4S11193   2.324   5.249  10.139 -1.1846  1.1324  0.2905
  109OSM    C5S11194   2.427   5.426  10.078 -0.3347  0.2722  0.3418
  109OSM    H5S11195   2.502   5.503  10.103 -1.2238  1.8336 -1.5701
  109OSM    C6S11196   2.397   5.415   9.934 -0.3605 -0.2163  0.4983
  109OSM    H6S11197   2.484   5.389   9.871  1.5674 -0.7026  3.1597
  109OSM    H6T11198   2.378   5.521   9.906 -1.2009  0.2163  2.4990
  109OSM    C7S11199   2.265   5.341   9.885 -0.1099  0.3641 -0.2053
  109OSM    H7S11200   2.179   5.380   9.943 -0.3743 -1.9134  1.0444
  109OSM    H7T11201   2.273   5.234   9.915 -0.3320 -0.5373 -3.0671
  109OSM    C8S11202   2.243   5.351   9.738 -0.4024 -0.0672  0.4454
  109OSM    H8S11203   2.332   5.314   9.682 -1.3481 -3.1701  0.8366
  109OSM    H8T11204   2.247   5.461   9.726 -1.4863  0.1458  1.8249
  109OSM    C9S11205   2.119   5.278   9.682 -0.9924 -0.4904  0.0981
  109OSM    H9S11206   2.026   5.317   9.727 -0.7458 -1.1532  1.2116
  109OSM    H9T11207   2.112   5.173   9.718 -3.0523 -1.2576 -2.2076
  109OSM   C10S11208   2.112   5.262   9.525 -0.4017 -0.4350 -0.0022
  109OSM   H10S11209   2.199   5.202   9.492 -0.0627  0.5217 -0.9024
  109OSM   H10T11210   2.124   5.361   9.478  0.4288 -0.0409  0.9972
  109OSM   C11S11211   1.980   5.199   9.486  0.4348 -0.2613 -0.2627
  109OSM   H11S11212   1.909   5.277   9.519  1.5637  0.9857 -0.6810
  109OSM   H11T11213   1.962   5.100   9.534 -0.6418 -0.4754 -1.0884
  109OSM   C12S11214   1.962   5.182   9.336 -0.4556  0.1704 -0.6633
  109OSM   H12S11215   2.044   5.113   9.306  1.2398  1.5524  0.6065
  109OSM   H12T11216   2.001   5.275   9.289  1.0106  0.1155  0.4105
  109OSM   C13S11217   1.826   5.121   9.291 -0.1361  0.3948  0.2129
  109OSM   H13S11218   1.750   5.184   9.341  1.4043  2.0006  0.6224
  109OSM   H13T11219   1.815   5.013   9.318 -1.0098  0.5395  0.4788
  109OSM   C14S11220   1.791   5.128   9.143  0.0085  0.3185 -0.3746
  109OSM   H14S11221   1.800   5.231   9.102 -1.3104  1.3257  1.6976
  109OSM   H14T11222   1.681   5.111   9.145 -0.2354  1.8193  0.4839
  109OSM   C15S11223   1.852   5.010   9.059  0.2698 -0.6067 -0.3352
  109OSM   H15S11224   1.847   4.910   9.109 -1.5596 -1.1657 -1.5268
  109OSM   H15T11225   1.960   5.033   9.048  0.1828  1.2906  2.0727
  109OSM   C16S11226   1.784   4.985   8.921 -0.3897  0.6650 -0.7370
  109OSM   H16S11227   1.772   5.084   8.872  0.7018  0.4689 -1.4355
  109OSM   H16T11228   1.689   4.932   8.944 -0.1140  1.6563  3.5262
  109OSM   C17S11229   1.876   4.909   8.833  1.0270  0.0183  0.1379
  109OSM   H17S11230   1.888   4.802   8.863  0.0253 -0.4797 -1.1330
  109OSM   H17T11231   1.973   4.962   8.824  0.3301  1.6137  1.4751
  109OSM   C18S11232   1.828   4.917   8.686  0.1267 -0.3924 -0.1190
  109OSM   H18S11233   1.899   4.855   8.626 -1.7327  1.2281 -4.4069
  109OSM   H18T11234   1.834   5.023   8.653 -2.9359 -0.7649 -2.2235
  109OSM   H18U11235   1.723   4.882   8.676 -0.1602  0.5397 -0.4583
  109OSM    C1F11236   2.744   5.199  10.301 -0.3363  0.5197 -0.2934
  109OSM     OF11237   2.743   5.081  10.339  0.1230  0.3472 -0.0380
  109OSM    C2F11238   2.884   5.251  10.264  1.0846  0.0839  0.0683
  109OSM    H2F11239   2.955   5.222  10.345  0.5444 -2.4765 -0.2720
  109OSM    H2G11240   2.870   5.361  10.255  3.1525  0.4492  0.8662
  109OSM    C3F11241   2.935   5.182  10.141 -1.0844 -0.1730  0.6262
  109OSM    H3F11242   2.941   5.073  10.164 -1.6529  0.1796  2.6821
  109OSM    H3G11243   3.037   5.220  10.122 -1.2515  1.7212  3.0921
  109OSM    C4F11244   2.849   5.210  10.011  0.0205  0.1118 -0.0224
  109OSM    H4F11245   2.841   5.321  10.012  1.4313  0.2377 -0.6211
  109OSM    H4G11246   2.750   5.160  10.015  1.4460 -2.8555  1.3775
  109OSM    C5F11247   2.919   5.165   9.883 -0.0560 -0.1214 -0.4492
  109OSM    H5F11248   2.967   5.066   9.899  2.1262  0.8822 -0.4897
  109OSM    H5G11249   3.006   5.234   9.876 -0.6976  1.0524  1.8337
  109OSM    C6F11250   2.836   5.161   9.757 -0.0907 -0.4873 -0.6532
  109OSM    H6F11251   2.743   5.112   9.792  0.0289  0.6288  1.4076
  109OSM    H6G11252   2.882   5.083   9.692  0.2011 -0.4541 -0.4900
  109OSM    C7F11253   2.809   5.303   9.689 -0.5696  0.1305 -0.4294
  109OSM    H7F11254   2.900   5.320   9.627 -0.5934 -1.1856 -0.8583
  109OSM    H7G11255   2.799   5.376   9.772  1.4767  0.8913 -0.7790
  109OSM    C8F11256   2.691   5.290   9.594 -0.6410  0.0476 -0.4724
  109OSM    H8F11257   2.600   5.275   9.655 -1.2011 -0.1019 -1.3323
  109OSM    H8G11258   2.704   5.212   9.517 -2.6803  0.4874 -1.3108
  109OSM    C9F11259   2.683   5.425   9.526  0.2333 -0.0846 -0.0862
  109OSM    H9F11260   2.630   5.493   9.594  2.0382 -0.9200  2.3091
  109OSM   C10F11261   2.742   5.463   9.413  0.6431 -0.4462  0.1721
  109OSM   H10F11262   2.724   5.561   9.367 -1.7204 -0.7062  0.4213
  109OSM   C11F11263   2.825   5.371   9.326  0.4007  0.4183 -0.1585
  109OSM   H11F11264   2.795   5.265   9.336 -1.9224  0.8559 -1.6786
  109OSM   H11G11265   2.927   5.388   9.366 -0.2266 -1.3792  2.4500
  109OSM   C12F11266   2.812   5.387   9.176  0.1861  0.6454 -0.7001
  109OSM   H12F11267   2.822   5.493   9.144  1.0070  0.6180 -0.5573
  109OSM   H12G11268   2.713   5.356   9.136 -0.5729 -1.8874  2.6658
  109OSM   C13F11269   2.933   5.330   9.109  0.3697 -0.1727 -0.3016
  109OSM   H13F11270   2.972   5.243   9.166 -0.1979 -0.8704 -0.9452
  109OSM   H13G11271   3.012   5.407   9.115  0.9481 -0.8343  0.8706
  109OSM   C14F11272   2.892   5.270   8.971  0.7110 -0.6169 -0.1527
  109OSM   H14F11273   2.860   5.363   8.919  1.9412  0.8987  1.6979
  109OSM   H14G11274   2.806   5.201   8.986 -0.7886  1.0106 -0.8928
  109OSM   C15F11275   3.000   5.182   8.904  0.3978  0.2570 -0.0559
  109OSM   H15F11276   2.987   5.079   8.944 -1.2591  0.1390 -0.8074
  109OSM   H15G11277   3.100   5.214   8.940  0.7315 -1.3937  0.5873
  109OSM   C16F11278   2.992   5.172   8.755 -0.5701  0.4613 -0.0175
  109OSM   H16F11279   2.979   5.275   8.715 -0.5673  0.4544 -0.0358
  109OSM   H16G11280   2.910   5.110   8.714  1.7710 -2.0449 -1.1987
  109OSM   C17F11281   3.121   5.126   8.688  0.4134  0.5028  0.4918
  109OSM   H17F11282   3.131   5.015   8.690  3.1584  0.7058  1.1462
  109OSM   H17G11283   3.209   5.170   8.738  0.2369  0.8104  0.5288
  109OSM   C18F11284   3.118   5.170   8.538 -0.2654 -0.3967 -0.5190
  109OSM   H18F11285   3.104   5.280   8.538  2.2119 -0.0266 -0.6803
  109OSM   H18G11286   3.022   5.128   8.501 -2.0953  3.1306 -0.1958
  109OSM   H18H11287   3.218   5.141   8.497  0.2281 -1.5888  1.4094
  110OSM      N11288   2.106   2.150  10.901 -0.4737 -0.0695 -0.6567
  110OSM    C1511289   2.016   2.111  10.793  0.5462  0.8226 -0.5654
  110OSM   H15A11290   1.957   2.021  10.806 -0.0854  1.1188 -1.2870
  110OSM   H15B11291   2.077   2.083  10.709  0.6773  0.7417 -0.4422
  110OSM   H15C11292   1.949   2.188  10.758  1.2901  2.5708  1.6249
  110OSM    C1411293   2.033   2.140  11.029  0.4344 -0.5665  0.0115
  110OSM   H14A11294   1.976   2.051  11.045  1.9610 -1.1373  3.0393
  110OSM   H14B11295   1.959   2.217  11.043  1.7116  0.6769  0.1805
  110OSM   H14C11296   2.104   2.156  11.109  0.7442  0.1655 -0.3895
  110OSM    C1311297   2.215   2.043  10.908  0.0288 -0.5510 -0.4167
  110OSM   H13A11298   2.292   2.066  10.836 -0.9368  1.6612 -0.8048
  110OSM   H13B11299   2.159   1.955  10.881 -2.9511  1.4080 -1.0241
  110OSM   H13C11300   2.277   2.044  10.997  2.6912  0.0934 -2.1461
  110OSM    C1211301   2.167   2.285  10.885  0.2369  0.0685  0.3937
  110OSM   H12A11302   2.244   2.297  10.960  1.0039  0.6312 -0.4540
  110OSM   H12B11303   2.090   2.360  10.888  1.6523  1.6599 -0.8569
  110OSM    C1111304   2.243   2.313  10.751 -0.2982 -0.6006 -0.2415
  110OSM   H11A11305   2.246   2.422  10.729 -0.0026 -0.3317  1.0457
  110OSM   H11B11306   2.186   2.275  10.664 -1.1881 -3.1610  1.3348
  110OSM      P11307   2.484   2.319  10.831 -0.4233  0.2055  0.2993
  110OSM    O1311308   2.449   2.318  10.977 -0.4271 -0.2758  0.6062
  110OSM    O1411309   2.618   2.262  10.790  0.2497  0.0546  0.6193
  110OSM    O1111310   2.482   2.465  10.783  0.2458 -0.3971  0.3848
  110OSM    O1211311   2.370   2.252  10.743 -0.5660 -0.3945 -0.1229
  110OSM    C1S11312   2.520   2.510  10.651 -0.1011  0.3696 -0.1122
  110OSM    H1S11313   2.545   2.426  10.583  0.9606  1.2489 -0.8516
  110OSM    H1T11314   2.606   2.579  10.662 -0.8943  1.2787  0.5662
  110OSM     NF11315   2.460   2.601  10.426  0.0043  0.0159  0.0859
  110OSM    HNF11316   2.472   2.693  10.389  0.9755 -0.6052 -1.2493
  110OSM    C2S11317   2.416   2.586  10.567 -0.4929 -0.3220 -0.5716
  110OSM    H2S11318   2.319   2.532  10.570 -1.2925  1.0304  2.9496
  110OSM    C3S11319   2.404   2.725  10.638 -1.0126  0.0506 -0.2580
  110OSM    H3S11320   2.500   2.781  10.635 -1.4782  0.8164 -1.7572
  110OSM     O311321   2.381   2.720  10.774  0.4128  0.4884 -0.1952
  110OSM    HO311322   2.421   2.637  10.800  0.9136 -0.0772 -2.5759
  110OSM    C4S11323   2.296   2.802  10.576  0.6882  0.2437 -0.1463
  110OSM    H4S11324   2.335   2.889  10.521  0.1845 -0.7718 -2.2080
  110OSM    C5S11325   2.163   2.786  10.573  0.0977 -0.4690 -0.2194
  110OSM    H5S11326   2.123   2.691  10.612 -1.5421  0.1718 -0.2351
  110OSM    C6S11327   2.074   2.879  10.498  0.3410  0.0851 -0.0178
  110OSM    H6S11328   2.060   2.965  10.565 -0.7854 -0.2156  0.1428
  110OSM    H6T11329   1.974   2.832  10.483 -0.4149 -0.7669  5.4667
  110OSM    C7S11330   2.103   2.940  10.363 -0.0009 -0.1199 -0.1401
  110OSM    H7S11331   2.202   2.989  10.358 -0.4085  1.0740  2.1940
  110OSM    H7T11332   2.041   3.030  10.345 -0.3407 -0.5198 -1.0539
  110OSM    C8S11333   2.091   2.835  10.247 -0.0309  0.0375  0.0994
  110OSM    H8S11334   2.002   2.768  10.238  1.9202 -2.4385 -3.5974
  110OSM    H8T11335   2.177   2.767  10.266  2.2237  2.4007 -1.0003
  110OSM    C9S11336   2.097   2.902  10.112  0.1035 -0.6192  0.4198
  110OSM    H9S11337   2.204   2.915  10.085  0.0183 -0.0721  0.3344
  110OSM    H9T11338   2.055   3.005  10.113  0.8025 -0.3163  0.0684
  110OSM   C10S11339   2.034   2.824   9.996 -0.1886  0.0701  0.3609
  110OSM   H10S11340   1.924   2.831  10.016 -0.0906 -0.6096  1.1561
  110OSM   H10T11341   2.074   2.721   9.993 -4.2483 -1.6951  0.6196
  110OSM   C11S11342   2.059   2.895   9.862  0.2105  0.1656  0.0294
  110OSM   H11S11343   2.166   2.916   9.840  0.4822 -1.3676 -0.2022
  110OSM   H11T11344   1.998   2.988   9.863  1.3790  0.9791 -1.2337
  110OSM   C12S11345   2.023   2.797   9.754 -0.2854 -0.2393 -0.4239
  110OSM   H12S11346   1.915   2.774   9.772 -0.3407 -0.2949 -0.8051
  110OSM   H12T11347   2.088   2.707   9.764 -0.2864 -0.1003  1.1116
  110OSM   C13S11348   2.026   2.862   9.615 -0.1966  0.4763  0.4449
  110OSM   H13S11349   2.129   2.899   9.593 -0.6260  1.8051  0.5786
  110OSM   H13T11350   1.952   2.945   9.617 -0.5169  0.1999  0.0733
  110OSM   C14S11351   1.994   2.755   9.510  0.3392 -0.3122  0.5170
  110OSM   H14S11352   1.884   2.743   9.519  0.2776  0.1949  0.5026
  110OSM   H14T11353   2.039   2.658   9.538  0.5480 -0.1389  0.7946
  110OSM   C15S11354   2.039   2.789   9.368  0.4907  0.0807 -0.3574
  110OSM   H15S11355   2.148   2.811   9.367  0.4413  0.6611  1.8434
  110OSM   H15T11356   1.985   2.878   9.329 -2.6047 -1.2755  0.4693
  110OSM   C16S11357   2.022   2.669   9.270  0.0055  0.1228  0.6098
  110OSM   H16S11358   1.912   2.649   9.268  0.0149 -0.0348 -1.4463
  110OSM   H16T11359   2.073   2.581   9.314 -0.4449 -0.1877  0.5226
  110OSM   C17S11360   2.069   2.695   9.119  0.9420 -0.7621  0.0580
  110OSM   H17S11361   2.173   2.732   9.107  0.2172  1.0830 -0.9029
  110OSM   H17T11362   2.004   2.773   9.074  0.0439 -0.6182  1.5266
  110OSM   C18S11363   2.042   2.572   9.037 -0.2318 -0.0569 -0.3290
  110OSM   H18S11364   2.083   2.582   8.934 -0.3004 -1.9433 -0.5638
  110OSM   H18T11365   1.932   2.558   9.034 -0.2967 -0.1738  1.3392
  110OSM   H18U11366   2.081   2.483   9.092 -1.4619 -0.6270 -0.3585
  110OSM    C1F11367   2.468   2.507  10.330  0.6774 -0.3491 -0.4537
  110OSM     OF11368   2.424   2.396  10.353  0.3518  0.1678 -0.4481
  110OSM    C2F11369   2.513   2.555  10.199 -0.0828 -0.1291 -0.0125
  110OSM    H2F11370   2.565   2.652  10.206 -0.5849  0.1334  0.1373
  110OSM    H2G11371   2.426   2.563  10.131  0.0965 -0.9387 -0.3559
  110OSM    C3F11372   2.602   2.448  10.130  0.0252  0.3781 -0.0864
  110OSM    H3F11373   2.539   2.358  10.113 -0.7805  1.2811 -2.0490
  110OSM    H3G11374   2.685   2.418  10.198  0.7938  1.1437 -0.6699
  110OSM    C4F11375   2.649   2.486   9.987 -0.2754  0.1775 -0.4141
  110OSM    H4F11376   2.690   2.589   9.988 -3.1887  1.4800 -1.9468
  110OSM    H4G11377   2.563   2.477   9.917  0.9335 -2.3471 -1.6841
  110OSM    C5F11378   2.756   2.384   9.940  0.7962  0.4421  0.3278
  110OSM    H5F11379   2.705   2.286   9.928  0.6832  0.7120 -1.8542
  110OSM    H5G11380   2.832   2.365  10.019  0.9377 -0.1374  0.0539
  110OSM    C6F11381   2.830   2.433   9.816 -0.1883 -0.0094 -0.1795
  110OSM    H6F11382   2.929   2.383   9.817 -0.4370 -0.6192  2.5696
  110OSM    H6G11383   2.848   2.542   9.823 -1.9507  0.3447 -0.6822
  110OSM    C7F11384   2.756   2.422   9.679 -0.0396 -0.1502  0.1735
  110OSM    H7F11385   2.674   2.497   9.679 -1.6160 -1.7998 -0.8970
  110OSM    H7G11386   2.704   2.324   9.675 -1.9143  0.8133  0.2296
  110OSM    C8F11387   2.841   2.423   9.550 -0.0542  0.6421 -0.5893
  110OSM    H8F11388   2.897   2.519   9.558 -1.2744  1.2738  0.6318
  110OSM    H8G11389   2.779   2.447   9.461 -1.1289 -1.4075 -0.4364
  110OSM    C9F11390   2.936   2.304   9.532  0.3556 -0.1325 -0.0987
  110OSM    H9F11391   3.025   2.305   9.598  1.8713 -1.6513 -2.0092
  110OSM   C10F11392   2.927   2.201   9.442 -0.2844 -0.1532 -0.3253
  110OSM   H10F11393   2.992   2.113   9.441 -0.1763 -0.1156  0.9794
  110OSM   C11F11394   2.805   2.184   9.346 -0.3746 -0.5797 -0.3275
  110OSM   H11F11395   2.715   2.206   9.407  1.2832  0.0476  2.0647
  110OSM   H11G11396   2.799   2.079   9.310  1.4302 -0.1311 -2.1044
  110OSM   C12F11397   2.816   2.280   9.225 -0.5013  0.0765  0.0266
  110OSM   H12F11398   2.813   2.384   9.264 -0.2804 -0.1969  0.7960
  110OSM   H12G11399   2.719   2.258   9.175  0.0280 -1.3150 -0.4156
  110OSM   C13F11400   2.934   2.246   9.133 -0.5505  0.0869  0.5207
  110OSM   H13F11401   2.908   2.148   9.089  0.0643  0.2408 -0.1970
  110OSM   H13G11402   3.036   2.253   9.176  0.4061  3.8323 -1.8345
  110OSM   C14F11403   2.942   2.346   9.020 -0.7931  0.5090  0.1055
  110OSM   H14F11404   3.006   2.431   9.053 -0.2553  0.9755 -1.9512
  110OSM   H14G11405   2.847   2.381   8.974 -0.0850 -0.8350 -2.5687
  110OSM   C15F11406   3.022   2.291   8.892 -0.0654  0.3370  0.8843
  110OSM   H15F11407   2.965   2.218   8.831 -1.2304  0.9067  1.2610
  110OSM   H15G11408   3.109   2.226   8.916 -0.8154 -1.6228 -1.4324
  110OSM   C16F11409   3.064   2.413   8.803  0.2133 -0.6002 -0.1645
  110OSM   H16F11410   3.139   2.479   8.851 -0.0331  0.0279 -0.6309
  110OSM   H16G11411   2.975   2.475   8.776  1.0946  1.8097  1.9927
  110OSM   C17F11412   3.138   2.387   8.667  0.2144  0.1885 -0.8316
  110OSM   H17F11413   3.113   2.462   8.588  1.2807  1.5056  0.0296
  110OSM   H17G11414   3.095   2.289   8.636  0.4050  0.5327 -2.2754
  110OSM   C18F11415   3.289   2.387   8.679  0.9196  1.1250  0.4067
  110OSM   H18F11416   3.320   2.303   8.744 -1.8525 -0.3630 -0.0295
  110OSM   H18G11417   3.328   2.485   8.712  1.4582  0.7878  0.7687
  110OSM   H18H11418   3.327   2.374   8.575 -0.7246 -0.5437 -0.0441
  111OSM      N11419   2.938   1.787  11.014 -0.3340  0.1641  0.3136
  111OSM    C1511420   3.016   1.684  11.082  0.2795  0.3891 -0.4742
  111OSM   H15A11421   3.042   1.711  11.184 -0.3386 -1.4056  0.1858
  111OSM   H15B11422   3.113   1.667  11.037  1.1425  2.0217  0.6433
  111OSM   H15C11423   2.971   1.586  11.082  1.1778 -0.0341  0.1223
  111OSM    C1411424   2.804   1.796  11.077 -0.0358  0.0563 -1.1799
  111OSM   H14A11425   2.803   1.812  11.183 -0.7057 -3.8505 -0.4257
  111OSM   H14B11426   2.760   1.698  11.065 -0.3427 -0.1841  1.4531
  111OSM   H14C11427   2.747   1.871  11.025 -2.7692 -2.5947 -2.3235
  111OSM    C1311428   3.006   1.913  11.041  0.3516  0.1388 -0.3631
  111OSM   H13A11429   3.017   1.923  11.148 -1.0635 -2.6436  0.1338
  111OSM   H13B11430   2.944   1.999  11.021  0.2613  0.4667  1.1864
  111OSM   H13C11431   3.104   1.913  10.997  0.9587  2.1002  0.8244
  111OSM    C1211432   2.940   1.767  10.864 -0.3961  0.8726 -0.7402
  111OSM   H12A11433   2.913   1.665  10.840  0.5411  0.1434  1.0863
  111OSM   H12B11434   3.045   1.771  10.838  0.0719 -3.3729 -0.2193
  111OSM    C1111435   2.873   1.871  10.775 -0.9645  0.2082 -0.8299
  111OSM   H11A11436   2.908   1.871  10.669  0.9616 -1.2777 -0.2657
  111OSM   H11B11437   2.923   1.966  10.806  2.1983 -1.2097 -1.2094
  111OSM      P11438   2.645   1.764  10.727 -0.1640 -0.3923 -0.6024
  111OSM    O1311439   2.645   1.646  10.815  1.0405 -0.5596  0.2369
  111OSM    O1411440   2.518   1.816  10.688 -0.1262 -0.6601 -0.1280
  111OSM    O1111441   2.735   1.723  10.600 -0.3978 -0.3106  0.2617
  111OSM    O1211442   2.731   1.879  10.797  0.3215 -0.1759  0.4020
  111OSM    C1S11443   2.685   1.737  10.468  0.4541 -0.0746 -0.7031
  111OSM    H1S11444   2.617   1.824  10.457  2.2999  1.7048  1.0103
  111OSM    H1T11445   2.623   1.648  10.443  0.2260 -0.3771  0.8184
  111OSM     NF11446   2.745   1.772  10.243  0.1253  0.8017  0.1255
  111OSM    HNF11447   2.745   1.694  10.181  0.6369  1.6220 -0.9368
  111OSM    C2S11448   2.802   1.751  10.372  0.4284  0.4896 -0.0242
  111OSM    H2S11449   2.867   1.837  10.402  0.0406  0.6618  0.3334
  111OSM    C3S11450   2.902   1.627  10.380 -0.3936  0.3058  0.6215
  111OSM    H3S11451   2.847   1.533  10.357 -0.2638  0.8629 -2.3344
  111OSM     O311452   2.964   1.609  10.508 -0.1440 -0.5261 -0.4802
  111OSM    HO311453   2.906   1.661  10.564 -2.8867 -2.0898 -1.6674
  111OSM    C4S11454   3.004   1.650  10.269  0.0841 -0.2334 -0.6890
  111OSM    H4S11455   2.988   1.576  10.189 -2.2559  0.1291 -0.6202
  111OSM    C5S11456   3.115   1.729  10.270 -0.1577 -0.0421  0.6423
  111OSM    H5S11457   3.134   1.800  10.352  0.3399  1.8976 -1.0641
  111OSM    C6S11458   3.227   1.738  10.168 -0.0907  0.2083  0.4248
  111OSM    H6S11459   3.297   1.653  10.182 -1.7891 -1.2105  0.5545
  111OSM    H6T11460   3.285   1.833  10.173  2.8734 -1.5164  1.1587
  111OSM    C7S11461   3.173   1.727  10.019  1.1651  0.5355  0.0873
  111OSM    H7S11462   3.130   1.625  10.009  1.8493 -0.0685  2.7722
  111OSM    H7T11463   3.265   1.735   9.957 -0.0164  2.4932 -1.5680
  111OSM    C8S11464   3.076   1.830   9.969  0.3656  0.0579  0.5501
  111OSM    H8S11465   3.131   1.927   9.974  0.8049  0.0497 -2.4762
  111OSM    H8T11466   2.980   1.829  10.024  0.8023  1.8056  1.4113
  111OSM    C9S11467   3.060   1.813   9.814 -0.1211 -0.2308  0.5687
  111OSM    H9S11468   3.161   1.830   9.771 -0.1497 -0.9359  0.2141
  111OSM    H9T11469   2.983   1.890   9.789 -1.4684 -2.0954 -1.3656
  111OSM   C10S11470   3.027   1.676   9.765 -0.5756  0.1270 -0.7445
  111OSM   H10S11471   2.955   1.626   9.834 -1.0768 -1.7590 -2.5477
  111OSM   H10T11472   3.124   1.622   9.759 -0.6633 -0.1377  0.0514
  111OSM   C11S11473   2.970   1.673   9.623  0.2008  0.9134 -0.5456
  111OSM   H11S11474   2.867   1.713   9.611 -0.4624 -0.9834 -1.5035
  111OSM   H11T11475   2.974   1.567   9.590 -1.0987  0.3404  1.0015
  111OSM   C12S11476   3.063   1.743   9.526 -0.2698  0.4378  0.6035
  111OSM   H12S11477   3.165   1.705   9.550 -1.2547 -2.9695 -0.0566
  111OSM   H12T11478   3.050   1.852   9.545 -1.8697  0.3459  0.1655
  111OSM   C13S11479   3.044   1.717   9.377  0.0949  0.2264 -0.3280
  111OSM   H13S11480   2.935   1.729   9.357 -0.2030 -1.7656 -0.0887
  111OSM   H13T11481   3.076   1.612   9.358 -0.9054 -0.2118  0.2958
  111OSM   C14S11482   3.117   1.805   9.270 -0.0831  0.8230  0.1700
  111OSM   H14S11483   3.066   1.904   9.267 -0.4349  0.7426  2.1247
  111OSM   H14T11484   3.110   1.759   9.169 -0.1587 -0.2640  0.6631
  111OSM   C15S11485   3.263   1.823   9.302 -1.1130 -0.2089 -0.9726
  111OSM   H15S11486   3.306   1.721   9.288  1.2135  0.5241  0.2230
  111OSM   H15T11487   3.273   1.850   9.409  0.2546  0.4967 -1.2531
  111OSM   C16S11488   3.333   1.926   9.214  0.4881  0.2033  0.1959
  111OSM   H16S11489   3.298   2.026   9.249  1.0697  0.8961 -1.1124
  111OSM   H16T11490   3.306   1.897   9.110  2.1289 -2.6009  0.4676
  111OSM   C17S11491   3.488   1.936   9.223 -0.2585  0.2505 -0.2225
  111OSM   H17S11492   3.526   2.018   9.159  0.5614  0.9152  1.0610
  111OSM   H17T11493   3.550   1.846   9.205  0.4223  0.6400  0.1473
  111OSM   C18S11494   3.526   1.972   9.370 -0.1106 -0.0640 -0.0031
  111OSM   H18S11495   3.633   1.999   9.365  0.4199 -2.1511 -1.6354
  111OSM   H18T11496   3.518   1.882   9.435 -1.0767  0.0093 -0.0018
  111OSM   H18U11497   3.469   2.059   9.407  0.2299  0.4379 -0.6348
  111OSM    C1F11498   2.678   1.878  10.201 -0.2743  0.1564 -0.8947
  111OSM     OF11499   2.664   1.975  10.275 -0.1011  0.0499  0.0841
  111OSM    C2F11500   2.631   1.880  10.060 -0.0042  0.0262 -0.0213
  111OSM    H2F11501   2.542   1.814  10.049  0.4665 -0.4343 -1.3920
  111OSM    H2G11502   2.709   1.825  10.002 -1.3724 -1.0612 -0.9143
  111OSM    C3F11503   2.604   2.022   9.999  0.2923 -0.5426 -0.0356
  111OSM    H3F11504   2.680   2.093  10.038 -1.1052  0.4944  0.8956
  111OSM    H3G11505   2.516   2.051  10.060  1.8258  0.1908  1.9251
  111OSM    C4F11506   2.584   2.031   9.848  0.5322 -0.2312 -0.0406
  111OSM    H4F11507   2.534   2.123   9.811 -1.2949 -1.0538  0.2910
  111OSM    H4G11508   2.514   1.949   9.821 -1.4670  1.1611  0.6854
  111OSM    C5F11509   2.710   2.006   9.764 -0.1723 -0.1998 -0.2584
  111OSM    H5F11510   2.756   1.913   9.803 -0.3943 -0.0050  0.4839
  111OSM    H5G11511   2.776   2.093   9.787  1.1223 -0.3531 -3.0250
  111OSM    C6F11512   2.682   1.984   9.617  0.1439 -0.0211 -0.9540
  111OSM    H6F11513   2.778   1.962   9.564  0.2569 -0.1896 -0.6823
  111OSM    H6G11514   2.644   2.079   9.574 -1.2845 -0.3742 -0.5110
  111OSM    C7F11515   2.598   1.857   9.596  0.3109  1.3875  0.4873
  111OSM    H7F11516   2.491   1.875   9.622 -0.5495 -2.3737  0.1727
  111OSM    H7G11517   2.638   1.785   9.671  0.7941  0.5234 -0.5722
  111OSM    C8F11518   2.613   1.797   9.460 -0.7845  0.4735 -0.3800
  111OSM    H8F11519   2.578   1.692   9.453  2.0443 -0.8507  2.4925
  111OSM    H8G11520   2.723   1.795   9.447 -0.7025 -2.0465  0.2579
  111OSM    C9F11521   2.548   1.869   9.348  0.2010  0.4648  0.3057
  111OSM    H9F11522   2.507   1.970   9.368 -1.3914  0.0122 -0.4970
  111OSM   C10F11523   2.546   1.821   9.220 -0.9468  0.9144  0.8916
  111OSM   H10F11524   2.515   1.882   9.134  0.7472  0.0459 -0.3985
  111OSM   C11F11525   2.613   1.694   9.165  0.3892 -0.5205 -0.5151
  111OSM   H11F11526   2.544   1.607   9.164 -0.3509  0.0334  0.4672
  111OSM   H11G11527   2.696   1.656   9.228  0.7852 -0.0656 -0.7569
  111OSM   C12F11528   2.660   1.723   9.021 -0.5541  0.0742  0.2295
  111OSM   H12F11529   2.586   1.780   8.961 -0.7078 -0.3264  0.0344
  111OSM   H12G11530   2.689   1.629   8.971  0.3141  0.6259 -0.3340
  111OSM   C13F11531   2.796   1.798   9.017 -0.0134  0.3177 -0.0298
  111OSM   H13F11532   2.880   1.739   9.060  0.9820  0.6037 -1.5079
  111OSM   H13G11533   2.801   1.898   9.065 -2.3015  0.0894  0.8073
  111OSM   C14F11534   2.838   1.818   8.869 -0.5637  0.4862 -0.0182
  111OSM   H14F11535   2.757   1.887   8.835 -1.6314  0.8612  2.9143
  111OSM   H14G11536   2.822   1.723   8.814 -2.7038 -0.7657  2.5221
  111OSM   C15F11537   2.981   1.881   8.856  0.7807 -0.4402  0.3110
  111OSM   H15F11538   3.070   1.829   8.899  0.7260 -0.7418  0.0606
  111OSM   H15G11539   2.989   1.984   8.899 -0.2029 -0.0232 -0.4708
  111OSM   C16F11540   3.016   1.892   8.710 -0.4213 -0.1294  0.0083
  111OSM   H16F11541   2.921   1.915   8.656  0.0976 -1.2231 -1.4524
  111OSM   H16G11542   3.026   1.786   8.676 -0.6282 -0.2369  0.2785
  111OSM   C17F11543   3.114   1.992   8.660 -0.0419  0.4614 -0.5586
  111OSM   H17F11544   3.220   1.960   8.672  0.7527  1.8640 -3.1736
  111OSM   H17G11545   3.090   2.092   8.703 -0.2106 -1.2541  3.8478
  111OSM   C18F11546   3.107   2.010   8.506 -0.0536  0.7337 -0.7626
  111OSM   H18F11547   3.131   1.914   8.456  0.4772 -0.7337  2.0736
  111OSM   H18G11548   3.185   2.082   8.474  0.3639  1.0137  0.8175
  111OSM   H18H11549   3.005   2.033   8.466 -1.5687 -1.4175  1.5435
  112OSM      N11550   2.538   5.561  10.916  0.5735 -0.0519  0.0716
  112OSM    C1511551   2.500   5.693  10.984  0.1297 -0.0212  0.0367
  112OSM   H15A11552   2.483   5.767  10.907 -1.2241 -1.4197 -1.0692
  112OSM   H15B11553   2.573   5.717  11.060  3.0001 -1.9095 -1.9401
  112OSM   H15C11554   2.403   5.693  11.032  0.4095  1.3049  0.6352
  112OSM    C1411555   2.680   5.567  10.868  0.2971  0.3168 -0.1206
  112OSM   H14A11556   2.740   5.619  10.942 -2.0697  0.2539  2.0116
  112OSM   H14B11557   2.689   5.627  10.779 -0.3183  1.3306  0.4738
  112OSM   H14C11558   2.715   5.467  10.847  0.5586  0.6988 -1.5552
  112OSM    C1311559   2.519   5.457  11.022 -0.3796  0.7461 -0.6569
  112OSM   H13A11560   2.527   5.361  10.973 -0.6582  1.0685 -1.3558
  112OSM   H13B11561   2.420   5.456  11.065  0.2805 -2.3911  1.1022
  112OSM   H13C11562   2.597   5.467  11.096  0.5484 -0.6106 -1.4045
  112OSM    C1211563   2.436   5.517  10.814 -0.0910  0.3163  0.2365
  112OSM   H12A11564   2.347   5.503  10.875  0.2843 -1.0750  0.5099
  112OSM   H12B11565   2.459   5.416  10.784  0.0193  0.1017  1.0274
  112OSM    C1111566   2.402   5.607  10.692 -0.1356 -0.1571  0.5679
  112OSM   H11A11567   2.338   5.549  10.623 -0.4006  1.1206 -0.3071
  112OSM   H11B11568   2.496   5.625  10.635 -0.4445  1.6034  0.5397
  112OSM      P11569   2.382   5.868  10.697 -0.4555 -0.0075  0.2924
  112OSM    O1311570   2.313   5.969  10.780  0.7855 -0.4798  0.2988
  112OSM    O1411571   2.531   5.871  10.705  0.2894  0.1471 -0.3906
  112OSM    O1111572   2.341   5.893  10.545  0.0774 -0.2263  0.3327
  112OSM    O1211573   2.318   5.723  10.723 -0.3934  0.4261  0.3978
  112OSM    C1S11574   2.246   5.815  10.479 -0.7509 -0.1799  0.4005
  112OSM    H1S11575   2.143   5.846  10.506 -0.9458  0.4706 -1.0307
  112OSM    H1T11576   2.267   5.706  10.484  1.1725  0.1673  0.7817
  112OSM     NF11577   2.139   5.808  10.260  0.1993 -0.2873 -0.6032
  112OSM    HNF11578   2.128   5.709  10.266  0.4346 -0.2396  1.0338
  112OSM    C2S11579   2.261   5.838  10.324 -0.3792 -0.0038 -0.2770
  112OSM    H2S11580   2.274   5.947  10.306 -0.8305  0.1264  0.1270
  112OSM    C3S11581   2.392   5.769  10.267  0.3198  0.5823  0.6163
  112OSM    H3S11582   2.370   5.660  10.268  0.4865  0.5400  0.0666
  112OSM     O311583   2.499   5.784  10.358 -0.3738  0.6333  0.3797
  112OSM    HO311584   2.464   5.834  10.433 -0.3355  1.7135 -0.3045
  112OSM    C4S11585   2.433   5.812  10.128 -0.5738 -0.7795 -0.1889
  112OSM    H4S11586   2.380   5.754  10.050 -1.2506 -0.2051 -0.1684
  112OSM    C5S11587   2.540   5.886  10.089  0.0989  0.1292  0.3315
  112OSM    H5S11588   2.614   5.918  10.164  1.0313 -1.6944  0.2528
  112OSM    C6S11589   2.581   5.907   9.949  0.0130  0.3300 -0.1319
  112OSM    H6S11590   2.691   5.889   9.951 -0.3252 -2.3260  2.8078
  112OSM    H6T11591   2.566   6.015   9.931  0.6921  0.1994 -1.6110
  112OSM    C7S11592   2.515   5.812   9.845 -0.3744  0.0565 -0.4484
  112OSM    H7S11593   2.404   5.805   9.851 -0.6051  0.1187 -3.2617
  112OSM    H7T11594   2.559   5.711   9.861  1.3873  1.0102  1.0413
  112OSM    C8S11595   2.547   5.862   9.707  0.7304 -0.2036  0.1612
  112OSM    H8S11596   2.658   5.850   9.703  0.7737  0.4202 -0.9255
  112OSM    H8T11597   2.535   5.972   9.699  1.2575 -0.0114  1.7826
  112OSM    C9S11598   2.482   5.782   9.592 -0.6518  0.1566  0.4953
  112OSM    H9S11599   2.375   5.807   9.579 -0.7272 -0.2924  0.2397
  112OSM    H9T11600   2.485   5.673   9.616 -2.1538  0.0656  0.3385
  112OSM   C10S11601   2.541   5.811   9.453 -0.5360 -0.4213 -0.2477
  112OSM   H10S11602   2.645   5.772   9.455  0.4472  1.9956 -0.0705
  112OSM   H10T11603   2.540   5.921   9.435  0.5044  0.2673  3.1309
  112OSM   C11S11604   2.466   5.747   9.343  0.2936  0.2009  1.1130
  112OSM   H11S11605   2.360   5.777   9.340 -0.9507 -3.6822 -0.3737
  112OSM   H11T11606   2.459   5.640   9.374  1.7127  0.1464  1.3320
  112OSM   C12S11607   2.522   5.750   9.208  0.0691  0.2084 -0.1997
  112OSM   H12S11608   2.620   5.698   9.212 -0.0964 -0.0249  1.1368
  112OSM   H12T11609   2.536   5.854   9.171 -0.2677 -0.0615 -1.1284
  112OSM   C13S11610   2.432   5.681   9.105  0.4916  0.2977  0.0823
  112OSM   H13S11611   2.350   5.755   9.095 -0.0193 -0.2306  0.3121
  112OSM   H13T11612   2.396   5.584   9.146 -0.4623  0.5875 -0.0388
  112OSM   C14S11613   2.497   5.657   8.970  0.3062  0.5198 -0.2424
  112OSM   H14S11614   2.569   5.576   8.993 -1.1489 -0.7397  0.0235
  112OSM   H14T11615   2.554   5.746   8.936  0.2140 -0.1041 -2.1102
  112OSM   C15S11616   2.393   5.619   8.868  0.1266 -1.2641  0.3179
  112OSM   H15S11617   2.332   5.712   8.874  0.2387 -1.1702  0.0155
  112OSM   H15T11618   2.344   5.522   8.894 -0.0960 -1.2490 -0.0305
  112OSM   C16S11619   2.451   5.609   8.725  0.4837  0.5956 -0.2317
  112OSM   H16S11620   2.368   5.618   8.652  0.2674  2.1775  0.1625
  112OSM   H16T11621   2.497   5.508   8.718  0.1906  0.4384  0.0903
  112OSM   C17S11622   2.552   5.722   8.689 -0.2558  1.0265  0.5652
  112OSM   H17S11623   2.643   5.685   8.741  0.3966  1.9828  0.1123
  112OSM   H17T11624   2.519   5.821   8.728 -1.2973  1.0566 -0.3323
  112OSM   C18S11625   2.594   5.745   8.544  1.6360  0.2377  0.3133
  112OSM   H18S11626   2.657   5.837   8.543  0.1574  1.2786  0.3895
  112OSM   H18T11627   2.509   5.760   8.475  0.2064  1.9326  2.3162
  112OSM   H18U11628   2.650   5.656   8.509 -1.5170 -1.5326 -0.5454
  112OSM    C1F11629   2.030   5.883  10.276 -0.2718 -0.2924 -0.4084
  112OSM     OF11630   2.036   5.996  10.322 -0.0690 -0.2429  0.3544
  112OSM    C2F11631   1.895   5.813  10.267 -0.0758 -0.0781  0.0784
  112OSM    H2F11632   1.845   5.810  10.366  1.7448 -0.4816  1.0383
  112OSM    H2G11633   1.917   5.709  10.234  0.7842 -0.2038  1.0019
  112OSM    C3F11634   1.793   5.874  10.162 -0.4057 -0.7134  0.0437
  112OSM    H3F11635   1.774   5.976  10.200 -0.9452  0.4615 -3.0976
  112OSM    H3G11636   1.699   5.816  10.170  0.8315 -2.9323 -0.5833
  112OSM    C4F11637   1.848   5.889  10.027  0.1207 -0.1693 -0.1786
  112OSM    H4F11638   1.931   5.962  10.034 -1.0982  1.1572  1.5568
  112OSM    H4G11639   1.776   5.941   9.961  1.4403  1.5113 -0.3514
  112OSM    C5F11640   1.894   5.755   9.961  0.0507 -0.2355 -0.4265
  112OSM    H5F11641   1.813   5.679   9.963 -2.5557  2.3738 -0.2865
  112OSM    H5G11642   1.972   5.706  10.023  0.5273 -1.5991 -2.0414
  112OSM    C6F11643   1.920   5.768   9.815  0.2000  0.2261  0.0037
  112OSM    H6F11644   1.902   5.874   9.786 -1.1461  0.4151  1.4030
  112OSM    H6G11645   1.857   5.694   9.761  1.0699 -1.4383  1.1976
  112OSM    C7F11646   2.068   5.735   9.771  0.0536 -0.4756 -0.5324
  112OSM    H7F11647   2.084   5.649   9.838 -2.2327 -1.3869 -1.0395
  112OSM    H7G11648   2.131   5.822   9.800  0.9475 -0.8884 -1.2101
  112OSM    C8F11649   2.102   5.699   9.630 -0.0409  0.2784 -0.1713
  112OSM    H8F11650   2.204   5.655   9.629  0.5593  1.6493 -0.0851
  112OSM    H8G11651   2.111   5.796   9.577  0.2438  1.0883  1.3208
  112OSM    C9F11652   2.000   5.620   9.553  0.0302 -0.1495  0.7369
  112OSM    H9F11653   1.967   5.530   9.606 -1.1129 -1.9137 -2.6869
  112OSM   C10F11654   1.955   5.630   9.423 -0.2137 -0.2295 -0.5722
  112OSM   H10F11655   1.880   5.560   9.383 -2.0831  2.1150 -1.3508
  112OSM   C11F11656   2.001   5.741   9.331  0.4852 -0.0909  0.0424
  112OSM   H11F11657   2.056   5.826   9.376  1.7493 -2.3318  3.0140
  112OSM   H11G11658   1.910   5.787   9.287  1.1083  2.4542  1.1993
  112OSM   C12F11659   2.077   5.682   9.214 -0.7142  0.2462 -0.1122
  112OSM   H12F11660   2.169   5.637   9.256 -1.0533 -0.6881 -0.3276
  112OSM   H12G11661   2.096   5.764   9.141 -1.8183 -1.0736 -1.9772
  112OSM   C13F11662   2.010   5.573   9.129  0.9183 -0.7680 -0.5932
  112OSM   H13F11663   1.905   5.590   9.098  0.2270 -1.5206  1.2037
  112OSM   H13G11664   2.005   5.478   9.187 -3.5080  0.5291  1.6113
  112OSM   C14F11665   2.081   5.565   8.999  0.3438  0.1696 -0.3253
  112OSM   H14F11666   2.189   5.551   9.022 -0.0891 -2.3839  0.4690
  112OSM   H14G11667   2.057   5.662   8.950  0.9893  0.8410  0.6420
  112OSM   C15F11668   2.045   5.450   8.902  0.4986  0.1512  0.3898
  112OSM   H15F11669   2.075   5.356   8.953  1.3457 -0.0873 -0.5276
  112OSM   H15G11670   2.096   5.470   8.806 -0.9338  1.4346 -0.1497
  112OSM   C16F11671   1.893   5.427   8.882  0.0299 -0.6959  0.6458
  112OSM   H16F11672   1.851   5.530   8.879  1.9089  0.1377  1.6945
  112OSM   H16G11673   1.836   5.375   8.962 -0.5679 -2.1263 -0.6579
  112OSM   C17F11674   1.849   5.348   8.761 -0.1003 -0.5044 -0.7615
  112OSM   H17F11675   1.739   5.333   8.768 -0.2375 -0.0566 -1.7458
  112OSM   H17G11676   1.883   5.242   8.771  0.3821 -0.1625  1.6461
  112OSM   C18F11677   1.877   5.411   8.627 -0.1454  0.0469  0.0343
  112OSM   H18F11678   1.981   5.385   8.598  0.2315 -1.0452  2.1806
  112OSM   H18G11679   1.879   5.521   8.636 -0.3003 -0.0463  1.3739
  112OSM   H18H11680   1.806   5.381   8.546  0.1106  1.0352 -0.5682
  113OSM      N11681   3.471   4.357  10.749  0.3678 -1.1249 -0.1894
  113OSM    C1511682   3.362   4.460  10.724  0.0097  1.3464 -0.1656
  113OSM   H15A11683   3.270   4.424  10.767 -0.3981  1.0919 -1.2260
  113OSM   H15B11684   3.364   4.476  10.617 -1.2551  2.5493 -0.0346
  113OSM   H15C11685   3.381   4.556  10.770 -1.5149  1.4406  0.3215
  113OSM    C1411686   3.608   4.413  10.701  0.8319  0.0736  0.1116
  113OSM   H14A11687   3.637   4.506  10.749 -1.6734  1.0070 -0.0556
  113OSM   H14B11688   3.603   4.429  10.595  0.4498  2.5417  0.4303
  113OSM   H14C11689   3.686   4.341  10.724  1.8896  1.2462  0.3133
  113OSM    C1311690   3.493   4.343  10.896  0.6438  0.2628 -0.1369
  113OSM   H13A11691   3.580   4.279  10.904  0.8565  0.3210 -1.5923
  113OSM   H13B11692   3.409   4.291  10.940 -1.4553  2.3801 -1.4268
  113OSM   H13C11693   3.505   4.437  10.949  2.9632 -0.6932  1.2125
  113OSM    C1211694   3.444   4.229  10.671 -0.1988 -0.0714  0.1496
  113OSM   H12A11695   3.479   4.246  10.571 -2.5569 -3.6015 -1.4488
  113OSM   H12B11696   3.337   4.220  10.659 -0.0178 -1.5452 -0.5051
  113OSM    C1111697   3.515   4.111  10.723  0.1180 -0.1730 -0.2448
  113OSM   H11A11698   3.509   4.022  10.657  3.0421 -2.0698  1.8182
  113OSM   H11B11699   3.470   4.086  10.821 -0.4783  2.3526  0.1771
  113OSM      P11700   3.758   4.014  10.729 -0.2065 -0.4804  0.1035
  113OSM    O1311701   3.879   4.062  10.804 -0.0412 -0.0766  0.1740
  113OSM    O1411702   3.687   3.889  10.768  0.2689  0.2245 -0.1186
  113OSM    O1111703   3.786   4.004  10.573 -0.1987 -1.0075 -0.6327
  113OSM    O1211704   3.654   4.135  10.741 -0.3515  0.7640 -0.4410
  113OSM    C1S11705   3.684   3.990  10.477 -0.2725 -0.3589 -0.5511
  113OSM    H1S11706   3.655   4.095  10.455  0.8967 -0.1115 -0.9835
  113OSM    H1T11707   3.597   3.925  10.500 -1.9029  0.5906 -3.5478
  113OSM     NF11708   3.631   3.957  10.242 -0.1885  0.1596  0.5621
  113OSM    HNF11709   3.595   3.867  10.217  1.6088 -0.2023 -0.9547
  113OSM    C2S11710   3.739   3.945  10.345 -0.2069  0.5775 -0.1498
  113OSM    H2S11711   3.817   4.014  10.306  0.9252 -0.9938 -0.7364
  113OSM    C3S11712   3.801   3.809  10.357 -0.0061  0.2192  0.3452
  113OSM    H3S11713   3.720   3.735  10.376  1.6514 -1.7215  0.1618
  113OSM     O311714   3.901   3.803  10.465 -1.1554  0.2084  0.1075
  113OSM    HO311715   3.867   3.870  10.524 -0.2346 -0.1213  1.0483
  113OSM    C4S11716   3.863   3.768  10.225  0.3814 -0.0925 -0.8664
  113OSM    H4S11717   3.792   3.715  10.161  0.0403 -0.2177 -0.3892
  113OSM    C5S11718   3.984   3.799  10.175 -0.1014  0.8420 -0.0898
  113OSM    H5S11719   4.048   3.860  10.241  0.0303  0.0185  0.5740
  113OSM    C6S11720   4.034   3.767  10.036  0.0969 -0.5699  0.2130
  113OSM    H6S11721   3.960   3.711   9.975 -0.9563  1.3634 -0.3574
  113OSM    H6T11722   4.134   3.719  10.049  0.4118  0.4173  1.7345
  113OSM    C7S11723   4.053   3.896   9.951 -0.1625  0.0211 -0.5686
  113OSM    H7S11724   4.090   3.876   9.848 -0.3797  1.5421 -0.9619
  113OSM    H7T11725   4.131   3.959   9.999  0.4131  0.1239 -1.5924
  113OSM    C8S11726   3.921   3.980   9.935  0.2549 -0.2323  0.1391
  113OSM    H8S11727   3.937   4.068   9.869 -0.9684  0.6292  0.9587
  113OSM    H8T11728   3.898   4.024  10.035 -1.2493  1.0367 -0.7273
  113OSM    C9S11729   3.792   3.912   9.881  0.4049  0.3602 -0.3576
  113OSM    H9S11730   3.715   3.991   9.893  1.8139  2.2220 -2.7221
  113OSM    H9T11731   3.773   3.821   9.942  0.5345  0.3072 -0.3974
  113OSM   C10S11732   3.807   3.892   9.730 -0.2239 -0.9566  0.0126
  113OSM   H10S11733   3.876   3.809   9.705 -1.3379 -1.1319 -2.8958
  113OSM   H10T11734   3.854   3.985   9.689  0.5441 -0.1913  2.4493
  113OSM   C11S11735   3.680   3.862   9.654  0.4823  0.0843  0.5771
  113OSM   H11S11736   3.610   3.944   9.678 -0.6202 -0.9287  0.9280
  113OSM   H11T11737   3.627   3.773   9.695 -0.9648  0.3470 -0.6528
  113OSM   C12S11738   3.707   3.819   9.506  0.3466 -0.2653 -0.8079
  113OSM   H12S11739   3.790   3.745   9.499 -0.6957 -1.3290 -2.5633
  113OSM   H12T11740   3.737   3.920   9.472  0.4034  0.5799  1.5191
  113OSM   C13S11741   3.577   3.773   9.440 -0.2239  0.6364  0.1724
  113OSM   H13S11742   3.497   3.834   9.488  1.0283  2.0229  0.5851
  113OSM   H13T11743   3.574   3.667   9.472 -0.4234  0.3489 -0.7650
  113OSM   C14S11744   3.574   3.791   9.283  0.6784  0.6861  0.1147
  113OSM   H14S11745   3.566   3.895   9.246 -0.9864  0.1014 -1.3089
  113OSM   H14T11746   3.475   3.749   9.256 -0.1685  2.3460  0.4897
  113OSM   C15S11747   3.690   3.717   9.217 -0.3367  0.4045  0.2644
  113OSM   H15S11748   3.676   3.613   9.252 -0.0030  0.5912  0.9526
  113OSM   H15T11749   3.784   3.769   9.246  0.3676 -1.3491  1.2776
  113OSM   C16S11750   3.695   3.692   9.069  0.0459 -0.8334  0.7407
  113OSM   H16S11751   3.602   3.637   9.042 -1.0646  1.2310  0.2085
  113OSM   H16T11752   3.788   3.632   9.057  0.7120  0.5317 -1.5971
  113OSM   C17S11753   3.693   3.817   8.978 -0.4402  0.9049  0.1462
  113OSM   H17S11754   3.777   3.881   9.011 -1.8384  2.3954  0.9979
  113OSM   H17T11755   3.598   3.865   9.013 -2.3136 -1.5979 -1.2093
  113OSM   C18S11756   3.709   3.792   8.831 -0.8491  0.1354  0.5669
  113OSM   H18S11757   3.622   3.726   8.809 -0.1970 -1.3101  2.1159
  113OSM   H18T11758   3.796   3.735   8.792 -1.0506  0.0993  0.1525
  113OSM   H18U11759   3.695   3.885   8.773 -0.8086 -0.2274 -0.0372
  113OSM    C1F11760   3.588   4.071  10.187  0.5116 -0.1178 -0.2190
  113OSM     OF11761   3.644   4.170  10.216  0.1700 -0.2726 -0.1379
  113OSM    C2F11762   3.468   4.068  10.100 -0.0410  0.0411  0.5362
  113OSM    H2F11763   3.377   4.077  10.164 -0.6817 -0.0391 -0.3437
  113OSM    H2G11764   3.453   3.969  10.052  1.4204 -0.1201  0.3679
  113OSM    C3F11765   3.473   4.174   9.989 -0.2182 -0.2449 -0.1158
  113OSM    H3F11766   3.567   4.156   9.933  0.3248  0.0145  0.6971
  113OSM    H3G11767   3.486   4.269  10.046  0.9357 -1.0981  1.1001
  113OSM    C4F11768   3.360   4.178   9.886 -0.3110 -0.6830 -0.2033
  113OSM    H4F11769   3.385   4.113   9.800  0.8003  0.3676 -0.7015
  113OSM    H4G11770   3.349   4.279   9.840  1.6553  0.8165  2.3229
  113OSM    C5F11771   3.221   4.148   9.955 -0.2498  0.2179  0.3640
  113OSM    H5F11772   3.212   4.198  10.054  2.0853  1.0797  0.2192
  113OSM    H5G11773   3.212   4.038   9.966 -0.7129  0.1668 -0.5096
  113OSM    C6F11774   3.105   4.208   9.875 -0.0279  0.3902  0.4605
  113OSM    H6F11775   3.110   4.319   9.868  3.1527  0.3124  0.0744
  113OSM    H6G11776   3.006   4.193   9.925  0.9279 -2.0075  1.8138
  113OSM    C7F11777   3.096   4.144   9.736 -0.4616 -0.4469  0.0615
  113OSM    H7F11778   3.118   4.035   9.743  3.2644 -0.0990 -2.8165
  113OSM    H7G11779   3.175   4.184   9.669 -0.6550  0.7156  0.5127
  113OSM    C8F11780   2.960   4.157   9.658 -0.5712  0.4925 -0.3126
  113OSM    H8F11781   2.895   4.096   9.724  0.5457 -0.6952 -0.2725
  113OSM    H8G11782   2.974   4.098   9.564 -0.0401  0.3272 -0.1346
  113OSM    C9F11783   2.895   4.291   9.634 -0.1002 -0.3341  0.8054
  113OSM    H9F11784   2.918   4.378   9.698  1.0465  0.6176 -0.8019
  113OSM   C10F11785   2.795   4.303   9.544  0.3411  0.0085  0.2760
  113OSM   H10F11786   2.758   4.407   9.540 -0.4564 -0.1642  2.0130
  113OSM   C11F11787   2.737   4.210   9.446  0.3209 -0.2363 -0.1529
  113OSM   H11F11788   2.636   4.172   9.476 -0.0074  0.6418 -0.1162
  113OSM   H11G11789   2.792   4.114   9.449 -1.5720 -1.3977  3.0577
  113OSM   C12F11790   2.730   4.250   9.298 -0.7579  0.5193  0.2619
  113OSM   H12F11791   2.811   4.322   9.270 -1.5136  2.1504  1.9970
  113OSM   H12G11792   2.640   4.310   9.273 -1.8568 -1.2888 -0.3268
  113OSM   C13F11793   2.731   4.122   9.217  1.1023  0.4135  0.8279
  113OSM   H13F11794   2.661   4.049   9.265  1.9607 -0.6726  0.4722
  113OSM   H13G11795   2.831   4.074   9.224  1.5265  1.3890  1.7315
  113OSM   C14F11796   2.694   4.148   9.070 -0.5907 -0.1878 -0.4068
  113OSM   H14F11797   2.775   4.212   9.028 -0.0359 -0.7737 -0.2546
  113OSM   H14G11798   2.598   4.202   9.078  0.1669  0.9399  1.6788
  113OSM   C15F11799   2.672   4.029   8.976 -0.3607 -0.4641 -0.2481
  113OSM   H15F11800   2.620   4.064   8.884  0.3602  0.4408 -0.3223
  113OSM   H15G11801   2.612   3.951   9.028 -0.8274 -0.9958 -1.5245
  113OSM   C16F11802   2.797   3.948   8.939 -0.6012 -0.8035 -0.9213
  113OSM   H16F11803   2.760   3.860   8.882 -2.5512  0.2802 -1.4337
  113OSM   H16G11804   2.837   3.899   9.031  1.2946  0.2206 -1.1523
  113OSM   C17F11805   2.912   4.014   8.862 -0.6275 -0.3608 -0.1051
  113OSM   H17F11806   3.001   3.949   8.851  0.0436  0.7223 -1.3681
  113OSM   H17G11807   2.965   4.089   8.926  0.2992 -0.3666 -0.8451
  113OSM   C18F11808   2.874   4.067   8.725 -0.3143 -0.8569 -0.5122
  113OSM   H18F11809   2.962   4.107   8.670 -0.5510 -2.3529 -2.0550
  113OSM   H18G11810   2.808   4.154   8.742 -0.4817 -0.4763 -2.8298
  113OSM   H18H11811   2.823   3.983   8.673  1.2010 -1.8247 -0.5035
  114OSM      N11812   5.247   3.160  11.116 -0.1799 -0.2494  0.3193
  114OSM    C1511813   5.175   3.274  11.045 -0.2071 -0.0863 -0.1325
  114OSM   H15A11814   5.075   3.248  11.015  0.1505 -1.4249 -0.2107
  114OSM   H15B11815   5.224   3.317  10.958 -0.3553 -1.2261 -0.7895
  114OSM   H15C11816   5.181   3.356  11.115 -0.8151 -0.4209  0.3163
  114OSM    C1411817   5.397   3.186  11.103 -0.1993  0.2310 -0.3048
  114OSM   H14A11818   5.458   3.117  11.158  1.9463  0.9399 -1.6567
  114OSM   H14B11819   5.431   3.280  11.143  0.4013 -0.2490  0.3307
  114OSM   H14C11820   5.409   3.188  10.995 -0.7235  0.2117 -0.3673
  114OSM    C1311821   5.212   3.168  11.255  0.1597  0.4876  0.3742
  114OSM   H13A11822   5.106   3.150  11.262  0.6488 -2.8851  0.7336
  114OSM   H13B11823   5.226   3.267  11.295 -0.8867  0.6747  0.3030
  114OSM   H13C11824   5.254   3.087  11.313 -2.0326 -0.9194  0.1033
  114OSM    C1211825   5.231   3.027  11.049 -0.0741 -0.7592  0.0872
  114OSM   H12A11826   5.286   3.031  10.957 -1.0700  1.4006 -0.4723
  114OSM   H12B11827   5.128   3.018  11.018 -0.4683  0.6230  0.9307
  114OSM    C1111828   5.282   2.902  11.126 -0.8193  0.4589  0.0212
  114OSM   H11A11829   5.383   2.930  11.163  0.3709 -1.2191 -1.7841
  114OSM   H11B11830   5.294   2.821  11.052 -4.4213 -0.6795  0.4798
  114OSM      P11831   5.067   2.795  11.239  0.4940 -0.2417 -0.2866
  114OSM    O1311832   5.078   2.654  11.287 -0.4006  0.4975 -0.2114
  114OSM    O1411833   4.987   2.879  11.325 -0.4148  1.0524 -0.4309
  114OSM    O1111834   5.017   2.809  11.086  0.4158 -0.3832  0.2584
  114OSM    O1211835   5.208   2.862  11.235  0.4174 -0.0659 -0.1081
  114OSM    C1S11836   4.916   2.896  11.047  0.0400 -0.1146  0.1868
  114OSM    H1S11837   4.954   3.000  11.055 -0.3446  0.1263 -0.9673
  114OSM    H1T11838   4.821   2.884  11.103 -1.1759 -0.9809 -1.9532
  114OSM     NF11839   4.800   2.995  10.847 -1.0865 -0.3563 -0.9153
  114OSM    HNF11840   4.701   2.996  10.855 -0.9572  1.8926  1.5853
  114OSM    C2S11841   4.875   2.877  10.901 -0.0020 -0.4918  0.3630
  114OSM    H2S11842   4.969   2.876  10.842 -0.3803  1.4042 -0.3355
  114OSM    C3S11843   4.797   2.747  10.869  0.4186 -1.0359 -0.2876
  114OSM    H3S11844   4.706   2.746  10.934  1.6732  0.9230  1.6441
  114OSM     O311845   4.878   2.630  10.905 -1.1252 -0.0517  0.1149
  114OSM    HO311846   4.942   2.661  10.969  0.1184 -2.1764 -0.0081
  114OSM    C4S11847   4.758   2.723  10.729  0.2411  0.0154 -0.5658
  114OSM    H4S11848   4.678   2.798  10.713  1.6998  1.5455 -0.9607
  114OSM    C5S11849   4.806   2.650  10.627 -0.0855 -0.5229 -0.1955
  114OSM    H5S11850   4.899   2.593  10.643 -0.0767 -0.1642  1.1289
  114OSM    C6S11851   4.747   2.653  10.494 -0.5063 -0.1274  0.2616
  114OSM    H6S11852   4.651   2.708  10.479 -1.5865 -1.7534  1.0437
  114OSM    H6T11853   4.719   2.551  10.461  3.1369 -1.4967  0.9415
  114OSM    C7S11854   4.854   2.700  10.396 -0.4896 -0.5125 -0.4535
  114OSM    H7S11855   4.940   2.632  10.415 -2.5073 -3.0911  0.0282
  114OSM    H7T11856   4.877   2.805  10.423 -1.1286 -0.7931  1.2803
  114OSM    C8S11857   4.809   2.683  10.251 -0.2163 -0.1017 -0.0899
  114OSM    H8S11858   4.714   2.742  10.242 -0.1609  0.0351  0.2034
  114OSM    H8T11859   4.798   2.577  10.222  0.8420 -0.1398 -0.4020
  114OSM    C9S11860   4.921   2.736  10.162 -0.1937 -0.2901  0.1841
  114OSM    H9S11861   5.009   2.668  10.170  1.9178  2.3281  0.2914
  114OSM    H9T11862   4.951   2.834  10.204 -0.6497  0.1949 -0.5921
  114OSM   C10S11863   4.888   2.762  10.015 -0.1681 -0.4710 -0.0394
  114OSM   H10S11864   4.800   2.829  10.025 -0.5477 -1.1162  1.1975
  114OSM   H10T11865   4.866   2.667   9.961 -0.4405  0.8848 -2.4350
  114OSM   C11S11866   5.015   2.825   9.948  0.2700  0.3387  0.0541
  114OSM   H11S11867   5.102   2.758   9.965 -1.0025 -1.5622 -0.5425
  114OSM   H11T11868   5.044   2.918  10.002 -0.2371  0.2235  0.5298
  114OSM   C12S11869   4.993   2.862   9.799 -0.2365  0.1834 -0.2853
  114OSM   H12S11870   4.932   2.954   9.809  0.5303  0.5669  1.2368
  114OSM   H12T11871   4.934   2.778   9.756  1.2899 -1.2914  0.3904
  114OSM   C13S11872   5.116   2.871   9.709  0.0869 -0.2472  0.5950
  114OSM   H13S11873   5.180   2.939   9.768  0.8253 -0.5366  0.1420
  114OSM   H13T11874   5.084   2.899   9.606 -3.4790  1.9579  2.1059
  114OSM   C14S11875   5.192   2.739   9.695  0.7039  0.5759  0.6842
  114OSM   H14S11876   5.128   2.667   9.638 -1.9101  2.8402  0.5380
  114OSM   H14T11877   5.201   2.685   9.791  1.2291 -1.1252 -0.2775
  114OSM   C15S11878   5.331   2.746   9.611  0.1743  0.4267 -0.5390
  114OSM   H15S11879   5.398   2.662   9.638  0.5353  0.8736 -0.0015
  114OSM   H15T11880   5.380   2.840   9.644  0.1090  0.4735 -0.5740
  114OSM   C16S11881   5.295   2.750   9.465 -1.1251 -0.4809  0.6074
  114OSM   H16S11882   5.214   2.824   9.446  1.0602  2.0334  0.4629
  114OSM   H16T11883   5.266   2.647   9.435  3.1710 -1.6475 -0.2253
  114OSM   C17S11884   5.418   2.796   9.371 -0.3035  0.0285 -0.2266
  114OSM   H17S11885   5.493   2.714   9.367 -0.3167  0.0445 -0.9336
  114OSM   H17T11886   5.476   2.880   9.415 -2.9711  0.8325  2.0369
  114OSM   C18S11887   5.375   2.815   9.229 -0.3169 -0.0433  0.0734
  114OSM   H18S11888   5.300   2.895   9.216 -1.1631 -0.8485 -0.1262
  114OSM   H18T11889   5.338   2.717   9.191  2.8792 -0.2541 -3.0278
  114OSM   H18U11890   5.460   2.844   9.164  0.4692  1.3464  1.6521
  114OSM    C1F11891   4.863   3.114  10.820  0.3243 -0.8188  0.0541
  114OSM     OF11892   4.974   3.135  10.865 -0.5515  0.3054 -0.1288
  114OSM    C2F11893   4.779   3.221  10.744 -0.0707 -0.7495 -0.5889
  114OSM    H2F11894   4.674   3.190  10.764 -0.8560  1.1404 -1.5372
  114OSM    H2G11895   4.801   3.214  10.635  0.1354  1.7778 -0.7649
  114OSM    C3F11896   4.803   3.362  10.803  0.6341 -0.4233  0.5943
  114OSM    H3F11897   4.907   3.373  10.766 -0.0252 -0.6285 -1.4569
  114OSM    H3G11898   4.796   3.369  10.914 -1.2833  2.6415  0.3905
  114OSM    C4F11899   4.709   3.469  10.735  0.2151  0.0000 -0.4321
  114OSM    H4F11900   4.751   3.567  10.766  2.0934 -1.4832  2.1183
  114OSM    H4G11901   4.603   3.455  10.767  0.1777 -1.3430 -1.0660
  114OSM    C5F11902   4.704   3.464  10.579  0.1966  0.5413 -0.9438
  114OSM    H5F11903   4.676   3.359  10.556  0.9004 -0.0597  0.7621
  114OSM    H5G11904   4.808   3.483  10.543 -0.2353 -0.3355 -2.7909
  114OSM    C6F11905   4.601   3.561  10.519 -0.1992  0.4436  0.2621
  114OSM    H6F11906   4.623   3.663  10.558  0.7428 -0.3294  1.9007
  114OSM    H6G11907   4.496   3.539  10.547  0.6224 -2.2753  1.5388
  114OSM    C7F11908   4.619   3.548  10.367 -0.1575  0.6161 -0.2263
  114OSM    H7F11909   4.592   3.442  10.347 -0.3541 -0.1334  3.3258
  114OSM    H7G11910   4.722   3.551  10.326 -0.1236 -0.0505 -0.2013
  114OSM    C8F11911   4.524   3.644  10.297  0.8474 -0.6312 -0.4604
  114OSM    H8F11912   4.422   3.619  10.332  1.6477 -3.8264 -0.0766
  114OSM    H8G11913   4.521   3.616  10.190  1.7736  0.0369 -0.6791
  114OSM    C9F11914   4.569   3.790  10.313  0.2724  0.2136  0.8293
  114OSM    H9F11915   4.590   3.818  10.417 -0.6172 -2.4418  1.7893
  114OSM   C10F11916   4.609   3.873  10.210 -0.5085  0.3809 -0.5048
  114OSM   H10F11917   4.625   3.978  10.239 -2.7622  0.4686  0.6572
  114OSM   C11F11918   4.616   3.849  10.063 -0.5214 -0.7499  0.2230
  114OSM   H11F11919   4.586   3.745  10.036 -1.4713 -0.9110  1.7526
  114OSM   H11G11920   4.718   3.851  10.019 -0.3591 -0.0988  0.6160
  114OSM   C12F11921   4.537   3.949   9.972 -0.7193  0.4367 -0.2068
  114OSM   H12F11922   4.560   4.049  10.015 -0.9103 -0.0330  1.0360
  114OSM   H12G11923   4.428   3.926   9.978 -0.6517  0.2786  0.5581
  114OSM   C13F11924   4.584   3.940   9.824  0.3904  0.6036 -0.0709
  114OSM   H13F11925   4.693   3.920   9.818  0.3343 -0.2833  1.3180
  114OSM   H13G11926   4.565   4.040   9.782  1.3606  1.1736  0.7997
  114OSM   C14F11927   4.518   3.834   9.730  0.2345  0.0876 -0.4770
  114OSM   H14F11928   4.519   3.729   9.767 -0.9453 -0.5601 -2.1590
  114OSM   H14G11929   4.583   3.838   9.640  0.7580  0.5933 -0.0836
  114OSM   C15F11930   4.369   3.870   9.698 -0.1775  0.0799 -0.2315
  114OSM   H15F11931   4.353   3.979   9.688 -2.9695 -0.2019  0.2164
  114OSM   H15G11932   4.310   3.846   9.789 -0.4245  1.6365  0.0511
  114OSM   C16F11933   4.315   3.786   9.585 -0.2923  1.1537  0.2571
  114OSM   H16F11934   4.340   3.679   9.603  0.7032  0.9723 -1.8858
  114OSM   H16G11935   4.371   3.807   9.492  2.6042 -1.4288  1.2449
  114OSM   C17F11936   4.164   3.803   9.577  0.2397 -0.4764  0.3102
  114OSM   H17F11937   4.160   3.913   9.592 -0.2639 -0.0468 -2.5317
  114OSM   H17G11938   4.107   3.747   9.654 -0.7979 -3.1844 -2.2095
  114OSM   C18F11939   4.101   3.781   9.434  0.3174 -0.3877 -1.5160
  114OSM   H18F11940   4.175   3.818   9.360  0.1344  4.0757  0.1934
  114OSM   H18G11941   4.011   3.846   9.427  0.4050 -0.2825 -1.6669
  114OSM   H18H11942   4.081   3.672   9.422 -1.4330 -0.0181 -2.1321
  115OSM      N11943   5.259   1.282   5.739  0.3806  0.6919 -0.1858
  115OSM    C1511944   5.400   1.243   5.729  0.9372  0.0213  0.1385
  115OSM   H15A11945   5.408   1.138   5.705  1.1426  0.1249 -0.2538
  115OSM   H15B11946   5.444   1.254   5.827 -1.4214 -0.2505  1.3048
  115OSM   H15C11947   5.443   1.297   5.647  1.5343  2.7014  2.0812
  115OSM    C1411948   5.251   1.432   5.738 -0.6977  0.7054  0.5589
  115OSM   H14A11949   5.155   1.469   5.769 -0.5323  1.3967  0.2627
  115OSM   H14B11950   5.261   1.473   5.639  0.0118  0.8127  0.6641
  115OSM   H14C11951   5.326   1.477   5.802 -0.1433  1.4875 -0.6127
  115OSM    C1311952   5.172   1.225   5.628  0.2057 -0.3478 -0.0341
  115OSM   H13A11953   5.204   1.270   5.536  1.3856 -2.2813 -0.6323
  115OSM   H13B11954   5.066   1.244   5.642  0.5204  1.6638 -0.1428
  115OSM   H13C11955   5.181   1.117   5.621 -2.3608 -0.7050  1.0439
  115OSM    C1211956   5.207   1.230   5.876  0.2602  0.5030 -0.2405
  115OSM   H12A11957   5.266   1.261   5.960  0.9918 -1.0578 -0.1503
  115OSM   H12B11958   5.234   1.126   5.873 -0.4383  0.3273 -1.1873
  115OSM    C1111959   5.054   1.231   5.916  0.8547 -0.6702  0.5441
  115OSM   H11A11960   5.044   1.182   6.015  1.0846 -0.6488  0.5788
  115OSM   H11B11961   4.999   1.170   5.841  2.4996 -0.1828 -1.1259
  115OSM      P11962   5.020   1.445   6.052  0.4640 -0.3320 -0.1530
  115OSM    O1311963   5.093   1.569   6.016  0.0818 -0.8305  0.5842
  115OSM    O1411964   4.894   1.458   6.133 -0.2198  0.3223  0.0858
  115OSM    O1111965   5.121   1.360   6.140 -0.0823 -0.0522 -0.0434
  115OSM    O1211966   5.001   1.369   5.920  0.1792  0.4240  0.0178
  115OSM    C1S11967   5.113   1.367   6.285 -0.1782  0.0677 -0.0071
  115OSM    H1S11968   5.013   1.337   6.323  0.0679  0.2575  0.8196
  115OSM    H1T11969   5.114   1.475   6.311  1.3397  0.3096 -0.8879
  115OSM     NF11970   5.214   1.309   6.498 -0.6546 -0.1022  0.4197
  115OSM    HNF11971   5.272   1.374   6.547  0.6555 -2.1789  1.7716
  115OSM    C2S11972   5.230   1.301   6.353 -0.7453  0.0146 -0.1513
  115OSM    H2S11973   5.231   1.194   6.325  0.7877  0.3536 -1.5565
  115OSM    C3S11974   5.365   1.360   6.306  0.0151 -0.1702 -0.1323
  115OSM    H3S11975   5.372   1.470   6.323  2.5158 -0.3527  0.4873
  115OSM     O311976   5.385   1.353   6.164  0.4409 -0.1955  0.0558
  115OSM    HO311977   5.291   1.350   6.146  0.0242 -0.4141  2.0662
  115OSM    C4S11978   5.482   1.288   6.372 -0.1232 -0.3298 -0.4482
  115OSM    H4S11979   5.498   1.187   6.332 -0.1169 -0.4535 -0.1292
  115OSM    C5S11980   5.573   1.341   6.455 -0.3001  0.1944  0.0474
  115OSM    H5S11981   5.584   1.448   6.476  2.4151 -0.2666  1.5571
  115OSM    C6S11982   5.688   1.254   6.497 -0.3626  0.1660 -0.3014
  115OSM    H6S11983   5.773   1.236   6.427  1.5356  0.6779  1.7620
  115OSM    H6T11984   5.653   1.152   6.523 -3.0328  1.1389  0.2453
  115OSM    C7S11985   5.769   1.313   6.618  0.2209  0.0447 -0.5494
  115OSM    H7S11986   5.832   1.401   6.590 -2.1188  1.3741 -1.9472
  115OSM    H7T11987   5.830   1.224   6.645 -0.3818  0.3424  2.0442
  115OSM    C8S11988   5.684   1.338   6.741  0.6725 -0.7899  0.7059
  115OSM    H8S11989   5.592   1.393   6.709 -0.3503 -0.8002  3.3591
  115OSM    H8T11990   5.738   1.408   6.808  0.2768 -0.6927  0.9311
  115OSM    C9S11991   5.651   1.222   6.831  0.3188  0.1295  0.2545
  115OSM    H9S11992   5.744   1.162   6.828 -0.1577 -0.6181 -2.1083
  115OSM    H9T11993   5.577   1.152   6.786  1.2680  0.3536 -1.7859
  115OSM   C10S11994   5.611   1.270   6.976 -0.1000  0.4197  0.4145
  115OSM   H10S11995   5.516   1.328   6.974 -1.3099 -1.4314  1.0573
  115OSM   H10T11996   5.697   1.330   7.013  1.1211  0.6796 -2.5846
  115OSM   C11S11997   5.582   1.147   7.068  0.1717 -0.0851 -0.1574
  115OSM   H11S11998   5.668   1.078   7.062  1.2351  0.8043  2.9203
  115OSM   H11T11999   5.492   1.087   7.042 -0.6391  1.5577 -1.3879
  115OSM   C12S12000   5.559   1.192   7.219 -0.2241  0.8383  0.2223
  115OSM   H12S12001   5.464   1.249   7.211 -0.4144  0.3315 -2.0039
  115OSM   H12T12002   5.643   1.260   7.243 -0.3975  1.4097 -0.7366
  115OSM   C13S12003   5.541   1.070   7.302  0.2972  0.0191  0.6444
  115OSM   H13S12004   5.635   1.013   7.312 -0.4644 -1.2566  0.7732
  115OSM   H13T12005   5.464   1.002   7.261  1.5582 -1.1423  0.1382
  115OSM   C14S12006   5.502   1.115   7.445  0.6937 -0.1186  0.0224
  115OSM   H14S12007   5.407   1.172   7.449  1.7532  1.7469  0.1307
  115OSM   H14T12008   5.590   1.178   7.473  1.1978 -0.4035 -0.8656
  115OSM   C15S12009   5.480   0.994   7.533  0.0302 -0.0216  0.2920
  115OSM   H15S12010   5.565   0.923   7.528 -1.1924 -1.5201  0.1051
  115OSM   H15T12011   5.396   0.938   7.487 -0.7453  1.2713  0.0745
  115OSM   C16S12012   5.435   1.027   7.674  0.1209 -0.1215 -0.1543
  115OSM   H16S12013   5.407   0.931   7.721 -0.4819 -0.1038 -0.4665
  115OSM   H16T12014   5.338   1.080   7.687 -0.2026 -1.1235  1.7242
  115OSM   C17S12015   5.550   1.086   7.754  0.5278 -0.4135  0.4008
  115OSM   H17S12016   5.571   1.189   7.717  2.0084 -1.6789 -2.5928
  115OSM   H17T12017   5.644   1.027   7.752  0.4714 -0.4906 -1.2197
  115OSM   C18S12018   5.515   1.110   7.896  0.8350  1.1717  0.9283
  115OSM   H18S12019   5.433   1.184   7.907  0.3325  0.5672  1.3199
  115OSM   H18T12020   5.609   1.145   7.944  1.0017  1.1830  0.5942
  115OSM   H18U12021   5.482   1.017   7.947  1.5273  0.4261  0.0450
  115OSM    C1F12022   5.124   1.240   6.573  0.2905  0.2059  0.2273
  115OSM     OF12023   5.045   1.159   6.529  0.0519 -0.4449  0.0805
  115OSM    C2F12024   5.124   1.269   6.716  0.1957  0.2262 -0.4312
  115OSM    H2F12025   5.021   1.284   6.755 -0.4709 -4.5570  0.2285
  115OSM    H2G12026   5.194   1.351   6.741  0.9210 -0.4568 -0.1725
  115OSM    C3F12027   5.199   1.145   6.790  0.1484 -0.2682  0.3478
  115OSM    H3F12028   5.304   1.161   6.758 -0.7476  1.7265 -1.8843
  115OSM    H3G12029   5.169   1.042   6.762 -0.5728  0.1701 -0.5355
  115OSM    C4F12030   5.192   1.155   6.944 -0.3776 -0.6788 -0.1302
  115OSM    H4F12031   5.219   1.254   6.985 -0.9381 -0.8113  0.5852
  115OSM    H4G12032   5.267   1.082   6.983 -1.1237 -0.1895  2.3787
  115OSM    C5F12033   5.051   1.118   6.995 -0.0204 -0.0975  0.0308
  115OSM    H5F12034   5.024   1.011   6.977 -1.1378 -0.0196  1.1295
  115OSM    H5G12035   4.978   1.190   6.953  0.3555  0.7392  0.7910
  115OSM    C6F12036   5.040   1.132   7.146 -0.0849 -0.2742 -0.4856
  115OSM    H6F12037   5.082   1.231   7.175 -1.7124 -0.0933  1.4232
  115OSM    H6G12038   5.098   1.056   7.204 -0.1713 -0.6079 -0.8330
  115OSM    C7F12039   4.898   1.117   7.192  0.1454 -0.1381  0.2920
  115OSM    H7F12040   4.846   1.037   7.135  0.7722  0.0016 -0.4777
  115OSM    H7G12041   4.844   1.212   7.171  2.0657  0.4080 -2.6783
  115OSM    C8F12042   4.872   1.080   7.339 -0.7851  0.6687 -0.6293
  115OSM    H8F12043   4.937   1.151   7.394  0.1095  0.0375 -0.8487
  115OSM    H8G12044   4.895   0.974   7.360 -1.2809  0.7153  0.1874
  115OSM    C9F12045   4.734   1.082   7.386  0.0267 -0.2744  0.5343
  115OSM    H9F12046   4.654   1.071   7.312  0.4325  0.7990 -0.0858
  115OSM   C10F12047   4.689   1.107   7.508  0.0658  0.0150  0.3921
  115OSM   H10F12048   4.583   1.132   7.525  0.0737  0.3816 -0.0727
  115OSM   C11F12049   4.766   1.130   7.634 -0.0682 -0.2829  0.9820
  115OSM   H11F12050   4.875   1.140   7.617 -0.3162  0.2106 -0.4718
  115OSM   H11G12051   4.749   1.042   7.699  3.0678 -3.6964 -2.3572
  115OSM   C12F12052   4.714   1.250   7.712  0.3052 -0.5863 -1.2226
  115OSM   H12F12053   4.610   1.224   7.739  0.6739 -0.3740  0.4967
  115OSM   H12G12054   4.703   1.345   7.656 -1.4141 -0.8804 -1.4203
  115OSM   C13F12055   4.787   1.289   7.838  0.4140  0.3397 -0.1948
  115OSM   H13F12056   4.778   1.399   7.847  1.4803  0.3553  1.0390
  115OSM   H13G12057   4.894   1.260   7.829  1.0482  2.4788 -0.0486
  115OSM   C14F12058   4.740   1.212   7.958  0.2387 -0.0801 -0.2942
  115OSM   H14F12059   4.803   1.243   8.044 -1.6582 -0.2904  1.2537
  115OSM   H14G12060   4.743   1.102   7.941  0.2809  0.1806 -2.1392
  115OSM   C15F12061   4.594   1.246   7.998  0.5118 -0.3418 -0.0295
  115OSM   H15F12062   4.516   1.213   7.926  0.9427 -1.0191 -0.1882
  115OSM   H15G12063   4.599   1.356   8.011  0.8062 -0.5500  2.0260
  115OSM   C16F12064   4.543   1.193   8.134 -0.1591  0.6061 -0.3027
  115OSM   H16F12065   4.459   1.250   8.179  0.3524 -0.2811  1.8860
  115OSM   H16G12066   4.625   1.203   8.208 -0.5289 -0.9816  0.3609
  115OSM   C17F12067   4.500   1.046   8.140  0.4571 -0.4371  0.2075
  115OSM   H17F12068   4.565   0.967   8.097 -0.5923 -1.1237 -0.1700
  115OSM   H17G12069   4.411   1.042   8.074 -0.2441  1.7312  0.9120
  115OSM   C18F12070   4.463   1.018   8.291 -0.5817  0.5584  0.9094
  115OSM   H18F12071   4.382   1.086   8.327 -0.1078  2.2395 -1.0206
  115OSM   H18G12072   4.543   1.044   8.363 -0.5819 -1.0368  1.5262
  115OSM   H18H12073   4.432   0.912   8.298 -2.1609  0.8963 -0.3755
  116OSM      N12074   4.186   4.697   6.283 -0.1613  0.4976  0.2140
  116OSM    C1512075   4.176   4.791   6.169 -0.3425 -0.1623  0.4955
  116OSM   H15A12076   4.274   4.812   6.129 -1.0636  1.3359 -0.5805
  116OSM   H15B12077   4.135   4.883   6.209 -3.1525 -0.7679 -0.7409
  116OSM   H15C12078   4.109   4.759   6.091 -0.7383  2.7076 -0.4553
  116OSM    C1412079   4.315   4.732   6.367 -0.6149 -0.1881  0.6490
  116OSM   H14A12080   4.341   4.664   6.446  0.8328 -0.5566 -0.1113
  116OSM   H14B12081   4.302   4.830   6.410 -0.1466 -0.3319  1.1242
  116OSM   H14C12082   4.396   4.725   6.295 -1.4392 -1.9951 -0.1598
  116OSM    C1312083   4.065   4.719   6.367  0.0119  0.2426  0.6969
  116OSM   H13A12084   4.076   4.796   6.442 -1.6316  2.8245 -1.4779
  116OSM   H13B12085   4.040   4.627   6.418 -1.4750 -0.4150 -1.1014
  116OSM   H13C12086   3.981   4.731   6.300  1.2145  1.6489 -0.6430
  116OSM    C1212087   4.184   4.560   6.226 -0.0466  0.1786 -0.0152
  116OSM   H12A12088   4.195   4.504   6.318  0.1629  2.6278  1.5404
  116OSM   H12B12089   4.270   4.546   6.161  1.4089  0.6608  1.7237
  116OSM    C1112090   4.052   4.505   6.165 -0.2724 -0.1583 -0.6250
  116OSM   H11A12091   4.093   4.439   6.086 -0.2414  0.8131 -1.4355
  116OSM   H11B12092   3.978   4.569   6.114 -2.4093 -0.7857  1.5121
  116OSM      P12093   3.843   4.426   6.300 -0.0753  0.3834 -0.3664
  116OSM    O1312094   3.828   4.542   6.388  0.0292  0.0821 -0.1176
  116OSM    O1412095   3.755   4.428   6.180 -0.0732 -0.0818  0.8742
  116OSM    O1112096   3.822   4.293   6.382 -0.1613 -0.3878  0.1342
  116OSM    O1212097   3.994   4.416   6.262 -0.0644  0.1810 -0.3337
  116OSM    C1S12098   3.910   4.281   6.502  0.2462  0.4426  0.3536
  116OSM    H1S12099   4.002   4.343   6.495  1.0510 -0.1575  3.8306
  116OSM    H1T12100   3.943   4.174   6.505  1.6361  0.8325 -0.3105
  116OSM     NF12101   3.918   4.298   6.749  0.1043 -0.0467 -0.3759
  116OSM    HNF12102   3.916   4.215   6.805 -0.2077  1.0144  1.2399
  116OSM    C2S12103   3.831   4.301   6.633  0.4258 -0.6740 -0.1065
  116OSM    H2S12104   3.782   4.401   6.631 -3.0276 -2.2379 -0.0079
  116OSM    C3S12105   3.707   4.205   6.659 -0.2005 -0.2495  0.0757
  116OSM    H3S12106   3.727   4.097   6.649 -0.7892 -0.3093 -0.4805
  116OSM     O312107   3.606   4.221   6.560 -0.6092  0.5491 -0.1359
  116OSM    HO312108   3.634   4.280   6.490 -0.9709 -0.3064 -1.0288
  116OSM    C4S12109   3.638   4.234   6.798 -0.0291  0.3588 -0.6006
  116OSM    H4S12110   3.616   4.342   6.798 -1.2456  0.1324 -0.0077
  116OSM    C5S12111   3.625   4.155   6.906  0.1923  0.0817 -0.1847
  116OSM    H5S12112   3.651   4.048   6.900  0.1538  0.0733 -0.1972
  116OSM    C6S12113   3.553   4.195   7.033  0.0334 -0.2231 -0.1517
  116OSM    H6S12114   3.448   4.163   7.020 -0.7429  0.6476  3.0836
  116OSM    H6T12115   3.554   4.305   7.045  0.2207 -0.0859 -1.3119
  116OSM    C7S12116   3.607   4.127   7.157 -0.0888  0.5331  0.0206
  116OSM    H7S12117   3.715   4.144   7.176  0.0752 -0.4073 -0.0328
  116OSM    H7T12118   3.593   4.017   7.154  0.7404  0.4329 -2.2221
  116OSM    C8S12119   3.532   4.179   7.288 -0.3037 -0.0259 -0.2073
  116OSM    H8S12120   3.423   4.178   7.267 -0.8537 -0.8438  2.3734
  116OSM    H8T12121   3.572   4.281   7.307  0.7216  0.2350 -3.1596
  116OSM    C9S12122   3.554   4.093   7.411 -0.2252 -0.0049 -0.1861
  116OSM    H9S12123   3.662   4.071   7.424 -0.0470 -0.3866 -2.0223
  116OSM    H9T12124   3.509   3.994   7.385 -0.8707  0.7996 -2.3894
  116OSM   C10S12125   3.482   4.148   7.531 -0.1891 -0.1107  0.1724
  116OSM   H10S12126   3.378   4.171   7.499  0.0566  1.6110  0.5038
  116OSM   H10T12127   3.518   4.250   7.558 -1.5528  0.2437  0.7378
  116OSM   C11S12128   3.492   4.052   7.649  0.0704 -0.4806  0.0620
  116OSM   H11S12129   3.598   4.028   7.672  0.4364  1.0122  0.0539
  116OSM   H11T12130   3.439   3.956   7.633 -0.3026 -0.2152 -0.3166
  116OSM   C12S12131   3.446   4.125   7.775  0.7636  0.4720 -0.0408
  116OSM   H12S12132   3.346   4.167   7.753  0.7595  0.8326  0.6428
  116OSM   H12T12133   3.516   4.199   7.818  0.7990  1.1582 -1.2393
  116OSM   C13S12134   3.426   4.039   7.908 -0.5775 -0.0218  0.5122
  116OSM   H13S12135   3.519   3.996   7.951 -0.5791  1.3799  1.9905
  116OSM   H13T12136   3.374   3.944   7.882  1.4427 -0.8765 -0.6447
  116OSM   C14S12137   3.354   4.109   8.021  0.4499 -0.2719 -0.1854
  116OSM   H14S12138   3.254   4.143   7.988  1.1016  0.9475 -1.0074
  116OSM   H14T12139   3.408   4.198   8.060  0.2415 -0.4251  0.4654
  116OSM   C15S12140   3.330   4.016   8.148 -0.2668  0.2262 -0.3490
  116OSM   H15S12141   3.429   3.992   8.193 -0.2452  1.6413  0.4094
  116OSM   H15T12142   3.287   3.920   8.112  0.2009 -1.1944  2.5597
  116OSM   C16S12143   3.234   4.068   8.258  0.2797 -0.0209  0.3810
  116OSM   H16S12144   3.140   4.084   8.201  0.5553 -0.2594 -0.1455
  116OSM   H16T12145   3.276   4.155   8.313  3.3353 -1.8220  1.1581
  116OSM   C17S12146   3.217   3.963   8.369 -0.6431 -0.0007  0.2815
  116OSM   H17S12147   3.316   3.939   8.414 -1.3056 -1.4820  1.0201
  116OSM   H17T12148   3.171   3.869   8.329  0.6407 -1.7340  2.6451
  116OSM   C18S12149   3.108   4.015   8.458 -0.4796 -0.4430 -0.2295
  116OSM   H18S12150   3.065   3.935   8.522 -1.5512  0.3739  0.0954
  116OSM   H18T12151   3.020   4.051   8.401  0.4409 -1.2773 -2.2689
  116OSM   H18U12152   3.136   4.098   8.526  0.3252 -1.1174  0.2860
  116OSM    C1F12153   4.015   4.389   6.767 -0.6114  0.2780 -0.2305
  116OSM     OF12154   4.008   4.496   6.712 -0.4110 -0.3801 -0.1140
  116OSM    C2F12155   4.125   4.362   6.862 -0.5812 -0.5639 -0.2940
  116OSM    H2F12156   4.220   4.367   6.804  0.4126  1.6894  1.3712
  116OSM    H2G12157   4.101   4.273   6.925  0.3584  1.1105  2.6439
  116OSM    C3F12158   4.135   4.483   6.961  0.3162 -0.4275 -0.4334
  116OSM    H3F12159   4.105   4.586   6.933  0.0997 -0.2387  0.4701
  116OSM    H3G12160   4.244   4.495   6.983  0.1207  2.8383 -0.8264
  116OSM    C4F12161   4.069   4.439   7.095 -1.3395  0.2631 -0.2109
  116OSM    H4F12162   4.095   4.525   7.160  1.1956  0.4726 -1.3759
  116OSM    H4G12163   4.091   4.345   7.150 -1.6950  0.3062  0.0045
  116OSM    C5F12164   3.920   4.447   7.084  0.6682 -0.1004  0.0022
  116OSM    H5F12165   3.872   4.357   7.040 -0.3310  0.2183  0.3956
  116OSM    H5G12166   3.896   4.530   7.014 -1.0693  1.2168  2.0112
  116OSM    C6F12167   3.858   4.490   7.213 -0.5511 -0.5838  0.0228
  116OSM    H6F12168   3.755   4.524   7.189 -0.9163 -1.6796 -0.0002
  116OSM    H6G12169   3.923   4.572   7.250  0.9395 -1.4281 -0.6637
  116OSM    C7F12170   3.861   4.384   7.323 -0.1662  0.1710 -0.3387
  116OSM    H7F12171   3.967   4.356   7.339  0.0172 -0.7388 -2.8193
  116OSM    H7G12172   3.786   4.310   7.287 -1.7361  2.3655 -1.8489
  116OSM    C8F12173   3.835   4.443   7.466  0.7095 -0.4458  0.1274
  116OSM    H8F12174   3.744   4.502   7.443 -0.3043 -1.6731  0.8664
  116OSM    H8G12175   3.910   4.522   7.487  0.2009  0.5972 -1.7747
  116OSM    C9F12176   3.808   4.331   7.560  0.1723  0.5335  0.3428
  116OSM    H9F12177   3.743   4.254   7.516  1.0936  0.6718 -1.3405
  116OSM   C10F12178   3.849   4.323   7.689  0.1422  0.5065  0.0474
  116OSM   H10F12179   3.801   4.247   7.752  0.2936  0.1676 -0.2425
  116OSM   C11F12180   3.937   4.423   7.764  0.9844  0.2481  0.1880
  116OSM   H11F12181   3.975   4.506   7.701 -3.5423  1.0698 -1.8872
  116OSM   H11G12182   4.025   4.359   7.788  0.8656 -0.9782 -2.3007
  116OSM   C12F12183   3.869   4.475   7.894  0.4302  0.2457  0.2475
  116OSM   H12F12184   3.855   4.390   7.963  1.8221 -1.8628 -1.9282
  116OSM   H12G12185   3.763   4.507   7.882  0.9050  1.2938 -1.5956
  116OSM   C13F12186   3.945   4.592   7.969 -0.4681 -0.2608 -0.3078
  116OSM   H13F12187   3.961   4.681   7.905  1.4231 -1.0277 -0.9695
  116OSM   H13G12188   4.053   4.571   7.989 -0.1117  1.5497 -0.1722
  116OSM   C14F12189   3.875   4.621   8.104  0.2213 -0.2309  0.0189
  116OSM   H14F12190   3.866   4.523   8.157 -3.8216 -1.6333 -2.6877
  116OSM   H14G12191   3.771   4.660   8.100 -0.5953 -2.3410 -1.1165
  116OSM   C15F12192   3.947   4.737   8.174 -0.7172  0.0353  0.2292
  116OSM   H15F12193   3.945   4.825   8.107  1.9651 -1.3245 -1.8254
  116OSM   H15G12194   4.055   4.710   8.178 -0.3835  1.3919  0.9114
  116OSM   C16F12195   3.886   4.778   8.307 -0.5138  0.2895 -0.7598
  116OSM   H16F12196   3.900   4.692   8.376 -1.1890  0.6163 -0.1965
  116OSM   H16G12197   3.777   4.795   8.291 -0.6993  0.7190  0.8293
  116OSM   C17F12198   3.946   4.906   8.372 -0.4061  0.0479 -0.0190
  116OSM   H17F12199   4.053   4.884   8.395  0.2778  2.6018 -0.4064
  116OSM   H17G12200   3.884   4.940   8.458 -0.9205 -0.9220  0.0032
  116OSM   C18F12201   3.951   5.029   8.280 -0.2923  0.7099 -0.0318
  116OSM   H18F12202   4.031   5.038   8.203 -0.3522  0.6640 -0.0994
  116OSM   H18G12203   3.943   5.122   8.341 -0.4030  1.1343 -0.6812
  116OSM   H18H12204   3.858   5.038   8.221  0.0325  3.2333 -0.2955
  117OSM      N12205   3.941   6.759   6.190  0.7794  0.1121 -0.4554
  117OSM    C1512206   4.075   6.719   6.139 -0.3115 -0.4501 -0.3934
  117OSM   H15A12207   4.143   6.707   6.223 -1.0563  0.7339  0.3959
  117OSM   H15B12208   4.112   6.794   6.071  0.1704 -0.9924 -0.7489
  117OSM   H15C12209   4.071   6.621   6.092 -0.3402 -0.1200 -1.0956
  117OSM    C1412210   3.856   6.786   6.073  0.1424 -0.3044  0.0593
  117OSM   H14A12211   3.838   6.697   6.014  0.0730 -0.1386 -0.1753
  117OSM   H14B12212   3.886   6.866   6.006 -0.1240  0.6840  1.0949
  117OSM   H14C12213   3.761   6.825   6.107  0.8023  1.6703 -0.1800
  117OSM    C1312214   3.874   6.653   6.276 -0.1085  0.3619  0.0825
  117OSM   H13A12215   3.780   6.683   6.321 -0.3735 -0.5154  0.1420
  117OSM   H13B12216   3.935   6.617   6.358 -1.2540 -1.7888  0.0821
  117OSM   H13C12217   3.850   6.571   6.209  0.5285  1.5117 -1.6137
  117OSM    C1212218   3.957   6.887   6.272 -0.6055  1.0450  0.2805
  117OSM   H12A12219   3.867   6.924   6.319  1.1996  3.8510  1.8444
  117OSM   H12B12220   3.979   6.967   6.203  1.4751  0.1447 -0.1841
  117OSM    C1112221   4.058   6.880   6.382 -0.4312  0.2604 -0.1974
  117OSM   H11A12222   4.043   6.778   6.422 -2.1819 -0.3612 -2.2255
  117OSM   H11B12223   4.025   6.949   6.463  0.2415  2.6345 -1.8194
  117OSM      P12224   4.241   7.039   6.283 -0.2386  0.0060 -0.0522
  117OSM    O1312225   4.375   7.022   6.220  0.1257 -0.5311  0.0712
  117OSM    O1412226   4.131   7.097   6.202  0.0396 -0.9645  0.0995
  117OSM    O1112227   4.251   7.111   6.418 -0.2288  0.3470 -0.4866
  117OSM    O1212228   4.200   6.893   6.342  0.4073 -0.1686 -0.4632
  117OSM    C1S12229   4.374   7.180   6.459 -0.0861  0.4283  0.2561
  117OSM    H1S12230   4.376   7.275   6.400 -2.8431  0.8733  0.7427
  117OSM    H1T12231   4.466   7.123   6.433  0.4559  2.2204 -2.0722
  117OSM     NF12232   4.502   7.291   6.644 -0.5214 -0.0314  0.4638
  117OSM    HNF12233   4.583   7.243   6.678 -0.0599 -1.5499 -2.4789
  117OSM    C2S12234   4.380   7.216   6.608  0.4668  0.6154  0.6073
  117OSM    H2S12235   4.291   7.283   6.617 -1.0722 -0.7148 -2.8447
  117OSM    C3S12236   4.362   7.090   6.694  0.0647  0.0905  0.9029
  117OSM    H3S12237   4.450   7.024   6.683 -0.9574 -1.5138  1.8770
  117OSM     O312238   4.254   7.008   6.661 -0.4777 -0.0720  0.3031
  117OSM    HO312239   4.217   7.028   6.574  0.3365  0.7964  0.1463
  117OSM    C4S12240   4.338   7.126   6.840  0.3620  0.0371  0.0850
  117OSM    H4S12241   4.247   7.184   6.861  0.5313  0.2491  0.2518
  117OSM    C5S12242   4.421   7.101   6.947  0.2716 -0.5168  0.4634
  117OSM    H5S12243   4.516   7.047   6.930 -0.1618 -1.1682  0.0858
  117OSM    C6S12244   4.407   7.138   7.088 -0.1321 -0.1163 -0.7819
  117OSM    H6S12245   4.496   7.192   7.128 -2.0115  1.0447  2.1388
  117OSM    H6T12246   4.404   7.037   7.136  0.7571  1.6439  3.4480
  117OSM    C7S12247   4.282   7.208   7.140 -0.6099 -0.3013 -0.8985
  117OSM    H7S12248   4.191   7.149   7.115 -1.0172 -0.8089  1.5400
  117OSM    H7T12249   4.279   7.309   7.092 -0.4120 -0.6593 -1.6825
  117OSM    C8S12250   4.279   7.237   7.296  0.5298 -0.6180  0.4598
  117OSM    H8S12251   4.188   7.296   7.316  0.9733  0.7231 -1.2340
  117OSM    H8T12252   4.365   7.297   7.334 -0.1344  1.0256 -0.5428
  117OSM    C9S12253   4.271   7.119   7.396  0.5753 -0.6315  0.6099
  117OSM    H9S12254   4.353   7.045   7.386  1.1744  0.1046 -0.1153
  117OSM    H9T12255   4.178   7.065   7.371 -0.0598 -0.7866  3.0782
  117OSM   C10S12256   4.237   7.170   7.542 -0.0776 -0.2335  0.4375
  117OSM   H10S12257   4.223   7.089   7.618  0.6555 -0.5660  0.2198
  117OSM   H10T12258   4.136   7.218   7.537  0.1599  0.1165 -2.2531
  117OSM   C11S12259   4.335   7.270   7.606  0.4859  0.1517 -0.3424
  117OSM   H11S12260   4.369   7.353   7.541 -1.9116  0.7714 -0.8987
  117OSM   H11T12261   4.423   7.207   7.631  2.5149  1.6929 -3.1343
  117OSM   C12S12262   4.271   7.331   7.735 -0.2574 -0.2858  0.6801
  117OSM   H12S12263   4.178   7.383   7.705 -0.7117 -2.4151 -2.0964
  117OSM   H12T12264   4.346   7.405   7.771 -2.0697  1.9096  0.1447
  117OSM   C13S12265   4.240   7.233   7.848 -0.2809  0.2539  0.7238
  117OSM   H13S12266   4.325   7.162   7.850 -1.7657 -1.6177  1.2477
  117OSM   H13T12267   4.161   7.162   7.813  0.4594  0.8410 -2.4738
  117OSM   C14S12268   4.190   7.273   7.978 -0.0081 -1.1829 -0.1681
  117OSM   H14S12269   4.265   7.332   8.035 -0.3978 -0.8836  0.0402
  117OSM   H14T12270   4.158   7.183   8.037 -0.9463 -1.4209 -1.0177
  117OSM   C15S12271   4.061   7.355   7.974 -0.1150 -1.2345  0.0906
  117OSM   H15S12272   3.998   7.293   7.906  2.1946  0.2379 -3.7475
  117OSM   H15T12273   4.070   7.452   7.919 -1.9175 -1.0614  0.0316
  117OSM   C16S12274   4.004   7.393   8.113 -0.8099 -0.4375  0.3451
  117OSM   H16S12275   4.071   7.463   8.167 -0.9229  0.9484 -1.2536
  117OSM   H16T12276   3.993   7.296   8.167  0.2248 -0.9239 -0.2808
  117OSM   C17S12277   3.872   7.460   8.110  0.1206  0.4034 -0.0488
  117OSM   H17S12278   3.805   7.386   8.062  0.3626 -2.2049  3.2649
  117OSM   H17T12279   3.884   7.551   8.047  1.2977  0.7429  0.6179
  117OSM   C18S12280   3.807   7.492   8.247  0.4833  0.8440  1.0271
  117OSM   H18S12281   3.887   7.531   8.313  0.9234  0.3951  0.7657
  117OSM   H18T12282   3.757   7.403   8.291 -1.8102  1.6593  0.2170
  117OSM   H18U12283   3.721   7.560   8.230  0.3632  0.3493 -0.5733
  117OSM    C1F12284   4.523   7.415   6.602 -0.2406  0.1733 -0.1653
  117OSM     OF12285   4.450   7.478   6.525  0.3559  0.9213  0.2442
  117OSM    C2F12286   4.639   7.481   6.671 -0.1137  0.3704  0.8144
  117OSM    H2F12287   4.622   7.590   6.656 -1.8579  0.1499  1.0614
  117OSM    H2G12288   4.734   7.456   6.618 -0.3783 -0.2893  0.6494
  117OSM    C3F12289   4.658   7.454   6.824  0.2236 -0.6806  0.0766
  117OSM    H3F12290   4.680   7.345   6.826  1.5926 -0.4174  0.7308
  117OSM    H3G12291   4.560   7.469   6.873 -1.6562 -2.0297 -2.9435
  117OSM    C4F12292   4.773   7.524   6.897  0.7426 -0.4656 -0.0169
  117OSM    H4F12293   4.764   7.635   6.901  2.0225 -0.3494 -0.0538
  117OSM    H4G12294   4.865   7.507   6.837  1.2922  1.2768  0.2672
  117OSM    C5F12295   4.788   7.472   7.039 -0.4216 -0.0901  0.1009
  117OSM    H5F12296   4.887   7.509   7.074 -0.5466  1.9421 -1.4955
  117OSM    H5G12297   4.790   7.361   7.040 -0.0127 -0.0835  0.4571
  117OSM    C6F12298   4.695   7.535   7.145 -0.8213  0.2507  0.6409
  117OSM    H6F12299   4.595   7.487   7.139 -0.7614  0.2545 -0.4310
  117OSM    H6G12300   4.674   7.640   7.118 -1.5463 -0.3344 -1.1739
  117OSM    C7F12301   4.746   7.528   7.287 -0.2840  0.3907 -0.3148
  117OSM    H7F12302   4.669   7.555   7.363 -0.3399 -2.0822  0.5924
  117OSM    H7G12303   4.823   7.607   7.295  0.0289  0.0051  0.6345
  117OSM    C8F12304   4.801   7.395   7.352  0.2074 -0.1082  0.2443
  117OSM    H8F12305   4.855   7.427   7.444 -0.2965  1.8163 -0.0787
  117OSM    H8G12306   4.891   7.355   7.300  0.3784  0.2171  0.2821
  117OSM    C9F12307   4.707   7.281   7.393  0.4879 -0.4815  0.4155
  117OSM    H9F12308   4.649   7.244   7.308  2.0114  0.6545 -1.1884
  117OSM   C10F12309   4.681   7.241   7.518 -0.0263  0.7453 -0.0813
  117OSM   H10F12310   4.602   7.165   7.525  2.0624 -1.5917 -0.8367
  117OSM   C11F12311   4.743   7.289   7.650 -0.2738 -0.2194  0.0623
  117OSM   H11F12312   4.810   7.377   7.649 -0.8358  0.2193  0.2050
  117OSM   H11G12313   4.801   7.203   7.689  0.7432  0.5194  0.2214
  117OSM   C12F12314   4.624   7.330   7.742 -0.3832  0.0238  0.9247
  117OSM   H12F12315   4.565   7.239   7.767  1.4357 -0.8917  2.0683
  117OSM   H12G12316   4.572   7.412   7.688 -0.6924  0.7561  2.2843
  117OSM   C13F12317   4.678   7.382   7.880  0.0508  0.2681  0.4596
  117OSM   H13F12318   4.769   7.441   7.853  0.0590  0.0556  0.0009
  117OSM   H13G12319   4.703   7.298   7.948  1.0010 -1.2305 -1.6042
  117OSM   C14F12320   4.592   7.491   7.954 -0.3596  0.5498  0.2292
  117OSM   H14F12321   4.496   7.437   7.961 -0.4309 -0.0565 -3.4678
  117OSM   H14G12322   4.569   7.582   7.894 -0.8027  0.2511 -0.0520
  117OSM   C15F12323   4.659   7.522   8.086 -0.0642 -1.0818  0.2763
  117OSM   H15F12324   4.678   7.428   8.143  0.6307  0.1845  2.2856
  117OSM   H15G12325   4.581   7.580   8.140  0.5763  0.8535 -0.7656
  117OSM   C16F12326   4.791   7.602   8.088  0.0862 -0.0368  1.1755
  117OSM   H16F12327   4.767   7.706   8.057 -0.3406 -0.1090  1.2552
  117OSM   H16G12328   4.856   7.554   8.012 -0.5515  1.1512 -0.1659
  117OSM   C17F12329   4.868   7.604   8.220  0.2591 -0.4102  0.1235
  117OSM   H17F12330   4.810   7.675   8.283 -2.2297  0.7078 -3.1284
  117OSM   H17G12331   4.851   7.510   8.275 -3.3466  0.2263  0.3598
  117OSM   C18F12332   5.021   7.641   8.201 -1.0650 -0.0216 -0.5848
  117OSM   H18F12333   5.037   7.724   8.130  3.5712 -0.4671 -0.3773
  117OSM   H18G12334   5.066   7.546   8.166  1.7093  0.2150  1.9327
  117OSM   H18H12335   5.068   7.663   8.300 -0.0109 -2.1596 -0.5542
  118OSM      N12336   6.084   0.750   5.968 -0.0813  0.4561 -0.5001
  118OSM    C1512337   6.177   0.833   5.882  0.1168 -0.3219  0.9131
  118OSM   H15A12338   6.274   0.844   5.926  0.7796 -1.7580 -0.0852
  118OSM   H15B12339   6.136   0.929   5.855  3.9240  0.8685 -1.3884
  118OSM   H15C12340   6.202   0.787   5.787  1.2044 -1.0403  1.5287
  118OSM    C1412341   5.953   0.764   5.903 -0.1131 -0.1405 -0.3815
  118OSM   H14A12342   5.916   0.864   5.919 -0.4254 -0.0692 -1.4660
  118OSM   H14B12343   5.889   0.690   5.948 -2.2932  1.1046 -1.2971
  118OSM   H14C12344   5.967   0.750   5.797  1.3074  2.0270 -0.5342
  118OSM    C1312345   6.123   0.610   5.964  0.1014  0.1494 -0.7291
  118OSM   H13A12346   6.125   0.569   5.864  1.1090 -2.2920  0.1990
  118OSM   H13B12347   6.042   0.553   6.009 -1.4604  1.6940 -1.4715
  118OSM   H13C12348   6.211   0.577   6.018  0.1588 -0.2000 -1.0284
  118OSM    C1212349   6.069   0.806   6.113 -0.1997  0.5319 -0.3916
  118OSM   H12A12350   6.167   0.787   6.155 -1.1540 -1.6468  1.0358
  118OSM   H12B12351   5.997   0.748   6.169 -0.0624  0.0627 -0.6999
  118OSM    C1112352   6.037   0.958   6.141  0.1016 -0.4001  0.4541
  118OSM   H11A12353   6.032   0.976   6.251 -0.7261 -3.3597  1.0018
  118OSM   H11B12354   5.937   0.976   6.096  0.5724  0.6713 -0.1904
  118OSM      P12355   6.262   1.097   6.141  0.1416  0.1772  0.2102
  118OSM    O1312356   6.346   0.989   6.195  0.2610 -0.3553  0.0440
  118OSM    O1412357   6.330   1.192   6.046  0.1289 -0.4542  0.6468
  118OSM    O1112358   6.217   1.179   6.264 -0.5684 -0.3487  0.3898
  118OSM    O1212359   6.126   1.049   6.069  0.2087 -0.2157  0.1777
  118OSM    C1S12360   6.171   1.311   6.245  0.4374  0.5933  0.3119
  118OSM    H1S12361   6.096   1.325   6.164 -0.7686 -0.0969  1.2617
  118OSM    H1T12362   6.261   1.367   6.214  1.8473 -2.2241 -0.9955
  118OSM     NF12363   6.085   1.528   6.345  0.2968 -0.0612 -0.1064
  118OSM    HNF12364   6.153   1.600   6.353  0.4317 -0.0697 -1.0555
  118OSM    C2S12365   6.121   1.388   6.374 -0.3283  0.1069 -0.1760
  118OSM    H2S12366   6.026   1.347   6.416 -0.9740  2.4173  0.8207
  118OSM    C3S12367   6.233   1.380   6.484 -0.0948 -0.7277  0.3380
  118OSM    H3S12368   6.322   1.440   6.456  1.4379 -0.3019  5.2603
  118OSM     O312369   6.293   1.258   6.516 -0.3169 -0.0783 -0.1923
  118OSM    HO312370   6.282   1.214   6.432  0.4410  1.9030 -1.4011
  118OSM    C4S12371   6.188   1.458   6.610 -0.1780 -0.2547  0.0646
  118OSM    H4S12372   6.206   1.566   6.602 -2.0017  0.2615  1.8929
  118OSM    C5S12373   6.135   1.399   6.726 -0.2649 -0.3563 -0.0308
  118OSM    H5S12374   6.113   1.292   6.739  2.4014 -0.8125  1.2631
  118OSM    C6S12375   6.108   1.490   6.849 -0.6052  0.6935 -0.7430
  118OSM    H6S12376   6.012   1.456   6.895 -1.3418  2.9734 -0.4897
  118OSM    H6T12377   6.093   1.597   6.825 -0.0210  0.6745 -1.2115
  118OSM    C7S12378   6.226   1.480   6.949  1.0073 -0.0257 -0.1527
  118OSM    H7S12379   6.323   1.517   6.911  0.2019  2.6318  0.1498
  118OSM    H7T12380   6.230   1.373   6.978 -0.9317 -0.1401 -0.1573
  118OSM    C8S12381   6.198   1.560   7.076 -0.5309 -0.3567 -0.0328
  118OSM    H8S12382   6.101   1.530   7.121  0.3671 -1.8496  0.9955
  118OSM    H8T12383   6.182   1.665   7.044  2.2719  0.2961  0.5053
  118OSM    C9S12384   6.317   1.564   7.170 -0.5071  0.6220 -0.0464
  118OSM    H9S12385   6.408   1.607   7.124  0.3312 -0.5241  0.4949
  118OSM    H9T12386   6.346   1.457   7.170  1.2103  1.0680  0.2366
  118OSM   C10S12387   6.277   1.641   7.300 -0.5909 -1.1456  0.2296
  118OSM   H10S12388   6.214   1.576   7.364 -0.9038 -0.5921  0.4807
  118OSM   H10T12389   6.224   1.732   7.266  0.4150 -0.7345 -0.2884
  118OSM   C11S12390   6.400   1.674   7.381 -0.2002 -0.3156 -0.7646
  118OSM   H11S12391   6.479   1.697   7.308  0.4693  0.1875  0.0977
  118OSM   H11T12392   6.427   1.586   7.443  0.5433  1.6579  1.9295
  118OSM   C12S12393   6.380   1.789   7.478 -0.1575 -0.2675  0.1985
  118OSM   H12S12394   6.458   1.783   7.557 -0.7314 -1.5704  0.6950
  118OSM   H12T12395   6.295   1.761   7.544 -0.3681 -0.7852 -0.2825
  118OSM   C13S12396   6.369   1.924   7.414 -0.9471  0.4177  0.5445
  118OSM   H13S12397   6.277   1.943   7.354 -0.0313  0.4878 -0.9003
  118OSM   H13T12398   6.455   1.945   7.346 -1.1345 -1.4074 -0.3252
  118OSM   C14S12399   6.359   2.045   7.515 -0.6703 -1.2522  0.2787
  118OSM   H14S12400   6.275   2.019   7.583 -1.5894  0.4879 -0.1296
  118OSM   H14T12401   6.326   2.133   7.456 -1.2131  0.0871  2.4403
  118OSM   C15S12402   6.491   2.080   7.591 -0.2273  0.2987  0.0473
  118OSM   H15S12403   6.521   2.185   7.567 -2.0119  1.0663  0.9409
  118OSM   H15T12404   6.565   2.012   7.544 -0.1898 -0.5200  1.2506
  118OSM   C16S12405   6.489   2.070   7.746  0.8211  0.6047  0.1719
  118OSM   H16S12406   6.440   1.976   7.780 -0.4744  0.5489 -1.6855
  118OSM   H16T12407   6.423   2.155   7.771 -0.5119 -0.1903 -0.5280
  118OSM   C17S12408   6.620   2.081   7.809 -0.0180 -0.4204  0.1062
  118OSM   H17S12409   6.657   2.174   7.761 -1.0508  0.0373  0.1810
  118OSM   H17T12410   6.676   1.991   7.774  2.0561  1.0672 -0.6523
  118OSM   C18S12411   6.625   2.091   7.962  0.4057  0.0346  0.2537
  118OSM   H18S12412   6.587   2.005   8.020 -2.2982  0.8370 -0.2143
  118OSM   H18T12413   6.577   2.180   8.007  0.3609  0.3034 -0.3142
  118OSM   H18U12414   6.732   2.096   7.994  0.9557 -0.2466 -1.4181
  118OSM    C1F12415   5.967   1.552   6.295 -0.5650  0.2091 -0.4210
  118OSM     OF12416   5.894   1.458   6.260 -0.0992  0.1082 -0.0633
  118OSM    C2F12417   5.936   1.696   6.273  0.6754 -1.1749 -0.6449
  118OSM    H2F12418   5.909   1.713   6.167  0.3037  3.6961  0.0239
  118OSM    H2G12419   6.013   1.769   6.305  1.2395 -1.9610 -0.1751
  118OSM    C3F12420   5.800   1.737   6.333 -0.4338  0.1011 -0.0776
  118OSM    H3F12421   5.719   1.679   6.284  0.0375 -0.8776  0.2663
  118OSM    H3G12422   5.793   1.846   6.316  1.4564  0.5179  1.4157
  118OSM    C4F12423   5.796   1.713   6.482 -0.0591  0.4556  0.2336
  118OSM    H4F12424   5.809   1.605   6.503  2.3553  0.6416  0.0138
  118OSM    H4G12425   5.693   1.732   6.518 -0.1875  2.7835 -1.1435
  118OSM    C5F12426   5.882   1.793   6.580  0.2715  0.4023  0.1486
  118OSM    H5F12427   5.889   1.900   6.551  1.8347  0.3956  0.3764
  118OSM    H5G12428   5.989   1.764   6.567 -0.1458 -0.7432 -0.9269
  118OSM    C6F12429   5.850   1.763   6.723  0.2363 -0.4161 -0.3180
  118OSM    H6F12430   5.861   1.654   6.745 -1.4900 -0.7162 -0.7883
  118OSM    H6G12431   5.743   1.787   6.740  0.4876 -0.8670  2.3102
  118OSM    C7F12432   5.941   1.840   6.815 -0.2326 -0.3155 -0.3150
  118OSM    H7F12433   5.940   1.952   6.813 -0.8986 -0.3275 -0.7590
  118OSM    H7G12434   6.040   1.803   6.783 -0.5160 -0.2363 -1.2932
  118OSM    C8F12435   5.918   1.790   6.959  0.3270  0.0741 -0.4714
  118OSM    H8F12436   5.993   1.850   7.015 -0.8077  3.4187 -2.2533
  118OSM    H8G12437   5.948   1.683   6.953  1.6610  0.3594  0.6324
  118OSM    C9F12438   5.779   1.812   7.016  0.2831 -0.6079 -0.0000
  118OSM    H9F12439   5.742   1.913   6.994 -0.9595 -0.9480  0.4245
  118OSM   C10F12440   5.703   1.731   7.081 -0.1270  0.8476  0.6764
  118OSM   H10F12441   5.605   1.770   7.111 -1.2166 -0.8487 -0.5114
  118OSM   C11F12442   5.733   1.587   7.119 -0.1983  0.0302  0.2001
  118OSM   H11F12443   5.815   1.543   7.059 -0.0984  2.8231 -1.8961
  118OSM   H11G12444   5.642   1.532   7.088  0.0080  0.9477 -2.2196
  118OSM   C12F12445   5.746   1.561   7.265 -0.4910 -0.2018  0.0187
  118OSM   H12F12446   5.833   1.615   7.307  0.2229 -1.2269 -0.1120
  118OSM   H12G12447   5.774   1.455   7.283  0.5492 -0.4476 -2.6231
  118OSM   C13F12448   5.610   1.587   7.335  0.6623 -0.1757 -0.2218
  118OSM   H13F12449   5.537   1.563   7.255  1.7226  0.5024 -1.4459
  118OSM   H13G12450   5.589   1.696   7.344 -1.7265 -0.2419 -3.4546
  118OSM   C14F12451   5.586   1.511   7.470 -0.5301 -1.4739  0.5469
  118OSM   H14F12452   5.605   1.403   7.449  0.6483 -0.8708 -1.8936
  118OSM   H14G12453   5.482   1.529   7.504 -0.8278  0.5877 -1.2307
  118OSM   C15F12454   5.690   1.561   7.573  0.3767  0.1090  0.1399
  118OSM   H15F12455   5.682   1.671   7.586  1.7980  0.2691 -0.1344
  118OSM   H15G12456   5.792   1.543   7.531  1.7676  1.8625  2.5194
  118OSM   C16F12457   5.677   1.501   7.715 -0.0467  0.3199 -0.0914
  118OSM   H16F12458   5.693   1.391   7.712 -0.5363  0.2596 -0.6499
  118OSM   H16G12459   5.574   1.519   7.754 -1.9236 -2.5576 -3.1580
  118OSM   C17F12460   5.771   1.573   7.817  0.4880 -0.4091  0.6845
  118OSM   H17F12461   5.712   1.665   7.836 -1.9976 -0.9569 -3.1962
  118OSM   H17G12462   5.867   1.609   7.774 -0.5224  1.8954  0.2040
  118OSM   C18F12463   5.790   1.484   7.944  0.4519  0.1869 -0.7814
  118OSM   H18F12464   5.691   1.463   7.989  0.0135  3.3054 -0.0488
  118OSM   H18G12465   5.843   1.549   8.016 -1.7515  0.0999  1.0149
  118OSM   H18H12466   5.855   1.395   7.928 -0.1681 -0.3930 -0.1461
  119OSM      N12467   6.522   2.500   5.564 -0.7451  0.6034 -0.1624
  119OSM    C1512468   6.478   2.515   5.423  0.2342  0.6112 -0.3067
  119OSM   H15A12469   6.376   2.551   5.414 -2.1274 -5.1768 -1.3585
  119OSM   H15B12470   6.481   2.414   5.385 -0.5787 -0.3333  1.9384
  119OSM   H15C12471   6.546   2.575   5.366  0.7403  0.1594 -0.1860
  119OSM    C1412472   6.655   2.433   5.557  0.7934  0.4696 -0.0591
  119OSM   H14A12473   6.685   2.415   5.659 -1.6721  0.6297  0.7635
  119OSM   H14B12474   6.736   2.480   5.502  0.6670  1.9023  0.9417
  119OSM   H14C12475   6.648   2.337   5.507 -0.3846  1.4222 -1.8448
  119OSM    C1312476   6.536   2.638   5.614 -0.4827 -1.2135  0.0329
  119OSM   H13A12477   6.441   2.682   5.641  1.0929  2.2091  0.5664
  119OSM   H13B12478   6.584   2.694   5.535 -0.8049  0.6372  1.1060
  119OSM   H13C12479   6.598   2.641   5.703  0.1175 -2.4778 -0.3109
  119OSM    C1212480   6.423   2.423   5.641  0.2568  0.1304 -0.0355
  119OSM   H12A12481   6.417   2.322   5.603 -2.5148 -0.2488  1.1443
  119OSM   H12B12482   6.324   2.465   5.640  0.7838  1.4268 -0.7169
  119OSM    C1112483   6.455   2.426   5.790  0.0711 -0.6164 -0.5484
  119OSM   H11A12484   6.367   2.384   5.844 -0.1435 -0.0443 -0.4476
  119OSM   H11B12485   6.460   2.529   5.832 -3.2320 -0.1700 -0.9722
  119OSM      P12486   6.609   2.201   5.803 -0.0171  0.1794  0.2087
  119OSM    O1312487   6.512   2.118   5.729  0.0033 -0.2395  0.5850
  119OSM    O1412488   6.748   2.199   5.744 -0.0674  0.8536 -0.2628
  119OSM    O1112489   6.611   2.133   5.948  0.0341 -0.3733 -0.3565
  119OSM    O1212490   6.574   2.356   5.826 -0.0521 -0.1085 -0.4647
  119OSM    C1S12491   6.515   2.189   6.033 -0.1287  0.3082 -0.1739
  119OSM    H1S12492   6.411   2.167   6.002 -0.3224  0.2358  0.4984
  119OSM    H1T12493   6.533   2.299   6.040  1.9069  0.1004 -1.2606
  119OSM     NF12494   6.415   2.195   6.265 -0.2070  0.3120  0.3253
  119OSM    HNF12495   6.423   2.273   6.326 -1.0795 -0.5507  1.5864
  119OSM    C2S12496   6.532   2.153   6.188  0.0301  0.1027 -0.7325
  119OSM    H2S12497   6.543   2.042   6.194  1.2776  0.0964 -2.2767
  119OSM    C3S12498   6.666   2.209   6.235 -0.1727  0.1695  0.0510
  119OSM    H3S12499   6.666   2.320   6.230  3.2756  0.3103  0.3535
  119OSM     O312500   6.780   2.169   6.159 -0.1609 -0.2833 -0.2075
  119OSM    HO312501   6.745   2.150   6.072  0.2859  1.4791 -0.7967
  119OSM    C4S12502   6.691   2.170   6.373  0.6894  0.1356 -0.0864
  119OSM    H4S12503   6.709   2.062   6.384  1.4104  0.0802 -1.5337
  119OSM    C5S12504   6.695   2.239   6.487  0.0787 -0.5262 -0.1181
  119OSM    H5S12505   6.664   2.344   6.489  1.6262  0.0898 -2.8763
  119OSM    C6S12506   6.737   2.179   6.619  0.3882  0.6673  0.2767
  119OSM    H6S12507   6.710   2.072   6.608  2.6800  0.1310 -0.6093
  119OSM    H6T12508   6.666   2.218   6.695 -0.0836  0.9990 -0.3245
  119OSM    C7S12509   6.882   2.192   6.668  0.0668 -0.5188 -0.1898
  119OSM    H7S12510   6.914   2.296   6.647 -0.0173 -0.8103 -1.9169
  119OSM    H7T12511   6.943   2.122   6.608 -0.8861 -0.8873 -0.7478
  119OSM    C8S12512   6.884   2.173   6.825  0.6922  0.0468  0.8439
  119OSM    H8S12513   6.841   2.072   6.839 -0.2793  0.6971  3.0442
  119OSM    H8T12514   6.816   2.247   6.873  0.0172 -0.1763  0.2388
  119OSM    C9S12515   7.022   2.189   6.886  0.1541 -0.8283  0.4257
  119OSM    H9S12516   7.079   2.264   6.827  0.2041 -1.2412 -0.0598
  119OSM    H9T12517   7.072   2.092   6.866  0.5380 -0.4920 -0.2485
  119OSM   C10S12518   7.016   2.226   7.037 -0.5722 -0.4651  0.4833
  119OSM   H10S12519   6.956   2.159   7.101 -1.5396  2.2688  2.6411
  119OSM   H10T12520   6.958   2.320   7.043  0.0703  0.0931 -1.3382
  119OSM   C11S12521   7.157   2.240   7.103 -0.0519  0.2548 -0.5062
  119OSM   H11S12522   7.218   2.299   7.032  1.6796  2.3513  2.4926
  119OSM   H11T12523   7.214   2.146   7.112 -0.5220  0.0393  0.4004
  119OSM   C12S12524   7.149   2.315   7.237 -0.0813 -0.0227  0.6968
  119OSM   H12S12525   7.096   2.412   7.224 -1.3625 -0.5099  2.0918
  119OSM   H12T12526   7.253   2.337   7.269  0.4765 -2.9653  1.2398
  119OSM   C13S12527   7.073   2.242   7.346 -0.1838  0.3360 -0.1977
  119OSM   H13S12528   7.110   2.137   7.345  0.6268  0.6227 -1.1962
  119OSM   H13T12529   6.962   2.248   7.347 -0.1017  2.7403 -0.3223
  119OSM   C14S12530   7.119   2.302   7.483 -0.0471  0.1833 -0.0034
  119OSM   H14S12531   7.112   2.412   7.488  0.8767  0.2867 -0.6573
  119OSM   H14T12532   7.230   2.295   7.476 -0.1792 -0.6422 -2.4136
  119OSM   C15S12533   7.064   2.233   7.600  1.1350  0.2015 -0.9753
  119OSM   H15S12534   7.086   2.125   7.604 -1.3071 -0.3168  0.2507
  119OSM   H15T12535   6.954   2.242   7.614  1.2431 -0.1735  0.1797
  119OSM   C16S12536   7.129   2.287   7.728  0.4927  0.7607 -0.1258
  119OSM   H16S12537   7.125   2.397   7.735 -1.7908  0.7529 -0.3105
  119OSM   H16T12538   7.236   2.258   7.729 -0.4008 -3.3126  2.0924
  119OSM   C17S12539   7.078   2.218   7.853  0.0882 -0.0186 -0.4247
  119OSM   H17S12540   7.104   2.110   7.851  1.9284  0.3677  0.0186
  119OSM   H17T12541   6.967   2.217   7.859  0.1279 -1.4356  0.6784
  119OSM   C18S12542   7.125   2.291   7.987 -0.5369  0.0738 -0.3679
  119OSM   H18S12543   7.090   2.226   8.071  0.1546  1.1279  0.7679
  119OSM   H18T12544   7.074   2.389   7.994  0.2945  0.4887  0.0044
  119OSM   H18U12545   7.236   2.294   7.979 -0.4222 -1.5108  0.2344
  119OSM    C1F12546   6.302   2.134   6.256  0.1270  0.1147 -0.3476
  119OSM     OF12547   6.278   2.046   6.170 -0.4790  0.0581 -0.3706
  119OSM    C2F12548   6.184   2.177   6.345 -0.4156  0.2279  0.3201
  119OSM    H2F12549   6.103   2.213   6.279  0.2774  1.8987  0.3362
  119OSM    H2G12550   6.229   2.252   6.414  1.9456 -0.6969 -0.1361
  119OSM    C3F12551   6.126   2.062   6.427 -1.3844  0.1677 -0.0594
  119OSM    H3F12552   6.068   1.992   6.363 -0.9693 -0.4462  0.2255
  119OSM    H3G12553   6.044   2.110   6.485 -0.0140  0.8374  1.3934
  119OSM    C4F12554   6.211   1.991   6.539 -0.5291  0.4798 -0.2147
  119OSM    H4F12555   6.304   1.959   6.487 -2.7110 -2.1986 -2.8388
  119OSM    H4G12556   6.154   1.903   6.573  0.4616 -0.5461 -1.1236
  119OSM    C5F12557   6.242   2.077   6.670 -0.3940 -0.6834 -0.1254
  119OSM    H5F12558   6.147   2.120   6.708  0.6675  3.5970 -1.7780
  119OSM    H5G12559   6.308   2.156   6.629 -0.2567 -1.5320 -1.6191
  119OSM    C6F12560   6.328   1.989   6.763 -0.2029  0.1496 -0.2670
  119OSM    H6F12561   6.402   1.926   6.710 -0.8518 -1.2902  0.4700
  119OSM    H6G12562   6.265   1.921   6.824 -0.2535 -2.5772 -3.1277
  119OSM    C7F12563   6.404   2.077   6.868 -0.2796 -0.3849  0.5291
  119OSM    H7F12564   6.335   2.160   6.895  1.8080  1.6664 -0.2126
  119OSM    H7G12565   6.486   2.127   6.813 -1.4905  0.1343 -0.8699
  119OSM    C8F12566   6.451   2.003   6.993 -0.0525 -0.9222  0.5230
  119OSM    H8F12567   6.485   1.902   6.962  0.7954 -1.1323  2.0453
  119OSM    H8G12568   6.361   1.982   7.055  0.2505 -2.2122  0.5516
  119OSM    C9F12569   6.565   2.081   7.058 -0.6979  0.3567  0.2007
  119OSM    H9F12570   6.557   2.191   7.053 -1.6310  0.3287  0.9028
  119OSM   C10F12571   6.670   2.032   7.126 -0.3631  0.0278 -0.2316
  119OSM   H10F12572   6.748   2.100   7.165  0.5184 -1.4823  0.7429
  119OSM   C11F12573   6.701   1.882   7.139  0.0774  0.2019 -0.0576
  119OSM   H11F12574   6.746   1.843   7.045  0.5973  1.3209 -0.2891
  119OSM   H11G12575   6.615   1.824   7.178  0.4336 -1.1251 -1.1985
  119OSM   C12F12576   6.824   1.857   7.233 -0.2986 -0.6339  0.1863
  119OSM   H12F12577   6.909   1.915   7.193 -1.6155  0.2895 -1.4116
  119OSM   H12G12578   6.844   1.752   7.204 -1.4544 -0.4659 -1.3518
  119OSM   C13F12579   6.804   1.871   7.384 -0.4816  0.4862  0.3850
  119OSM   H13F12580   6.722   1.798   7.404 -0.6928  0.2808 -1.1265
  119OSM   H13G12581   6.778   1.978   7.399  1.8353  0.9822  1.2210
  119OSM   C14F12582   6.921   1.845   7.469 -0.4211 -0.4374  0.4387
  119OSM   H14F12583   7.009   1.907   7.439 -0.5156  0.4714  1.9406
  119OSM   H14G12584   6.948   1.740   7.444  0.3442  0.1769 -1.5881
  119OSM   C15F12585   6.894   1.880   7.617  0.4478  0.0495 -0.3559
  119OSM   H15F12586   6.802   1.831   7.655  1.7007 -2.6222 -0.5409
  119OSM   H15G12587   6.882   1.990   7.620  1.5954  0.1789  0.6043
  119OSM   C16F12588   7.007   1.827   7.710 -0.1648 -0.1115  1.1845
  119OSM   H16F12589   7.096   1.892   7.694  0.2665 -0.8040  0.7511
  119OSM   H16G12590   7.029   1.724   7.677 -0.9923  0.4222 -1.1912
  119OSM   C17F12591   6.957   1.831   7.853 -0.2881  0.2733 -1.0801
  119OSM   H17F12592   6.878   1.754   7.859  0.2199 -0.1797  0.1381
  119OSM   H17G12593   6.909   1.929   7.873  1.0351  0.5015  1.5122
  119OSM   C18F12594   7.071   1.798   7.950 -0.3875 -0.0901  0.1939
  119OSM   H18F12595   7.046   1.810   8.058 -0.5384  3.2495 -0.0975
  119OSM   H18G12596   7.165   1.855   7.931  0.5258 -1.5922  0.0670
  119OSM   H18H12597   7.105   1.693   7.938 -1.1259 -0.4348  0.9787
  120OSM      N12598   4.004   5.580   6.229 -0.2804  0.7791  0.0405
  120OSM    C1512599   4.083   5.486   6.144  0.0378  0.0228 -0.1896
  120OSM   H15A12600   4.044   5.483   6.043  0.6571  1.2405 -0.4803
  120OSM   H15B12601   4.064   5.388   6.184 -3.1819  0.9048  0.6904
  120OSM   H15C12602   4.187   5.516   6.137  0.6794 -1.2514  2.5181
  120OSM    C1412603   4.079   5.588   6.360  0.1631 -0.2762  0.6643
  120OSM   H14A12604   4.077   5.494   6.414  0.5374  0.3674  1.8469
  120OSM   H14B12605   4.030   5.656   6.428  0.8959 -1.3805  2.3806
  120OSM   H14C12606   4.183   5.618   6.361 -0.5052  2.3188 -0.5929
  120OSM    C1312607   4.006   5.714   6.168  0.1694 -0.6872  0.5278
  120OSM   H13A12608   3.957   5.715   6.072  0.1620  1.0544  0.5175
  120OSM   H13B12609   4.106   5.753   6.155 -0.1240 -0.1248 -0.0913
  120OSM   H13C12610   3.940   5.782   6.220  0.4222  0.2960 -0.3983
  120OSM    C1212611   3.867   5.518   6.257  0.2165 -0.0240  0.4224
  120OSM   H12A12612   3.818   5.506   6.161  1.0290  2.9012 -0.4477
  120OSM   H12B12613   3.812   5.591   6.316  0.4473 -1.8040  3.0092
  120OSM    C1112614   3.861   5.389   6.332 -0.6158 -0.2072 -0.0801
  120OSM   H11A12615   3.754   5.371   6.358 -0.5977  0.5982  0.6203
  120OSM   H11B12616   3.900   5.408   6.435  0.6783 -1.1635 -0.3799
  120OSM      P12617   3.884   5.128   6.274  0.1434  0.0255 -0.0066
  120OSM    O1312618   3.764   5.095   6.190 -0.1799 -0.4156  0.3468
  120OSM    O1412619   4.017   5.061   6.237  0.3084 -0.3738 -0.4710
  120OSM    O1112620   3.850   5.099   6.425  0.0743  0.1811  0.2624
  120OSM    O1212621   3.926   5.285   6.263  0.0181 -0.0621 -0.6901
  120OSM    C1S12622   3.965   5.073   6.501 -0.4380  0.7537  0.2996
  120OSM    H1S12623   4.027   5.165   6.505  0.3335  0.2920 -0.6223
  120OSM    H1T12624   4.030   4.993   6.461 -1.3937 -0.0934  0.4002
  120OSM     NF12625   4.042   5.006   6.733  0.2865  0.1726 -0.4081
  120OSM    HNF12626   4.073   4.912   6.742  0.4990  0.2621 -0.1868
  120OSM    C2S12627   3.925   5.021   6.646  0.6484 -0.1884  0.8155
  120OSM    H2S12628   3.855   5.092   6.696 -0.4850 -1.5280  1.1791
  120OSM    C3S12629   3.836   4.899   6.638 -0.1907  0.7194 -0.2616
  120OSM    H3S12630   3.890   4.816   6.588 -0.9404 -0.1851  0.4152
  120OSM     O312631   3.717   4.920   6.560 -0.3006 -0.2077  0.0307
  120OSM    HO312632   3.750   5.002   6.523  0.3978 -0.4643  0.0705
  120OSM    C4S12633   3.781   4.873   6.770 -0.0391 -0.4384  0.0815
  120OSM    H4S12634   3.722   4.958   6.808 -0.4795 -0.5329 -0.3869
  120OSM    C5S12635   3.804   4.765   6.844  0.3371  0.0276 -0.0596
  120OSM    H5S12636   3.878   4.692   6.807  0.9565 -1.1231  3.1066
  120OSM    C6S12637   3.758   4.737   6.987  0.0580  0.3256  0.4704
  120OSM    H6S12638   3.850   4.749   7.048  2.1670  2.1358 -2.8081
  120OSM    H6T12639   3.729   4.630   6.999  2.3034 -0.1464  2.8500
  120OSM    C7S12640   3.645   4.836   7.038 -0.0034 -0.3811 -0.2848
  120OSM    H7S12641   3.561   4.816   6.969 -1.0187  0.2422  0.7232
  120OSM    H7T12642   3.672   4.944   7.039 -3.2255  0.5415 -1.1188
  120OSM    C8S12643   3.584   4.792   7.180 -0.6763 -0.1263  0.0452
  120OSM    H8S12644   3.548   4.689   7.195  0.1560 -0.2066  1.7409
  120OSM    H8T12645   3.499   4.858   7.208  2.2048  3.3153  1.6633
  120OSM    C9S12646   3.686   4.816   7.295  0.1943  0.0809 -0.0267
  120OSM    H9S12647   3.697   4.925   7.314 -2.3973  0.4642 -0.3876
  120OSM    H9T12648   3.779   4.758   7.277 -0.0123 -0.1083 -0.5145
  120OSM   C10S12649   3.622   4.772   7.432 -0.3244 -0.0802  0.1433
  120OSM   H10S12650   3.598   4.664   7.418 -0.1324 -0.0321 -0.6061
  120OSM   H10T12651   3.529   4.832   7.443  0.7198  1.9435 -1.2978
  120OSM   C11S12652   3.701   4.792   7.556 -0.2508  0.9360  0.0819
  120OSM   H11S12653   3.708   4.901   7.576  0.1199  0.5463  2.3580
  120OSM   H11T12654   3.803   4.758   7.528 -1.4763 -1.4715 -1.8331
  120OSM   C12S12655   3.626   4.726   7.669 -0.3018 -0.3131  0.5008
  120OSM   H12S12656   3.639   4.616   7.672  2.1069 -0.0833  3.2108
  120OSM   H12T12657   3.521   4.756   7.650 -0.8305 -1.2156  1.8343
  120OSM   C13S12658   3.649   4.780   7.807 -0.0176 -0.1807 -1.1797
  120OSM   H13S12659   3.756   4.762   7.832  0.3051 -0.6175 -2.7210
  120OSM   H13T12660   3.581   4.722   7.874 -1.4518  1.0181 -1.5547
  120OSM   C14S12661   3.603   4.921   7.832 -0.1627 -0.0460  0.5595
  120OSM   H14S12662   3.499   4.942   7.802  0.5530  0.2045 -1.9398
  120OSM   H14T12663   3.673   4.982   7.771 -0.0319  2.2970  2.8813
  120OSM   C15S12664   3.628   4.986   7.969  0.2029  0.0454  0.2551
  120OSM   H15S12665   3.616   5.091   7.933 -2.1341 -0.2548  0.0189
  120OSM   H15T12666   3.730   4.968   8.011  0.8501  0.7651 -0.9496
  120OSM   C16S12667   3.512   4.980   8.078 -0.2198  0.4704  0.2019
  120OSM   H16S12668   3.491   4.872   8.091 -0.1747  0.5665  1.1073
  120OSM   H16T12669   3.430   5.027   8.019  0.0906 -0.6167 -1.1757
  120OSM   C17S12670   3.551   5.036   8.219 -0.1250 -0.0872 -0.6745
  120OSM   H17S12671   3.562   5.144   8.192  0.4730 -1.0945 -5.2677
  120OSM   H17T12672   3.645   4.987   8.250 -1.1926 -1.9966 -0.3292
  120OSM   C18S12673   3.441   5.012   8.332  0.2210 -0.1161  0.0519
  120OSM   H18S12674   3.357   5.081   8.308  1.2808  0.4698 -2.2272
  120OSM   H18T12675   3.474   5.032   8.437 -0.1245  1.8606 -0.1795
  120OSM   H18U12676   3.398   4.909   8.330 -0.7511  0.2882 -0.7515
  120OSM    C1F12677   4.099   5.108   6.794  0.9460 -0.7574 -0.0118
  120OSM     OF12678   4.087   5.226   6.754 -0.4925 -0.6542 -0.4520
  120OSM    C2F12679   4.165   5.064   6.918 -0.3884  0.0494 -0.1963
  120OSM    H2F12680   4.100   5.094   7.003 -0.5199 -1.8936  0.4494
  120OSM    H2G12681   4.262   5.117   6.929 -1.1332  1.4468 -0.1789
  120OSM    C3F12682   4.198   4.909   6.927 -0.0321 -0.2721  0.6682
  120OSM    H3F12683   4.274   4.886   6.849  2.0500  1.8566  1.9196
  120OSM    H3G12684   4.116   4.835   6.920  0.7782 -1.0343 -3.5846
  120OSM    C4F12685   4.259   4.872   7.060 -0.3861  0.0975 -0.1799
  120OSM    H4F12686   4.349   4.932   7.087 -0.8691  1.0124 -0.5564
  120OSM    H4G12687   4.297   4.769   7.044  2.2402  1.1452 -1.2709
  120OSM    C5F12688   4.162   4.863   7.175  0.4568  0.2153 -0.2639
  120OSM    H5F12689   4.067   4.816   7.143 -0.3467  2.3602 -1.1892
  120OSM    H5G12690   4.128   4.966   7.198  0.4993  0.6262 -1.9703
  120OSM    C6F12691   4.220   4.805   7.299 -0.4097  0.3335 -0.7061
  120OSM    H6F12692   4.326   4.832   7.318 -0.5372  0.9544 -0.8577
  120OSM    H6G12693   4.223   4.694   7.290  1.3639  0.1218  1.5312
  120OSM    C7F12694   4.133   4.839   7.421  0.0445 -0.3996 -0.2858
  120OSM    H7F12695   4.035   4.806   7.381 -0.2403  0.2876 -0.1681
  120OSM    H7G12696   4.139   4.946   7.448  1.6588 -0.3746 -0.6554
  120OSM    C8F12697   4.164   4.763   7.546 -0.1880 -0.6958 -0.4082
  120OSM    H8F12698   4.267   4.790   7.575 -0.9509  1.3735  0.5221
  120OSM    H8G12699   4.160   4.653   7.526 -0.3980 -0.6108 -0.8407
  120OSM    C9F12700   4.070   4.798   7.663 -0.5622 -0.3697 -0.3294
  120OSM    H9F12701   3.980   4.735   7.673  0.5746 -2.3820 -1.8478
  120OSM   C10F12702   4.097   4.884   7.759 -0.1461  0.2802 -0.3456
  120OSM   H10F12703   4.028   4.901   7.843 -1.4589 -0.3172 -1.2807
  120OSM   C11F12704   4.222   4.967   7.773 -0.4791  0.8627  0.3937
  120OSM   H11F12705   4.209   5.059   7.713  3.1193  1.6919  0.6827
  120OSM   H11G12706   4.317   4.920   7.740  0.7106  0.9203  3.3920
  120OSM   C12F12707   4.246   5.007   7.926 -0.2578 -0.3444 -0.3195
  120OSM   H12F12708   4.156   5.058   7.967  0.7650 -1.6692  4.0885
  120OSM   H12G12709   4.333   5.076   7.930 -0.3778 -0.0488 -2.1775
  120OSM   C13F12710   4.274   4.889   8.018  0.3878  0.1851 -0.2486
  120OSM   H13F12711   4.367   4.836   7.989 -0.0834 -1.8730  1.7535
  120OSM   H13G12712   4.189   4.817   8.009  0.7503 -0.1087 -1.5453
  120OSM   C14F12713   4.314   4.940   8.159 -0.3058  0.4518 -0.3926
  120OSM   H14F12714   4.229   5.006   8.187 -1.9387 -1.5454 -0.3730
  120OSM   H14G12715   4.408   4.998   8.171 -0.0849  0.0028  0.1266
  120OSM   C15F12716   4.327   4.822   8.268  0.4449 -0.0751  0.6698
  120OSM   H15F12717   4.246   4.750   8.245 -0.2645  1.5380 -2.4287
  120OSM   H15G12718   4.296   4.868   8.365 -0.9494  0.5169 -0.0300
  120OSM   C16F12719   4.465   4.765   8.257 -1.6848  0.2696  0.5389
  120OSM   H16F12720   4.542   4.844   8.268 -1.1144 -0.1624 -0.2709
  120OSM   H16G12721   4.474   4.727   8.153  2.4350  0.9782  0.4893
  120OSM   C17F12722   4.503   4.651   8.360  0.3823 -0.0324  0.4244
  120OSM   H17F12723   4.440   4.564   8.332 -2.7540  1.8185  1.1883
  120OSM   H17G12724   4.473   4.673   8.465  0.7392  0.0467  0.5133
  120OSM   C18F12725   4.655   4.628   8.352 -0.3461  0.2426 -0.1209
  120OSM   H18F12726   4.686   4.535   8.405 -2.1062 -1.6777 -2.2455
  120OSM   H18G12727   4.710   4.712   8.399 -1.0176  0.2803  0.6202
  120OSM   H18H12728   4.684   4.615   8.245 -0.8955  2.2034 -0.5385
  121OSM      N12729   0.651   6.759   6.165  0.1108  0.4499 -0.2594
  121OSM    C1512730   0.749   6.686   6.084 -0.5640  0.7166 -0.1204
  121OSM   H15A12731   0.845   6.672   6.130 -0.8895  0.4027  0.4870
  121OSM   H15B12732   0.759   6.721   5.983 -1.5901 -0.7889 -0.7797
  121OSM   H15C12733   0.714   6.588   6.054  1.1384  0.7532 -2.5019
  121OSM    C1412734   0.526   6.779   6.085 -0.1425  0.2872  0.2728
  121OSM   H14A12735   0.539   6.840   5.997 -0.5665 -2.5800 -1.9361
  121OSM   H14B12736   0.442   6.811   6.145 -0.3353  1.2477 -0.4715
  121OSM   H14C12737   0.497   6.683   6.045 -0.9858  0.0550  1.4031
  121OSM    C1312738   0.617   6.673   6.282  0.2257  0.3356  0.6438
  121OSM   H13A12739   0.532   6.610   6.262  0.0851  1.2291 -1.9399
  121OSM   H13B12740   0.568   6.730   6.360  0.2413  0.3068  0.6751
  121OSM   H13C12741   0.704   6.622   6.323 -1.5639 -1.0970  2.9546
  121OSM    C1212742   0.717   6.891   6.210  0.0860 -0.1788  0.5811
  121OSM   H12A12743   0.814   6.882   6.256 -1.1016 -0.7046  3.1287
  121OSM   H12B12744   0.655   6.941   6.282 -1.3807 -2.2095  0.8414
  121OSM    C1112745   0.732   6.996   6.096  0.4529  0.4444  0.2896
  121OSM   H11A12746   0.764   6.949   6.001  1.8650  1.0588  0.4220
  121OSM   H11B12747   0.814   7.068   6.121 -0.1780  0.7437  1.6208
  121OSM      P12748   0.570   7.196   6.154 -0.2412 -0.4309  0.1610
  121OSM    O1312749   0.667   7.298   6.114  0.9367 -0.4150  0.0518
  121OSM    O1412750   0.429   7.221   6.128  0.5221 -0.5626 -0.4356
  121OSM    O1112751   0.612   7.141   6.303  0.1033  0.0096 -0.2037
  121OSM    O1212752   0.611   7.069   6.065  0.0087 -0.0086 -0.0184
  121OSM    C1S12753   0.514   7.081   6.386  0.0844  0.1298 -0.3695
  121OSM    H1S12754   0.515   6.971   6.369  0.3790 -0.4561  2.7800
  121OSM    H1T12755   0.411   7.122   6.374  0.3821  0.4256 -2.0597
  121OSM     NF12756   0.475   7.003   6.611 -0.3588 -0.7174 -0.1572
  121OSM    HNF12757   0.405   7.038   6.673  1.0840  0.4922  0.8740
  121OSM    C2S12758   0.556   7.089   6.535 -0.0409 -0.2107 -0.5898
  121OSM    H2S12759   0.665   7.070   6.551 -0.6810 -2.0823  2.3261
  121OSM    C3S12760   0.532   7.238   6.580 -0.1124  0.3409  0.5024
  121OSM    H3S12761   0.427   7.254   6.547  1.0846  2.9886 -2.5425
  121OSM     O312762   0.609   7.330   6.500  0.7923 -0.0884  0.3371
  121OSM    HO312763   0.633   7.279   6.423 -0.4826  0.2231 -0.2938
  121OSM    C4S12764   0.544   7.250   6.728 -0.5174 -0.3259  0.2950
  121OSM    H4S12765   0.451   7.244   6.787 -1.4116  2.0224 -0.7786
  121OSM    C5S12766   0.661   7.272   6.790  0.0561 -0.4993 -0.2926
  121OSM    H5S12767   0.755   7.302   6.741  0.3838  0.2373  0.7576
  121OSM    C6S12768   0.669   7.269   6.940  0.4561  0.7141 -0.0071
  121OSM    H6S12769   0.746   7.347   6.960  0.1637  0.7513  1.0529
  121OSM    H6T12770   0.718   7.173   6.969  1.8164  0.9765 -1.3030
  121OSM    C7S12771   0.542   7.326   7.017  0.2242  0.1935 -0.2383
  121OSM    H7S12772   0.455   7.260   6.998  0.7962 -1.2901  1.8125
  121OSM    H7T12773   0.532   7.430   6.982  1.3739  0.8354  1.2160
  121OSM    C8S12774   0.572   7.326   7.168 -0.2995  0.1465 -0.6505
  121OSM    H8S12775   0.670   7.370   7.197 -0.1563  0.9606 -2.2393
  121OSM    H8T12776   0.571   7.218   7.195 -0.1104 -0.3203 -2.4129
  121OSM    C9S12777   0.460   7.395   7.251  0.6428 -0.0343  0.8548
  121OSM    H9S12778   0.361   7.375   7.204  0.6314 -3.4783  2.1203
  121OSM    H9T12779   0.481   7.504   7.251 -1.0260  0.3497 -1.3275
  121OSM   C10S12780   0.456   7.361   7.402  0.0265 -0.2353  0.6195
  121OSM   H10S12781   0.423   7.255   7.408  0.3410 -0.2922  1.4736
  121OSM   H10T12782   0.383   7.429   7.450 -2.5287 -2.1802 -0.2748
  121OSM   C11S12783   0.593   7.375   7.465  0.4063  0.4871 -0.2056
  121OSM   H11S12784   0.645   7.467   7.429  2.8954 -0.7360  0.0386
  121OSM   H11T12785   0.651   7.294   7.417  0.2809  1.4673 -2.0781
  121OSM   C12S12786   0.596   7.378   7.622  0.6434  0.2650  0.2467
  121OSM   H12S12787   0.540   7.284   7.643  0.2398 -1.3174 -5.9040
  121OSM   H12T12788   0.552   7.472   7.661  1.5735  0.4864  0.7651
  121OSM   C13S12789   0.735   7.343   7.688 -0.7109 -0.9742  0.6028
  121OSM   H13S12790   0.808   7.420   7.655 -1.0116 -0.1564  1.7944
  121OSM   H13T12791   0.776   7.241   7.668 -0.4552 -0.8370  0.4220
  121OSM   C14S12792   0.730   7.357   7.839  0.6748  0.0390  0.1862
  121OSM   H14S12793   0.630   7.340   7.885  0.5312  1.1178  0.2944
  121OSM   H14T12794   0.728   7.466   7.859 -0.7625 -0.0567  0.6790
  121OSM   C15S12795   0.849   7.300   7.918 -0.4410  0.5866 -1.3647
  121OSM   H15S12796   0.950   7.332   7.883  1.4728 -2.1063  1.1920
  121OSM   H15T12797   0.852   7.190   7.903  0.8336  0.4667 -0.4067
  121OSM   C16S12798   0.833   7.347   8.071  0.5613 -0.4256  0.2208
  121OSM   H16S12799   0.740   7.301   8.111  1.5521 -0.8935  2.1029
  121OSM   H16T12800   0.817   7.456   8.071 -0.6055 -0.5589 -1.2745
  121OSM   C17S12801   0.941   7.321   8.174 -0.9088  0.0839 -0.0276
  121OSM   H17S12802   0.955   7.211   8.173 -1.7315 -0.0794  1.9759
  121OSM   H17T12803   0.903   7.344   8.276  2.2952  0.3504  1.2271
  121OSM   C18S12804   1.080   7.396   8.155 -0.0435 -0.0762 -0.0860
  121OSM   H18S12805   1.075   7.505   8.173 -0.5309 -0.1160  0.0490
  121OSM   H18T12806   1.115   7.395   8.050 -2.1312  5.2347 -1.1167
  121OSM   H18U12807   1.149   7.362   8.235 -1.9238 -0.8229  1.3270
  121OSM    C1F12808   0.485   6.870   6.602 -0.0132 -0.6099  0.2475
  121OSM     OF12809   0.580   6.818   6.544  0.6123 -0.3887 -0.2176
  121OSM    C2F12810   0.379   6.792   6.677  0.9042 -0.1306  0.3357
  121OSM    H2F12811   0.296   6.763   6.608 -1.4677  1.2353  2.4184
  121OSM    H2G12812   0.324   6.851   6.753 -0.3578  2.1867 -2.1810
  121OSM    C3F12813   0.434   6.664   6.743  0.0251  0.0116  0.0610
  121OSM    H3F12814   0.522   6.620   6.692  0.2217  0.1898  0.2436
  121OSM    H3G12815   0.359   6.588   6.713  0.2347  0.1630 -0.8663
  121OSM    C4F12816   0.450   6.663   6.893 -0.4836 -0.3810  0.4550
  121OSM    H4F12817   0.477   6.561   6.928 -1.3354  0.0474  2.5137
  121OSM    H4G12818   0.353   6.683   6.943 -0.8390 -2.0637  0.4795
  121OSM    C5F12819   0.551   6.772   6.939 -0.1004 -0.2252  0.2032
  121OSM    H5F12820   0.555   6.862   6.875  3.3146 -0.7674 -0.5319
  121OSM    H5G12821   0.657   6.738   6.933 -0.4189 -1.4758  1.1762
  121OSM    C6F12822   0.536   6.796   7.087  0.4233  0.5271 -0.2617
  121OSM    H6F12823   0.535   6.706   7.151 -0.7644  1.8915  1.7675
  121OSM    H6G12824   0.435   6.834   7.113 -0.8597 -0.6707 -3.0242
  121OSM    C7F12825   0.638   6.892   7.149  0.4480 -0.4705  1.0958
  121OSM    H7F12826   0.622   6.995   7.110 -0.6933 -0.1894  2.2451
  121OSM    H7G12827   0.740   6.855   7.124 -0.0195 -1.5440  0.7353
  121OSM    C8F12828   0.629   6.908   7.301  0.1461  0.3580  0.1319
  121OSM    H8F12829   0.616   6.804   7.338 -0.6165  0.9568  1.6237
  121OSM    H8G12830   0.532   6.955   7.327 -2.8435 -4.8230 -0.2772
  121OSM    C9F12831   0.748   6.974   7.366 -0.0502  0.7050  0.2945
  121OSM    H9F12832   0.774   7.071   7.321 -1.4408 -0.0361 -2.3124
  121OSM   C10F12833   0.823   6.932   7.470  0.1042 -0.1191 -0.1859
  121OSM   H10F12834   0.911   6.987   7.506 -0.5169  0.3852  0.5890
  121OSM   C11F12835   0.798   6.803   7.544  0.0242 -0.0468 -0.3854
  121OSM   H11F12836   0.884   6.735   7.525 -1.0646 -1.4236 -0.5532
  121OSM   H11G12837   0.711   6.741   7.512  0.0361 -0.8848  1.1326
  121OSM   C12F12838   0.773   6.824   7.694 -0.2708 -0.5245  0.6619
  121OSM   H12F12839   0.695   6.901   7.711  0.0998 -0.1010  0.4638
  121OSM   H12G12840   0.867   6.869   7.731  0.5485 -1.0844 -0.6517
  121OSM   C13F12841   0.745   6.695   7.774  0.3181  0.5377 -0.1384
  121OSM   H13F12842   0.843   6.642   7.781  1.9516  3.1060 -1.7649
  121OSM   H13G12843   0.676   6.640   7.706 -0.4982  0.9534  0.3393
  121OSM   C14F12844   0.666   6.714   7.904  0.1866  0.1254  0.5951
  121OSM   H14F12845   0.614   6.619   7.925  0.4109 -0.4313 -1.1623
  121OSM   H14G12846   0.593   6.798   7.899  0.3555  0.3637  1.9238
  121OSM   C15F12847   0.760   6.735   8.018  0.9594 -0.3212 -0.4766
  121OSM   H15F12848   0.715   6.809   8.088  2.4914  0.0189  0.1994
  121OSM   H15G12849   0.855   6.782   7.984 -0.3557  1.6099 -1.7070
  121OSM   C16F12850   0.771   6.610   8.102  0.1036 -0.3335 -0.3609
  121OSM   H16F12851   0.794   6.528   8.031  0.2368 -0.4604 -0.1725
  121OSM   H16G12852   0.676   6.592   8.157  1.0129 -2.0299  0.7533
  121OSM   C17F12853   0.870   6.610   8.216  0.0176  0.4408 -0.0885
  121OSM   H17F12854   0.960   6.656   8.171 -0.7566  1.0891 -1.0025
  121OSM   H17G12855   0.899   6.507   8.244  1.1233  0.8270  0.2461
  121OSM   C18F12856   0.825   6.695   8.340 -1.0925 -0.2548  0.4153
  121OSM   H18F12857   0.902   6.669   8.415 -0.4272 -0.6187 -0.3824
  121OSM   H18G12858   0.728   6.655   8.378 -1.0414 -1.3713 -0.5564
  121OSM   H18H12859   0.833   6.804   8.324  1.9103 -0.5535 -0.8086
  122OSM      N12860   5.370   3.293   5.729  0.0725 -0.4391 -0.3734
  122OSM    C1512861   5.359   3.425   5.665 -0.4451 -0.7791  0.5185
  122OSM   H15A12862   5.355   3.420   5.557  0.2155 -0.2730  0.4612
  122OSM   H15B12863   5.438   3.496   5.685 -1.0738  0.4984 -1.1610
  122OSM   H15C12864   5.268   3.472   5.701 -1.1630 -2.3010  0.7834
  122OSM    C1412865   5.228   3.243   5.731 -0.1367  0.3284 -0.4449
  122OSM   H14A12866   5.167   3.286   5.808  0.4927 -0.3935  0.4849
  122OSM   H14B12867   5.218   3.137   5.749  2.0936  0.1487  0.0285
  122OSM   H14C12868   5.172   3.265   5.641 -2.2277 -0.3495  0.6197
  122OSM    C1312869   5.444   3.202   5.642 -0.3566 -0.0545  0.3168
  122OSM   H13A12870   5.533   3.249   5.603 -0.2011 -0.8934 -0.3722
  122OSM   H13B12871   5.384   3.176   5.556 -0.9377  0.5425  0.5266
  122OSM   H13C12872   5.485   3.119   5.696  1.6059  1.6477  1.5917
  122OSM    C1212873   5.433   3.305   5.867 -0.9332  0.4025 -0.2605
  122OSM   H12A12874   5.384   3.384   5.922 -2.1044 -0.8750  0.5782
  122OSM   H12B12875   5.538   3.329   5.854 -0.5049  0.2202  2.3385
  122OSM    C1112876   5.435   3.185   5.962  0.8402  0.6708  0.1832
  122OSM   H11A12877   5.499   3.194   6.052  0.8969  0.7756  0.1331
  122OSM   H11B12878   5.483   3.101   5.907  2.5993  1.8506 -0.1748
  122OSM      P12879   5.268   3.001   6.054 -0.1417 -0.0619 -0.1235
  122OSM    O1312880   5.141   3.010   6.132  1.0255  0.8706  0.4361
  122OSM    O1412881   5.276   2.903   5.944  0.0028 -0.3249 -0.2106
  122OSM    O1112882   5.386   2.965   6.156  0.2268 -0.2092 -0.6729
  122OSM    O1212883   5.301   3.146   6.000 -0.2200  0.0644  0.1798
  122OSM    C1S12884   5.376   3.014   6.295 -0.0584 -0.6166  0.2781
  122OSM    H1S12885   5.272   2.999   6.332 -0.4223  1.5323  0.2318
  122OSM    H1T12886   5.407   3.120   6.300  0.0280 -0.6677  0.8781
  122OSM     NF12887   5.428   2.999   6.539  0.1401 -0.3523  0.4564
  122OSM    HNF12888   5.495   3.068   6.565  0.6779  0.2997 -2.3344
  122OSM    C2S12889   5.457   2.942   6.410 -0.5595 -0.3954 -0.1611
  122OSM    H2S12890   5.420   2.837   6.406  2.2759 -1.4683  0.0915
  122OSM    C3S12891   5.606   2.949   6.369  0.2174  0.3880 -0.6404
  122OSM    H3S12892   5.645   3.052   6.382  0.0592  0.4034 -0.2587
  122OSM     O312893   5.630   2.917   6.231 -0.4998  0.4589 -0.2586
  122OSM    HO312894   5.548   2.909   6.183  0.1513  0.5921 -1.4262
  122OSM    C4S12895   5.690   2.866   6.460  0.0851  0.0815  0.0176
  122OSM    H4S12896   5.762   2.927   6.517 -0.4240 -1.0065  1.9153
  122OSM    C5S12897   5.681   2.730   6.477 -0.4488 -0.1778  0.3874
  122OSM    H5S12898   5.624   2.662   6.411 -0.5594  0.0514  0.2442
  122OSM    C6S12899   5.761   2.653   6.578  0.3219 -0.3480  0.5457
  122OSM    H6S12900   5.739   2.544   6.572  1.4591 -0.5762  0.2360
  122OSM    H6T12901   5.725   2.687   6.677  2.0802  1.1256  0.7417
  122OSM    C7S12902   5.925   2.660   6.569  0.9643 -0.2573 -0.8335
  122OSM    H7S12903   5.964   2.763   6.561 -2.1982  1.2616  1.2184
  122OSM    H7T12904   5.964   2.604   6.481  1.3142  0.8686 -1.4110
  122OSM    C8S12905   5.989   2.596   6.694 -0.6036 -0.2340  0.1450
  122OSM    H8S12906   5.973   2.664   6.781 -0.1171  0.2576 -0.1447
  122OSM    H8T12907   6.097   2.587   6.672 -0.9194 -2.1922 -0.8668
  122OSM    C9S12908   5.946   2.449   6.730 -0.1733 -0.3514 -0.1904
  122OSM    H9S12909   5.985   2.369   6.664 -1.3626 -1.7106  0.7011
  122OSM    H9T12910   5.836   2.444   6.720 -0.1194 -1.8314 -0.1748
  122OSM   C10S12911   5.975   2.421   6.879  0.1286  0.1915  0.3398
  122OSM   H10S12912   5.912   2.490   6.938  0.9497 -0.4108  1.9680
  122OSM   H10T12913   6.083   2.439   6.899  0.2704 -1.5890  1.3355
  122OSM   C11S12914   5.937   2.283   6.916 -0.3572  0.9884  0.5734
  122OSM   H11S12915   5.955   2.220   6.827 -0.9520 -1.2139  1.9299
  122OSM   H11T12916   5.826   2.277   6.917 -0.2779 -1.9111  0.2222
  122OSM   C12S12917   5.991   2.217   7.049 -0.4235 -0.3256  0.6398
  122OSM   H12S12918   6.097   2.190   7.027 -0.7812 -1.5401  0.3180
  122OSM   H12T12919   5.927   2.127   7.064 -0.2260 -1.0653 -2.3020
  122OSM   C13S12920   5.996   2.313   7.166 -0.2820 -0.1500  0.8462
  122OSM   H13S12921   5.904   2.376   7.170 -0.7852 -0.8746  0.9403
  122OSM   H13T12922   6.080   2.384   7.153 -0.5348 -0.2485 -1.9224
  122OSM   C14S12923   5.998   2.248   7.319 -0.2469  0.8430  0.4569
  122OSM   H14S12924   6.013   2.331   7.392 -1.7783 -0.0655  1.8861
  122OSM   H14T12925   6.079   2.173   7.317 -0.4286  0.6348 -1.4767
  122OSM   C15S12926   5.861   2.183   7.357 -0.1911 -0.1936  0.1054
  122OSM   H15S12927   5.820   2.113   7.281  1.4766 -2.1354  0.8894
  122OSM   H15T12928   5.782   2.261   7.346 -0.8885 -1.0939 -1.7722
  122OSM   C16S12929   5.862   2.114   7.494 -0.1576  0.1932 -0.1832
  122OSM   H16S12930   5.767   2.057   7.485 -0.9261  1.6608 -2.0377
  122OSM   H16T12931   5.865   2.188   7.576  0.3476 -0.0195 -0.0055
  122OSM   C17S12932   5.973   2.019   7.522 -0.1173 -0.2922 -0.4276
  122OSM   H17S12933   6.074   2.065   7.523 -0.0766 -0.3848  0.1298
  122OSM   H17T12934   5.992   1.941   7.445  0.1578  0.4580 -1.1381
  122OSM   C18S12935   5.955   1.955   7.657  0.2779  0.7113 -0.3096
  122OSM   H18S12936   5.856   1.906   7.666 -0.2386  1.8200  0.1780
  122OSM   H18T12937   5.963   2.038   7.730  1.4230  0.9644 -0.7028
  122OSM   H18U12938   6.033   1.878   7.678 -0.0232  0.8822  1.5839
  122OSM    C1F12939   5.309   2.973   6.605 -0.5427  0.5728 -0.9007
  122OSM     OF12940   5.213   2.917   6.550  0.0029  0.6273  0.4788
  122OSM    C2F12941   5.299   3.025   6.746 -0.3141 -0.2021  0.6352
  122OSM    H2F12942   5.214   3.097   6.744 -1.0655 -1.0721  0.0136
  122OSM    H2G12943   5.391   3.073   6.784  0.9900 -3.4268  1.9249
  122OSM    C3F12944   5.266   2.920   6.845  0.1468  0.2849 -0.2190
  122OSM    H3F12945   5.351   2.850   6.860  1.5915  1.7674 -1.1581
  122OSM    H3G12946   5.174   2.869   6.812 -0.7182  1.7816 -0.2393
  122OSM    C4F12947   5.215   2.977   6.986 -0.1892 -0.0705 -0.2541
  122OSM    H4F12948   5.144   3.058   6.960  0.9461  0.6274 -1.3134
  122OSM    H4G12949   5.293   3.022   7.051 -1.8269  0.6298  1.2918
  122OSM    C5F12950   5.155   2.864   7.070  0.0597  0.2622  0.4315
  122OSM    H5F12951   5.203   2.764   7.070  1.0577  0.7256  0.5902
  122OSM    H5G12952   5.059   2.845   7.017  0.2873  0.3197 -0.0002
  122OSM    C6F12953   5.135   2.904   7.212  0.0846  0.1264  0.7662
  122OSM    H6F12954   5.041   2.856   7.246 -0.4818  0.2155 -0.6177
  122OSM    H6G12955   5.127   3.015   7.220 -0.0875  0.2331 -0.6138
  122OSM    C7F12956   5.249   2.859   7.303 -0.5656  0.0602  0.2725
  122OSM    H7F12957   5.350   2.889   7.267 -0.9682  0.5743 -0.4691
  122OSM    H7G12958   5.243   2.748   7.306  4.0982 -0.4556 -1.0213
  122OSM    C8F12959   5.226   2.930   7.441 -1.0674  1.0299  0.6933
  122OSM    H8F12960   5.130   2.895   7.485  0.8714 -1.6074  3.1808
  122OSM    H8G12961   5.220   3.040   7.423  2.8759  1.1333 -1.0007
  122OSM    C9F12962   5.337   2.900   7.538  0.2318  0.8581  0.6777
  122OSM    H9F12963   5.431   2.857   7.501  0.2134  1.9847 -0.7304
  122OSM   C10F12964   5.318   2.887   7.669  0.3783 -0.7195  0.3370
  122OSM   H10F12965   5.398   2.841   7.728  1.0262 -0.0356  0.0016
  122OSM   C11F12966   5.192   2.936   7.746 -0.2199  0.1119  0.1064
  122OSM   H11F12967   5.199   2.884   7.845 -0.0752 -2.6214 -1.2443
  122OSM   H11G12968   5.096   2.906   7.700 -0.1631 -1.2200  0.8003
  122OSM   C12F12969   5.182   3.091   7.755 -0.5571  0.5585  0.4733
  122OSM   H12F12970   5.154   3.115   7.650  0.4718  1.0372  0.2909
  122OSM   H12G12971   5.284   3.132   7.776 -0.9706  1.2183  1.2557
  122OSM   C13F12972   5.079   3.141   7.845  0.3316  0.4260 -0.1804
  122OSM   H13F12973   4.981   3.090   7.827  0.5404  0.4501 -1.4734
  122OSM   H13G12974   5.054   3.249   7.838  0.5421  0.6268  1.7162
  122OSM   C14F12975   5.127   3.134   7.991  0.3760 -1.3685  1.1179
  122OSM   H14F12976   5.212   3.205   8.006 -0.4302 -0.4758  1.5280
  122OSM   H14G12977   5.154   3.031   8.023 -0.1928 -1.9290 -0.1713
  122OSM   C15F12978   5.012   3.164   8.089  0.1213 -0.4780 -0.1971
  122OSM   H15F12979   4.926   3.102   8.058  0.9079 -1.1757 -1.0690
  122OSM   H15G12980   4.959   3.262   8.085 -0.5526 -0.7722  1.1174
  122OSM   C16F12981   5.046   3.151   8.236 -0.6896 -0.2834  0.2206
  122OSM   H16F12982   5.096   3.055   8.260  1.6153  0.9940  0.8249
  122OSM   H16G12983   4.952   3.164   8.294  0.0614  3.1440  0.8579
  122OSM   C17F12984   5.162   3.251   8.286  0.8831 -0.0815  0.4505
  122OSM   H17F12985   5.263   3.221   8.253  1.5395  2.4732 -0.0056
  122OSM   H17G12986   5.154   3.244   8.397  0.5818 -1.5783  0.3631
  122OSM   C18F12987   5.142   3.392   8.237 -0.4447  0.4476  0.0299
  122OSM   H18F12988   5.196   3.462   8.304 -0.7659 -0.2012  0.9834
  122OSM   H18G12989   5.039   3.431   8.221 -1.1766 -1.9250 -1.5750
  122OSM   H18H12990   5.180   3.413   8.134  0.6578 -0.8879  0.1353
  123OSM      N12991   3.665   4.002   6.201  0.6210 -0.3147  0.3128
  123OSM    C1512992   3.600   4.134   6.208 -0.0889  0.1151  0.4954
  123OSM   H15A12993   3.563   4.143   6.309  0.8634 -2.6003  1.1491
  123OSM   H15B12994   3.513   4.142   6.145 -0.7760  0.4349  1.4600
  123OSM   H15C12995   3.662   4.221   6.190 -0.5722  0.4441  0.4038
  123OSM    C1412996   3.576   3.890   6.242 -0.3739 -0.4588 -0.6877
  123OSM   H14A12997   3.546   3.910   6.344 -0.6736  0.5933 -0.9620
  123OSM   H14B12998   3.624   3.794   6.236 -1.4754 -1.1976  1.3763
  123OSM   H14C12999   3.488   3.887   6.179 -0.6017 -0.7646 -0.3565
  123OSM    C1313000   3.710   3.972   6.061 -0.2927 -0.6762 -0.0471
  123OSM   H13A13001   3.788   4.035   6.021 -2.5646  2.0897 -0.4832
  123OSM   H13B13002   3.631   3.972   5.987 -0.1875 -1.1372 -0.1623
  123OSM   H13C13003   3.755   3.874   6.065  0.6191 -0.2315  1.0735
  123OSM    C1213004   3.777   4.011   6.291 -0.3231 -0.1001  0.0541
  123OSM   H12A13005   3.756   3.968   6.388 -0.1161  0.1233  0.2004
  123OSM   H12B13006   3.788   4.109   6.335 -1.0792 -0.5330  1.2599
  123OSM    C1113007   3.915   3.956   6.240 -0.7768 -0.2355  0.1364
  123OSM   H11A13008   3.995   3.966   6.317 -1.2346 -2.1572  0.9205
  123OSM   H11B13009   3.952   4.016   6.154 -2.9889  2.2470  0.7838
  123OSM      P13010   3.900   3.715   6.314 -0.2361 -0.3684 -0.0753
  123OSM    O1313011   3.793   3.616   6.289 -0.3473 -0.2836 -0.2470
  123OSM    O1413012   4.036   3.663   6.346 -0.1214  0.7333  0.1849
  123OSM    O1113013   3.859   3.791   6.443 -0.5653  0.1825  0.0185
  123OSM    O1213014   3.911   3.823   6.198 -0.2604  0.1857 -0.5256
  123OSM    C1S13015   3.937   3.802   6.567 -0.5912  0.8769  0.0648
  123OSM    H1S13016   4.002   3.891   6.561  2.2351 -1.0619 -0.3560
  123OSM    H1T13017   4.010   3.718   6.573 -0.5260  0.9390  0.1420
  123OSM     NF13018   3.933   3.824   6.816  0.3232  0.2740 -0.2018
  123OSM    HNF13019   3.942   3.749   6.881 -1.1495 -2.5221 -2.9433
  123OSM    C2S13020   3.857   3.796   6.695 -0.0512 -0.0256  0.2309
  123OSM    H2S13021   3.774   3.869   6.683 -0.0140 -0.0141  0.0302
  123OSM    C3S13022   3.784   3.659   6.703 -0.1548 -0.4359 -0.4637
  123OSM    H3S13023   3.864   3.582   6.711  1.2869  1.0299 -0.0682
  123OSM     O313024   3.717   3.607   6.587 -0.3816  0.2002  0.4028
  123OSM    HO313025   3.732   3.666   6.513 -0.7511 -1.2148 -0.8599
  123OSM    C4S13026   3.700   3.652   6.823  0.1658 -0.5169  0.5622
  123OSM    H4S13027   3.748   3.591   6.902 -1.8896 -0.6395  1.7929
  123OSM    C5S13028   3.576   3.700   6.843  0.0264  0.0045  0.6856
  123OSM    H5S13029   3.526   3.769   6.773 -0.2789 -0.4047  0.4938
  123OSM    C6S13030   3.493   3.681   6.964 -0.2776  0.3707  0.1135
  123OSM    H6S13031   3.420   3.598   6.958 -1.0042  1.0432 -0.6864
  123OSM    H6T13032   3.439   3.777   6.985 -1.7980 -0.1698 -1.1308
  123OSM    C7S13033   3.560   3.635   7.098 -0.0046 -0.3675 -0.2198
  123OSM    H7S13034   3.626   3.721   7.123 -1.4227  0.2866  1.5682
  123OSM    H7T13035   3.616   3.540   7.082 -1.8116 -1.3093 -1.2543
  123OSM    C8S13036   3.457   3.605   7.209  0.9152  0.7118 -0.6384
  123OSM    H8S13037   3.394   3.523   7.169  2.3824 -1.6393  1.5432
  123OSM    H8T13038   3.385   3.688   7.222 -0.4435 -0.5304  0.0855
  123OSM    C9S13039   3.521   3.558   7.340  0.0005  1.3223 -0.3815
  123OSM    H9S13040   3.608   3.489   7.338 -0.3305  0.9204 -1.1649
  123OSM    H9T13041   3.441   3.509   7.400  1.2109  0.2368  0.4164
  123OSM   C10S13042   3.561   3.676   7.421  0.1173  0.0404 -0.2795
  123OSM   H10S13043   3.472   3.741   7.439  1.1170  1.2743  0.4027
  123OSM   H10T13044   3.635   3.737   7.365 -0.2729  0.0044 -0.8359
  123OSM   C11S13045   3.630   3.629   7.551  0.6356 -0.5345 -0.2390
  123OSM   H11S13046   3.714   3.701   7.563  0.2125 -0.2079  0.8894
  123OSM   H11T13047   3.673   3.530   7.524 -2.5821 -1.9610 -0.5850
  123OSM   C12S13048   3.535   3.629   7.668  0.1928 -0.7675 -0.2481
  123OSM   H12S13049   3.460   3.548   7.661  0.1861 -0.6734 -1.4960
  123OSM   H12T13050   3.487   3.729   7.663  1.5173 -0.1121 -0.5488
  123OSM   C13S13051   3.607   3.622   7.795 -0.1111  0.1913  0.8375
  123OSM   H13S13052   3.692   3.692   7.811  1.0635 -1.5860  3.1419
  123OSM   H13T13053   3.641   3.516   7.802 -0.3994  0.0988  0.8560
  123OSM   C14S13054   3.514   3.650   7.913 -0.3749  0.3225 -0.4456
  123OSM   H14S13055   3.426   3.582   7.906 -2.8127  2.7634  2.9731
  123OSM   H14T13056   3.466   3.749   7.895 -1.4837 -0.2751 -0.9023
  123OSM   C15S13057   3.592   3.646   8.047  0.2027  0.1166 -0.0012
  123OSM   H15S13058   3.686   3.706   8.039  0.2106  0.0569 -0.3804
  123OSM   H15T13059   3.610   3.541   8.079 -1.3887 -0.0388  0.4249
  123OSM   C16S13060   3.504   3.699   8.157 -0.2949  0.4861 -0.7603
  123OSM   H16S13061   3.400   3.662   8.141 -0.7684  0.6920  1.5486
  123OSM   H16T13062   3.519   3.809   8.149  2.5827  0.3818  1.5369
  123OSM   C17S13063   3.561   3.660   8.296 -0.2143 -0.4300  0.5567
  123OSM   H17S13064   3.666   3.690   8.315  0.1664 -1.6536  0.4073
  123OSM   H17T13065   3.559   3.550   8.308  2.7193 -0.3793  2.3309
  123OSM   C18S13066   3.463   3.717   8.404  0.0912  0.4979  0.3048
  123OSM   H18S13067   3.475   3.651   8.493  0.5676 -1.0109 -0.8210
  123OSM   H18T13068   3.359   3.707   8.366 -0.1008  1.7600  0.4718
  123OSM   H18U13069   3.493   3.823   8.416  0.8581  0.4546 -1.0242
  123OSM    C1F13070   3.996   3.940   6.848  0.2087 -0.3240 -0.2017
  123OSM     OF13071   4.001   4.023   6.765  0.3404 -0.1107  0.2461
  123OSM    C2F13072   4.045   3.963   6.981 -0.2521  0.0915 -0.1486
  123OSM    H2F13073   4.086   4.065   6.992  0.1079 -0.0305 -0.3245
  123OSM    H2G13074   4.134   3.898   6.999  1.3949  1.8609 -1.5280
  123OSM    C3F13075   3.930   3.932   7.088  0.3756 -0.4476 -0.4907
  123OSM    H3F13076   3.910   3.823   7.087 -0.6192 -0.2722 -0.2497
  123OSM    H3G13077   3.840   3.986   7.053  0.2043 -2.0910 -2.7875
  123OSM    C4F13078   3.979   3.979   7.234 -0.1173 -0.0259  0.4106
  123OSM    H4F13079   3.950   4.086   7.240  1.4639  0.6150 -2.1090
  123OSM    H4G13080   4.090   3.978   7.237  0.3709  7.0108 -0.2593
  123OSM    C5F13081   3.907   3.891   7.346  0.0127  0.7168  1.0593
  123OSM    H5F13082   3.950   3.789   7.341  1.2885  1.2599  0.3836
  123OSM    H5G13083   3.799   3.888   7.318  0.0627  2.1975  0.6106
  123OSM    C6F13084   3.920   3.947   7.485  0.0061 -1.2825 -0.3440
  123OSM    H6F13085   3.841   3.894   7.541  1.8486 -2.0728  1.6579
  123OSM    H6G13086   3.906   4.056   7.498  1.3952 -0.9691 -1.2054
  123OSM    C7F13087   4.052   3.919   7.567  0.7616 -0.0292 -0.2742
  123OSM    H7F13088   4.133   3.954   7.500 -0.0451 -2.0134 -2.4044
  123OSM    H7G13089   4.073   3.812   7.591 -0.9901 -0.4580 -0.4895
  123OSM    C8F13090   4.054   3.991   7.704  0.4316  0.3024  0.9968
  123OSM    H8F13091   4.047   4.099   7.678 -1.7448 -0.6166 -3.1083
  123OSM    H8G13092   4.157   3.975   7.743 -0.4391  0.7602  3.7040
  123OSM    C9F13093   3.947   3.932   7.795  0.3024  0.4506  0.5970
  123OSM    H9F13094   3.854   3.891   7.752  0.2313  0.4033  0.7971
  123OSM   C10F13095   3.957   3.926   7.928 -0.7635 -0.1408  0.0873
  123OSM   H10F13096   3.881   3.869   7.982 -0.9665  1.5835  1.7123
  123OSM   C11F13097   4.063   3.982   8.011  0.0253  0.6842  0.3093
  123OSM   H11F13098   4.159   3.986   7.954  0.5394  1.4326  1.1884
  123OSM   H11G13099   4.074   3.924   8.105  0.3005  2.5230  1.4546
  123OSM   C12F13100   4.016   4.121   8.049  0.1086  0.0212  0.0867
  123OSM   H12F13101   4.034   4.187   7.961 -2.8946  0.1037 -0.5683
  123OSM   H12G13102   4.087   4.157   8.127  0.6025 -0.8943  0.0736
  123OSM   C13F13103   3.875   4.132   8.108  0.0438  0.4776 -0.1928
  123OSM   H13F13104   3.799   4.108   8.031 -1.3023  1.7593  0.6696
  123OSM   H13G13105   3.863   4.240   8.131 -1.2814  0.3477 -0.2023
  123OSM   C14F13106   3.842   4.065   8.245  0.0450  0.2930 -0.6650
  123OSM   H14F13107   3.933   4.048   8.307 -1.9896 -0.0940  2.4309
  123OSM   H14G13108   3.784   3.972   8.228  0.7969 -0.3800  0.3483
  123OSM   C15F13109   3.763   4.151   8.347 -0.1042 -0.5370 -0.6777
  123OSM   H15F13110   3.678   4.180   8.282 -2.1701 -2.5894  0.9623
  123OSM   H15G13111   3.805   4.247   8.383  0.2037 -1.6025  2.0290
  123OSM   C16F13112   3.705   4.072   8.469 -0.6176 -0.0356  0.6110
  123OSM   H16F13113   3.793   4.059   8.536  1.8827 -0.1784 -2.4748
  123OSM   H16G13114   3.674   3.969   8.444 -2.6177  0.6520  0.0181
  123OSM   C17F13115   3.584   4.145   8.533 -0.2820  0.0880 -0.2674
  123OSM   H17F13116   3.505   4.151   8.456  1.1713 -1.1267 -1.9334
  123OSM   H17G13117   3.618   4.246   8.564 -1.6203  0.7660 -0.9313
  123OSM   C18F13118   3.523   4.066   8.651  0.8136 -0.4837 -0.0040
  123OSM   H18F13119   3.541   3.958   8.632 -0.5330 -0.8078  0.4899
  123OSM   H18G13120   3.413   4.079   8.648  0.8324 -0.4071 -1.4127
  123OSM   H18H13121   3.567   4.092   8.749  1.8154 -2.0462 -0.0192
  124OSM      N13122   4.472   0.626   6.079 -0.8362 -0.5024 -0.1969
  124OSM    C1513123   4.522   0.580   6.209  0.5287  0.2447 -1.2601
  124OSM   H15A13124   4.608   0.640   6.236  0.5731 -0.8809  1.4689
  124OSM   H15B13125   4.542   0.475   6.223  2.6133  0.7682  0.2076
  124OSM   H15C13126   4.455   0.615   6.286 -0.3137 -0.7344 -1.5291
  124OSM    C1413127   4.362   0.539   6.037 -0.0375  0.2869  0.6005
  124OSM   H14A13128   4.392   0.435   6.031 -0.5666  0.1554  0.1482
  124OSM   H14B13129   4.319   0.564   5.942  1.9963 -0.9127 -0.7182
  124OSM   H14C13130   4.286   0.535   6.114  0.4224 -2.7329  1.0469
  124OSM    C1313131   4.418   0.762   6.096  0.2315 -0.4462  0.2797
  124OSM   H13A13132   4.330   0.777   6.036 -0.4393  1.1114  1.5809
  124OSM   H13B13133   4.491   0.839   6.074 -0.4830  1.2181  3.2997
  124OSM   H13C13134   4.394   0.775   6.200 -1.5408 -0.9872 -0.0250
  124OSM    C1213135   4.580   0.625   5.967 -0.3091 -0.5247 -0.6948
  124OSM   H12A13136   4.536   0.660   5.875 -2.4784  5.2584  2.0570
  124OSM   H12B13137   4.620   0.524   5.962  0.2735 -0.2771 -1.1042
  124OSM    C1113138   4.699   0.724   5.975  0.4299  0.2485 -0.2809
  124OSM   H11A13139   4.786   0.686   5.917  0.6542  1.6215 -0.9096
  124OSM   H11B13140   4.739   0.711   6.078  2.7188 -1.5423 -1.2988
  124OSM      P13141   4.762   0.969   5.913  0.1785 -0.1456 -0.2963
  124OSM    O1313142   4.805   0.943   5.774 -0.5629  0.2398 -0.0240
  124OSM    O1413143   4.703   1.101   5.942 -0.2685 -0.1920 -0.1627
  124OSM    O1113144   4.882   0.941   6.015 -0.0876  0.4126 -0.6652
  124OSM    O1213145   4.657   0.858   5.949 -0.0380  0.0012 -0.2831
  124OSM    C1S13146   4.849   0.957   6.157  0.3051 -0.0398  0.5478
  124OSM    H1S13147   4.747   0.918   6.178  0.8932 -1.8533  0.2276
  124OSM    H1T13148   4.842   1.063   6.186  1.8858  0.1471  0.3243
  124OSM     NF13149   4.925   0.928   6.402 -0.0390  0.4855 -0.4204
  124OSM    HNF13150   4.988   0.993   6.444 -0.8600  1.6352 -0.8794
  124OSM    C2S13151   4.950   0.886   6.260 -0.9879  0.2385  0.2605
  124OSM    H2S13152   4.936   0.776   6.253 -0.9218  0.2697 -0.4197
  124OSM    C3S13153   5.099   0.915   6.215  0.5850 -0.7227 -0.3525
  124OSM    H3S13154   5.122   1.022   6.232 -2.0963  0.2322 -2.1174
  124OSM     O313155   5.146   0.900   6.077  0.2858  0.0700 -0.0668
  124OSM    HO313156   5.061   0.896   6.033 -0.0955  3.7605  0.0955
  124OSM    C4S13157   5.189   0.836   6.305  0.6294 -0.1166 -0.0955
  124OSM    H4S13158   5.157   0.735   6.337 -2.3442  0.4064 -1.1584
  124OSM    C5S13159   5.308   0.882   6.341  0.9050 -0.4099  0.3485
  124OSM    H5S13160   5.336   0.982   6.304 -2.6780  0.0170 -1.6936
  124OSM    C6S13161   5.395   0.810   6.436  0.5471 -0.3428 -0.0147
  124OSM    H6S13162   5.488   0.781   6.382  1.1683  0.4283  0.6274
  124OSM    H6T13163   5.341   0.723   6.477  0.4842  0.2129  1.1092
  124OSM    C7S13164   5.436   0.901   6.548 -0.0343 -0.5550 -0.3324
  124OSM    H7S13165   5.351   0.958   6.592 -0.2380 -0.6380 -0.6147
  124OSM    H7T13166   5.498   0.976   6.494 -0.1167  0.4865  0.9590
  124OSM    C8S13167   5.535   0.836   6.647 -1.1516  0.2438  0.1309
  124OSM    H8S13168   5.605   0.909   6.692  0.7371 -0.7591 -1.0668
  124OSM    H8T13169   5.605   0.764   6.600  0.9911  1.8902  0.6530
  124OSM    C9S13170   5.453   0.774   6.764  0.0546 -1.1220  0.3860
  124OSM    H9S13171   5.382   0.704   6.714  0.8410 -3.4317  2.3440
  124OSM    H9T13172   5.392   0.852   6.815  2.2118 -0.1330  1.6011
  124OSM   C10S13173   5.527   0.697   6.875  0.2469  0.2508  0.2567
  124OSM   H10S13174   5.596   0.763   6.933 -0.6430  0.2103  1.4030
  124OSM   H10T13175   5.587   0.615   6.830  0.3784  0.0154  0.8451
  124OSM   C11S13176   5.429   0.627   6.973 -0.4718 -0.3290 -0.2614
  124OSM   H11S13177   5.483   0.548   7.030  1.0352 -0.9304 -2.3947
  124OSM   H11T13178   5.351   0.567   6.921 -1.1403 -0.8404  1.2700
  124OSM   C12S13179   5.374   0.738   7.065  0.4425 -1.0491  0.2329
  124OSM   H12S13180   5.297   0.804   7.020  0.6295 -0.2290  1.0666
  124OSM   H12T13181   5.451   0.806   7.108 -1.9639  1.1845  1.3244
  124OSM   C13S13182   5.300   0.670   7.179 -0.2706 -0.2895 -0.3754
  124OSM   H13S13183   5.372   0.628   7.252  0.0028 -0.8839 -0.9755
  124OSM   H13T13184   5.241   0.592   7.127  0.4018 -0.7587 -0.4477
  124OSM   C14S13185   5.218   0.765   7.268 -0.3227  0.6564  0.0800
  124OSM   H14S13186   5.133   0.807   7.210 -0.9503 -0.2562  0.3181
  124OSM   H14T13187   5.282   0.847   7.305 -0.5537  1.0693 -0.4220
  124OSM   C15S13188   5.175   0.693   7.398 -0.3967 -0.6585  0.0127
  124OSM   H15S13189   5.259   0.700   7.470  1.8264 -1.9405 -2.3089
  124OSM   H15T13190   5.158   0.585   7.379  2.7134 -1.0533 -1.1526
  124OSM   C16S13191   5.068   0.769   7.476 -0.8251 -0.1576 -1.1356
  124OSM   H16S13192   4.963   0.758   7.442 -1.1360 -0.2650 -0.1682
  124OSM   H16T13193   5.093   0.877   7.467  1.9329 -0.6784 -0.6221
  124OSM   C17S13194   5.056   0.737   7.626 -1.4722 -0.0601 -0.6627
  124OSM   H17S13195   5.144   0.759   7.691  0.0802 -1.2710 -2.2612
  124OSM   H17T13196   5.051   0.627   7.638  0.4523 -0.4928 -3.0197
  124OSM   C18S13197   4.950   0.832   7.689  0.0725  0.3873 -0.2319
  124OSM   H18S13198   4.846   0.813   7.656 -0.4025  1.5159  0.5552
  124OSM   H18T13199   4.977   0.938   7.671 -2.3856  0.8877 -1.2551
  124OSM   H18U13200   4.949   0.827   7.800 -1.7881  2.6058 -0.0848
  124OSM    C1F13201   4.819   0.884   6.473 -0.3662  0.2691  0.0233
  124OSM     OF13202   4.736   0.804   6.431  0.0112 -0.0352  0.0627
  124OSM    C2F13203   4.821   0.929   6.619  1.2567 -0.0770 -0.1100
  124OSM    H2F13204   4.918   0.946   6.669  0.6513  1.0039  0.7509
  124OSM    H2G13205   4.767   0.860   6.688 -0.3430 -1.2594 -2.4184
  124OSM    C3F13206   4.732   1.060   6.627  0.1963 -0.2979  0.1890
  124OSM    H3F13207   4.634   1.026   6.586  1.0929 -1.1891 -1.3329
  124OSM    H3G13208   4.775   1.143   6.567 -0.5635 -1.1299 -1.5865
  124OSM    C4F13209   4.714   1.105   6.777 -0.1319 -0.4091  0.1479
  124OSM    H4F13210   4.810   1.147   6.817  0.9949 -2.4727 -0.2624
  124OSM    H4G13211   4.672   1.022   6.838 -1.4643  0.9475  1.1421
  124OSM    C5F13212   4.604   1.211   6.789 -0.7986  0.0960 -0.3230
  124OSM    H5F13213   4.514   1.180   6.731 -0.5520  2.1343 -1.9333
  124OSM    H5G13214   4.637   1.314   6.761  1.0097  0.0615  1.4432
  124OSM    C6F13215   4.550   1.222   6.933 -0.1280  0.1961  0.1944
  124OSM    H6F13216   4.637   1.254   6.994  0.1227 -0.3472  0.1275
  124OSM    H6G13217   4.525   1.122   6.975 -0.9765  0.5152  0.4696
  124OSM    C7F13218   4.427   1.318   6.963  0.4051  0.3682 -0.2004
  124OSM    H7F13219   4.343   1.311   6.890  0.2643  0.4505 -0.0475
  124OSM    H7G13220   4.462   1.423   6.967 -0.7455  0.7918 -0.6857
  124OSM    C8F13221   4.356   1.293   7.103 -0.5752 -0.1967 -0.1282
  124OSM    H8F13222   4.317   1.188   7.099 -0.4378 -0.2636  0.2621
  124OSM    H8G13223   4.268   1.360   7.110  0.0749  0.6335  0.1403
  124OSM    C9F13224   4.446   1.311   7.219  0.9058 -0.2417  0.0068
  124OSM    H9F13225   4.550   1.281   7.203  0.8206 -1.1320  0.9364
  124OSM   C10F13226   4.416   1.361   7.341 -0.0866 -0.9028 -0.2256
  124OSM   H10F13227   4.496   1.382   7.414  0.5121 -2.0044 -0.5384
  124OSM   C11F13228   4.278   1.404   7.383  0.4135  0.0251 -1.0469
  124OSM   H11F13229   4.199   1.370   7.312 -0.1809 -0.6471 -0.0747
  124OSM   H11G13230   4.266   1.514   7.392 -3.5368 -0.4156  1.1593
  124OSM   C12F13231   4.234   1.362   7.524  0.2491 -0.2368  0.0918
  124OSM   H12F13232   4.208   1.256   7.541  1.5682 -0.6042 -0.1182
  124OSM   H12G13233   4.139   1.414   7.549  0.8631  0.7490  0.4409
  124OSM   C13F13234   4.327   1.412   7.635  0.0334 -0.2605  0.0963
  124OSM   H13F13235   4.347   1.519   7.613  1.6522 -0.5725 -0.1072
  124OSM   H13G13236   4.422   1.354   7.629  1.4495  1.8246  1.1996
  124OSM   C14F13237   4.271   1.392   7.778  0.5000 -0.1476 -0.1275
  124OSM   H14F13238   4.308   1.295   7.817 -0.3918 -0.1011  0.8556
  124OSM   H14G13239   4.161   1.384   7.787  0.5081  0.8931  1.0290
  124OSM   C15F13240   4.322   1.502   7.874 -0.0774 -0.4651  0.1755
  124OSM   H15F13241   4.258   1.588   7.846 -1.1161 -0.7525  1.5485
  124OSM   H15G13242   4.429   1.527   7.854 -0.6708  1.2420 -1.1164
  124OSM   C16F13243   4.292   1.468   8.023  0.2915  0.5607  0.5704
  124OSM   H16F13244   4.351   1.378   8.051  1.2818  0.1348 -2.5471
  124OSM   H16G13245   4.185   1.439   8.028  0.9516 -2.2587  0.1282
  124OSM   C17F13246   4.319   1.575   8.123 -1.0986 -0.6270 -0.4581
  124OSM   H17F13247   4.240   1.651   8.102  1.9695  2.2606 -2.6488
  124OSM   H17G13248   4.418   1.610   8.088  0.5280 -5.1375 -0.9416
  124OSM   C18F13249   4.314   1.536   8.274 -0.5948  0.0583  0.1778
  124OSM   H18F13250   4.314   1.620   8.346  0.0491  0.9391 -0.8240
  124OSM   H18G13251   4.395   1.461   8.287 -0.1355  0.6137  0.5403
  124OSM   H18H13252   4.229   1.466   8.288  1.9194 -2.9821  1.3294
  125OSM      N13253   1.384   0.473   6.194  0.0057  0.7452 -0.3663
  125OSM    C1513254   1.467   0.453   6.317 -0.0079 -0.2063 -0.0248
  125OSM   H15A13255   1.469   0.544   6.375  3.3905 -1.1010  1.4860
  125OSM   H15B13256   1.571   0.428   6.306 -0.4267 -1.8083 -0.6645
  125OSM   H15C13257   1.412   0.381   6.376 -1.7391  1.2039  0.1874
  125OSM    C1413258   1.255   0.538   6.242 -0.2335 -0.1994 -0.4154
  125OSM   H14A13259   1.284   0.639   6.266  1.1428 -0.6895  0.0933
  125OSM   H14B13260   1.192   0.497   6.319 -2.4390  0.8956 -1.5443
  125OSM   H14C13261   1.189   0.541   6.157 -2.1446 -0.5189  1.0000
  125OSM    C1313262   1.444   0.560   6.093 -0.3921  0.7351 -0.4035
  125OSM   H13A13263   1.542   0.521   6.067 -0.6757 -0.8955  0.8904
  125OSM   H13B13264   1.463   0.662   6.126 -0.2991  0.6567 -0.2142
  125OSM   H13C13265   1.390   0.563   6.000  0.3163 -0.3820 -0.8745
  125OSM    C1213266   1.360   0.340   6.121  0.0694 -0.8405 -0.4680
  125OSM   H12A13267   1.452   0.301   6.079 -0.2598 -2.7604  0.4698
  125OSM   H12B13268   1.296   0.355   6.035 -0.4508  0.0198  0.0629
  125OSM    C1113269   1.292   0.230   6.203  0.1534 -0.6117 -0.1271
  125OSM   H11A13270   1.220   0.274   6.275  0.3939  1.6991 -1.1834
  125OSM   H11B13271   1.365   0.177   6.268 -0.2164  0.2561  1.0336
  125OSM      P13272   1.092   0.106   6.063 -0.1408  0.4308  0.0185
  125OSM    O1313273   1.028   0.231   6.016 -0.3362  0.1013  0.6292
  125OSM    O1413274   1.096  -0.013   5.980 -0.2963  0.2577  0.7902
  125OSM    O1113275   1.028   0.063   6.197  0.1064  0.2962 -0.1084
  125OSM    O1213276   1.238   0.139   6.105 -0.2699  0.4731  0.3594
  125OSM    C1S13277   1.054  -0.068   6.253  0.0669  0.5922  0.4232
  125OSM    H1S13278   1.137  -0.126   6.207 -1.2580  1.5312 -3.5098
  125OSM    H1T13279   0.964  -0.132   6.246 -1.0223  2.2007 -1.1136
  125OSM     NF13280   1.092  -0.183   6.464 -0.1003 -0.1116  0.0374
  125OSM    HNF13281   1.015  -0.203   6.524  0.4182  0.2394  0.8235
  125OSM    C2S13282   1.093  -0.055   6.403 -0.9301 -0.5635 -0.3050
  125OSM    H2S13283   1.192  -0.006   6.417 -2.0153  1.2956  1.4482
  125OSM    C3S13284   0.996   0.039   6.483  0.7633 -0.5974  0.0877
  125OSM    H3S13285   0.891   0.015   6.456 -0.1114  1.3941  1.4299
  125OSM     O313286   1.006   0.177   6.457 -0.0802 -0.9027 -0.2806
  125OSM    HO313287   1.047   0.180   6.370 -0.0967  2.1735 -0.2769
  125OSM    C4S13288   1.013   0.036   6.632  0.1311 -0.0118  0.1750
  125OSM    H4S13289   1.120   0.022   6.653  0.7442  1.2356 -1.8514
  125OSM    C5S13290   0.922   0.066   6.728 -0.1484  0.0821 -0.1011
  125OSM    H5S13291   0.827   0.107   6.691 -0.1832  1.0187  0.9865
  125OSM    C6S13292   0.945   0.054   6.874 -0.2215 -0.1170  0.2570
  125OSM    H6S13293   1.029  -0.016   6.893  1.1102  0.4428 -2.9747
  125OSM    H6T13294   0.856   0.030   6.937 -2.7164  1.1735 -2.5268
  125OSM    C7S13295   0.992   0.185   6.938 -0.3422 -0.5369  0.1143
  125OSM    H7S13296   0.906   0.255   6.942 -0.6024 -0.8210 -0.3651
  125OSM    H7T13297   1.077   0.236   6.889 -0.5537  2.2485  2.3939
  125OSM    C8S13298   1.020   0.161   7.094 -0.0177 -0.3381 -0.3487
  125OSM    H8S13299   1.072   0.063   7.101 -0.6965 -0.8321 -1.7008
  125OSM    H8T13300   0.921   0.145   7.141  0.8164 -1.4015  1.1126
  125OSM    C9S13301   1.095   0.281   7.150  0.1738 -0.8453  0.5426
  125OSM    H9S13302   1.086   0.359   7.071  0.4009 -0.9896  0.3722
  125OSM    H9T13303   1.204   0.264   7.161  0.5699 -0.5152 -2.1232
  125OSM   C10S13304   1.048   0.340   7.283 -0.3441  0.9887 -0.0550
  125OSM   H10S13305   1.079   0.274   7.366  2.1323  0.2230 -1.4846
  125OSM   H10T13306   0.938   0.352   7.290 -0.4176 -0.1107  0.9049
  125OSM   C11S13307   1.114   0.472   7.316 -0.4544  0.1079 -0.5743
  125OSM   H11S13308   1.086   0.550   7.242 -1.7180 -0.6170 -0.8924
  125OSM   H11T13309   1.224   0.461   7.313 -0.3540  0.1975  1.7093
  125OSM   C12S13310   1.081   0.525   7.458  0.9155  1.1662  0.3578
  125OSM   H12S13311   0.972   0.514   7.479  0.8069  0.9845 -0.2840
  125OSM   H12T13312   1.095   0.635   7.460 -1.3265  1.5201 -0.0710
  125OSM   C13S13313   1.164   0.451   7.572 -0.7125 -0.1680  0.0817
  125OSM   H13S13314   1.261   0.416   7.531 -0.1192 -1.2882  2.3126
  125OSM   H13T13315   1.113   0.368   7.625 -0.0809  0.0200  0.9953
  125OSM   C14S13316   1.182   0.559   7.673 -0.3077  0.4805 -0.5849
  125OSM   H14S13317   1.081   0.603   7.688 -0.2130  0.0488  1.6413
  125OSM   H14T13318   1.236   0.637   7.616 -0.2060 -1.1654 -2.9033
  125OSM   C15S13319   1.254   0.515   7.800 -0.1134  0.2949  0.3180
  125OSM   H15S13320   1.189   0.443   7.854 -2.2956  0.1866 -2.1977
  125OSM   H15T13321   1.271   0.598   7.872 -0.0229 -0.8994  1.7103
  125OSM   C16S13322   1.388   0.449   7.781 -0.9370 -0.1090  1.0216
  125OSM   H16S13323   1.456   0.510   7.717 -0.3731 -2.2398 -0.4963
  125OSM   H16T13324   1.376   0.353   7.727 -3.3136  0.9587 -0.5344
  125OSM   C17S13325   1.460   0.421   7.913  0.1995  0.4838 -0.4589
  125OSM   H17S13326   1.562   0.384   7.886 -0.2265 -0.5032 -0.7785
  125OSM   H17T13327   1.384   0.349   7.950 -0.8039  0.5255 -2.3347
  125OSM   C18S13328   1.488   0.545   7.998  0.4720 -0.5474  0.1015
  125OSM   H18S13329   1.532   0.627   7.937 -0.8597  0.6057  0.6543
  125OSM   H18T13330   1.564   0.521   8.076  0.9080  0.1102 -0.1099
  125OSM   H18U13331   1.401   0.581   8.056  2.5734  1.7264  2.0760
  125OSM    C1F13332   1.176  -0.277   6.442 -1.1051  0.0134  0.6682
  125OSM     OF13333   1.269  -0.249   6.366  0.5838  0.4491 -0.6044
  125OSM    C2F13334   1.158  -0.412   6.507 -0.4774  0.6183  0.6813
  125OSM    H2F13335   1.251  -0.472   6.510 -0.8563  0.0037  0.3766
  125OSM    H2G13336   1.094  -0.475   6.442 -0.3638  1.1023  0.0872
  125OSM    C3F13337   1.098  -0.413   6.649  0.6625 -0.8006 -0.2650
  125OSM    H3F13338   1.079  -0.522   6.649  0.5873 -0.7877 -0.3175
  125OSM    H3G13339   0.997  -0.366   6.650  0.2530 -1.6126  1.8297
  125OSM    C4F13340   1.187  -0.354   6.759 -0.2992 -0.0251  0.2135
  125OSM    H4F13341   1.212  -0.247   6.740 -1.7993  0.1076 -1.1684
  125OSM    H4G13342   1.283  -0.411   6.764  0.5995  1.5330  2.5425
  125OSM    C5F13343   1.109  -0.352   6.895  0.3503  0.1174 -0.0866
  125OSM    H5F13344   1.084  -0.457   6.920 -1.3864  0.4673 -0.2510
  125OSM    H5G13345   1.018  -0.289   6.889  0.1203 -0.2634 -0.6346
  125OSM    C6F13346   1.199  -0.289   7.007 -0.1915 -0.5094 -0.3102
  125OSM    H6F13347   1.188  -0.180   6.989 -1.7278 -0.3957  1.0887
  125OSM    H6G13348   1.303  -0.327   7.006 -0.4136 -1.1193 -0.7248
  125OSM    C7F13349   1.135  -0.310   7.148 -0.4439 -0.1003 -1.0258
  125OSM    H7F13350   1.160  -0.418   7.161  2.7894  0.8062  1.6339
  125OSM    H7G13351   1.027  -0.287   7.137 -0.2646  1.7032  0.5253
  125OSM    C8F13352   1.207  -0.239   7.263 -0.7540 -0.8984 -0.0865
  125OSM    H8F13353   1.231  -0.135   7.233  1.9996 -1.3867  0.1149
  125OSM    H8G13354   1.309  -0.280   7.281 -0.4104 -1.2910 -2.5645
  125OSM    C9F13355   1.137  -0.245   7.392 -0.1278  0.4689 -0.1694
  125OSM    H9F13356   1.043  -0.301   7.387  0.4631 -0.7542  1.1852
  125OSM   C10F13357   1.190  -0.201   7.511  0.2082 -0.1415  0.4691
  125OSM   H10F13358   1.128  -0.222   7.600 -0.5662  0.1075  0.0061
  125OSM   C11F13359   1.323  -0.137   7.544 -0.3694  0.1381  0.4339
  125OSM   H11F13360   1.368  -0.083   7.458  0.0854 -0.0853  0.5273
  125OSM   H11G13361   1.396  -0.214   7.576  0.9677  0.4119 -1.7968
  125OSM   C12F13362   1.314  -0.049   7.668 -0.0606 -0.2206 -0.5336
  125OSM   H12F13363   1.418  -0.011   7.676 -0.4144  0.3441  3.1574
  125OSM   H12G13364   1.307  -0.110   7.761  1.9194 -0.7503 -0.6925
  125OSM   C13F13365   1.208   0.060   7.680  0.6879  0.9831  0.0880
  125OSM   H13F13366   1.106   0.017   7.685  0.9222  0.5296  1.2513
  125OSM   H13G13367   1.218   0.128   7.593  2.5024  1.6255  0.7494
  125OSM   C14F13368   1.218   0.146   7.810 -0.7104  0.8865 -0.5189
  125OSM   H14F13369   1.149   0.231   7.792 -1.4537  0.0594 -1.7230
  125OSM   H14G13370   1.317   0.192   7.832 -0.3434  1.3068 -2.8447
  125OSM   C15F13371   1.162   0.070   7.930  0.3096 -0.1325 -1.0520
  125OSM   H15F13372   1.225  -0.018   7.956 -1.2592 -0.7257  1.0437
  125OSM   H15G13373   1.067   0.019   7.903 -0.1800 -1.5178  2.6412
  125OSM   C16F13374   1.138   0.161   8.053  0.0928  0.5475  0.9221
  125OSM   H16F13375   1.066   0.239   8.019 -0.1485 -1.2654 -3.3056
  125OSM   H16G13376   1.233   0.215   8.075 -0.1287  1.7049 -0.7998
  125OSM   C17F13377   1.080   0.084   8.170 -0.3789 -0.0649 -0.8469
  125OSM   H17F13378   0.992   0.030   8.129  0.0043  0.7654 -2.8959
  125OSM   H17G13379   1.034   0.153   8.245 -1.4939 -2.1258  0.4548
  125OSM   C18F13380   1.170  -0.016   8.245  0.1487 -0.3913 -0.2687
  125OSM   H18F13381   1.115  -0.047   8.337 -0.9518  1.9989 -0.0454
  125OSM   H18G13382   1.270   0.023   8.276 -0.2349 -0.4503  1.1330
  125OSM   H18H13383   1.198  -0.097   8.175 -0.6947 -0.6239 -0.3463
  126OSM      N13384   5.076   4.719   6.118  0.4323 -0.1155  0.1540
  126OSM    C1513385   5.194   4.809   6.103 -0.4305 -0.6353 -0.7442
  126OSM   H15A13386   5.204   4.868   6.193 -0.4684  2.7802 -2.7864
  126OSM   H15B13387   5.172   4.875   6.020 -2.0545 -0.1446  0.0297
  126OSM   H15C13388   5.289   4.761   6.085 -0.7996 -1.7926  0.2395
  126OSM    C1413389   5.077   4.626   5.999 -0.1191  0.1354 -0.0119
  126OSM   H14A13390   5.172   4.575   5.999 -0.7035 -1.0922  2.1738
  126OSM   H14B13391   5.072   4.671   5.901  0.4579 -0.6512 -0.4184
  126OSM   H14C13392   5.004   4.548   6.013  0.7596 -0.9682 -1.2616
  126OSM    C1313393   5.095   4.641   6.241 -0.0242 -0.0660 -0.1115
  126OSM   H13A13394   5.188   4.587   6.237  0.7590  1.2257  0.1130
  126OSM   H13B13395   5.020   4.564   6.257 -2.2389  2.2731  1.4823
  126OSM   H13C13396   5.107   4.702   6.329 -2.3251 -1.8028  1.5466
  126OSM    C1213397   4.944   4.794   6.111  0.2447 -0.8541  0.1198
  126OSM   H12A13398   4.933   4.836   6.012  0.3343 -0.0667  0.4368
  126OSM   H12B13399   4.951   4.886   6.168 -1.9898  0.6727 -1.8367
  126OSM    C1113400   4.810   4.718   6.146 -0.1667 -0.0623 -0.0787
  126OSM   H11A13401   4.802   4.626   6.083 -0.4159 -0.5691  0.6853
  126OSM   H11B13402   4.732   4.791   6.117 -1.4515 -1.1189  0.6151
  126OSM      P13403   4.669   4.611   6.344  0.3493  0.2187 -0.0560
  126OSM    O1313404   4.613   4.674   6.464 -0.2409 -0.2039 -0.1000
  126OSM    O1413405   4.571   4.584   6.238  0.3266  0.4255  0.4189
  126OSM    O1113406   4.714   4.464   6.380  0.1191  0.0316 -0.4595
  126OSM    O1213407   4.795   4.692   6.289  0.5016 -0.7054 -0.0490
  126OSM    C1S13408   4.811   4.441   6.483 -0.3977  0.1080  0.9636
  126OSM    H1S13409   4.865   4.534   6.511  0.3271  0.2635 -0.8470
  126OSM    H1T13410   4.894   4.378   6.444 -0.2191  1.4977 -1.0862
  126OSM     NF13411   4.868   4.368   6.704  0.2517  0.0171 -0.4516
  126OSM    HNF13412   4.929   4.289   6.696  1.4932  1.1168 -2.8867
  126OSM    C2S13413   4.761   4.376   6.613  0.5201 -0.0725 -0.8017
  126OSM    H2S13414   4.681   4.447   6.644  0.3373 -0.0958 -1.2211
  126OSM    C3S13415   4.684   4.243   6.581 -0.0773  0.0433  0.3860
  126OSM    H3S13416   4.766   4.175   6.547  0.1848  0.4581  0.1719
  126OSM     O313417   4.591   4.251   6.473 -0.0488  0.7786 -0.1981
  126OSM    HO313418   4.616   4.333   6.429  0.9972 -0.8969 -3.0306
  126OSM    C4S13419   4.625   4.184   6.706 -0.1989 -0.4875 -0.5955
  126OSM    H4S13420   4.700   4.124   6.760  0.8405  0.8791 -0.4723
  126OSM    C5S13421   4.496   4.198   6.747 -0.1260 -0.4941 -0.3604
  126OSM    H5S13422   4.437   4.274   6.695  0.5905 -0.8223 -1.6852
  126OSM    C6S13423   4.447   4.142   6.876  0.0678 -0.3710  0.6762
  126OSM    H6S13424   4.519   4.063   6.908 -1.0102 -1.9566 -0.6667
  126OSM    H6T13425   4.349   4.090   6.875 -0.6324  0.8316  2.1006
  126OSM    C7S13426   4.471   4.256   6.976  0.2289 -0.5557 -0.2058
  126OSM    H7S13427   4.415   4.345   6.940  1.1790 -0.1937 -0.8369
  126OSM    H7T13428   4.581   4.273   6.969  0.0743  0.7406  0.2412
  126OSM    C8S13429   4.419   4.205   7.115 -1.2235 -0.7087  0.3658
  126OSM    H8S13430   4.492   4.127   7.147  2.6794  1.4302 -2.3806
  126OSM    H8T13431   4.317   4.163   7.120 -1.9436  0.7627 -0.8891
  126OSM    C9S13432   4.427   4.318   7.224  0.4103  0.4237 -0.1737
  126OSM    H9S13433   4.359   4.400   7.193 -0.8261 -0.8001 -0.7984
  126OSM    H9T13434   4.532   4.354   7.225  1.2113 -1.7350 -0.8040
  126OSM   C10S13435   4.405   4.279   7.369 -0.9619  0.0901  0.0155
  126OSM   H10S13436   4.475   4.199   7.400 -0.9220 -0.3096 -1.0672
  126OSM   H10T13437   4.300   4.244   7.382 -0.9045  0.3159  1.2232
  126OSM   C11S13438   4.426   4.403   7.462  0.2941  0.7039 -0.4482
  126OSM   H11S13439   4.352   4.480   7.430  0.1895  0.1092 -1.7026
  126OSM   H11T13440   4.530   4.441   7.457  1.0312 -1.0683  0.6358
  126OSM   C12S13441   4.401   4.354   7.610  0.4373  0.4473 -0.3877
  126OSM   H12S13442   4.453   4.260   7.640 -1.2439 -0.2325  0.5223
  126OSM   H12T13443   4.292   4.332   7.620  0.9982 -2.5625  0.1057
  126OSM   C13S13444   4.444   4.465   7.700 -0.1068 -0.9543  0.3171
  126OSM   H13S13445   4.434   4.562   7.648 -1.1456 -1.3566 -0.2616
  126OSM   H13T13446   4.552   4.457   7.726 -0.5441  1.6979  3.7686
  126OSM   C14S13447   4.370   4.467   7.833  0.1780 -0.2487  0.7612
  126OSM   H14S13448   4.266   4.500   7.812  0.3076 -0.2857  0.0362
  126OSM   H14T13449   4.418   4.536   7.905 -0.1666 -0.1660  0.9120
  126OSM   C15S13450   4.350   4.330   7.899 -0.8750  0.5351  0.2203
  126OSM   H15S13451   4.454   4.289   7.902 -0.8119  0.6015 -0.7126
  126OSM   H15T13452   4.276   4.267   7.844 -0.9481  0.6951  0.1360
  126OSM   C16S13453   4.309   4.335   8.051  0.8484  0.0432 -0.2240
  126OSM   H16S13454   4.200   4.352   8.064  0.7122 -1.4434  0.8604
  126OSM   H16T13455   4.362   4.420   8.101  1.5911 -1.4671  1.6962
  126OSM   C17S13456   4.360   4.216   8.127  1.0334  0.1517  0.1729
  126OSM   H17S13457   4.470   4.204   8.132  1.1632  0.5342 -1.3058
  126OSM   H17T13458   4.321   4.121   8.085 -0.0682  0.8174 -0.3657
  126OSM   C18S13459   4.313   4.228   8.271  0.5995 -0.6687 -0.1449
  126OSM   H18S13460   4.298   4.129   8.319  1.3536 -0.0171  1.5342
  126OSM   H18T13461   4.214   4.277   8.280  1.5146  0.9394  2.2808
  126OSM   H18U13462   4.381   4.286   8.338 -1.6588  0.0677  1.6448
  126OSM    C1F13463   4.929   4.478   6.749  0.0627 -0.0536  0.2899
  126OSM     OF13464   4.868   4.582   6.750  0.1572 -0.5410  0.0219
  126OSM    C2F13465   5.068   4.463   6.803 -0.1513  0.3885  1.2094
  126OSM    H2F13466   5.131   4.522   6.735 -0.9485 -0.0890  0.0230
  126OSM    H2G13467   5.088   4.354   6.793 -1.0241  0.3007  0.2420
  126OSM    C3F13468   5.078   4.499   6.946 -0.4269  0.5513  0.0439
  126OSM    H3F13469   5.016   4.438   7.016  0.0485 -1.1290 -0.9627
  126OSM    H3G13470   5.038   4.603   6.955 -1.4357  0.3120 -1.2395
  126OSM    C4F13471   5.222   4.491   6.990  0.0441  0.4061 -0.6650
  126OSM    H4F13472   5.286   4.512   6.902  0.4609 -0.0638 -0.4775
  126OSM    H4G13473   5.250   4.386   7.011 -1.1575  0.2095  0.0696
  126OSM    C5F13474   5.251   4.590   7.105 -0.0089 -0.0999 -0.1620
  126OSM    H5F13475   5.167   4.663   7.104  1.2768  1.5186 -2.7336
  126OSM    H5G13476   5.341   4.654   7.091  0.1251 -0.3690 -0.5367
  126OSM    C6F13477   5.271   4.524   7.237 -1.2016 -0.8684  0.0965
  126OSM    H6F13478   5.298   4.611   7.301 -0.9673  1.6317 -3.1136
  126OSM    H6G13479   5.346   4.442   7.234 -0.7222 -0.3988 -1.3832
  126OSM    C7F13480   5.145   4.453   7.292  0.5578 -0.2235 -0.8746
  126OSM    H7F13481   5.142   4.350   7.250  1.0904 -0.6758  0.1558
  126OSM    H7G13482   5.049   4.503   7.268 -0.2117 -2.5712 -3.1051
  126OSM    C8F13483   5.166   4.442   7.445 -0.1611  0.1048 -0.4500
  126OSM    H8F13484   5.264   4.392   7.463  0.5316  1.3735 -0.5792
  126OSM    H8G13485   5.088   4.376   7.489  1.7565 -1.1011  1.3453
  126OSM    C9F13486   5.148   4.580   7.517  0.1189  0.3643 -0.0746
  126OSM    H9F13487   5.080   4.651   7.466 -0.9390 -0.1201  0.6317
  126OSM   C10F13488   5.198   4.603   7.633  0.0922 -0.5610 -0.0127
  126OSM   H10F13489   5.183   4.703   7.676  2.3025 -0.0184 -0.3540
  126OSM   C11F13490   5.285   4.502   7.708  0.1169  0.1129  0.0351
  126OSM   H11F13491   5.392   4.530   7.712 -0.2989  2.3670 -2.1039
  126OSM   H11G13492   5.278   4.401   7.662 -0.6566 -0.4611  1.3645
  126OSM   C12F13493   5.222   4.496   7.845  0.7297 -0.1620 -0.3632
  126OSM   H12F13494   5.244   4.398   7.894  0.0915  0.3386  0.9714
  126OSM   H12G13495   5.112   4.503   7.833  0.6151 -3.1335 -1.9730
  126OSM   C13F13496   5.259   4.607   7.940 -0.7270 -0.8621 -0.0929
  126OSM   H13F13497   5.267   4.699   7.878  3.7252 -1.8860 -1.3977
  126OSM   H13G13498   5.360   4.603   7.986  0.8061  3.0026 -2.5919
  126OSM   C14F13499   5.154   4.625   8.050  0.0263 -0.6659 -0.0481
  126OSM   H14F13500   5.175   4.547   8.126  2.9917  0.6361  0.5925
  126OSM   H14G13501   5.048   4.620   8.017 -0.8264 -1.6009  2.5745
  126OSM   C15F13502   5.167   4.763   8.121 -0.4685 -0.4857  0.9255
  126OSM   H15F13503   5.069   4.815   8.132 -0.0337  0.3456  0.9395
  126OSM   H15G13504   5.235   4.826   8.061 -0.8497 -2.5057 -1.8243
  126OSM   C16F13505   5.209   4.759   8.266 -0.3984  0.8363  0.4506
  126OSM   H16F13506   5.211   4.862   8.308  0.7328 -0.2323  3.2458
  126OSM   H16G13507   5.310   4.713   8.277 -1.6584 -1.8713  1.3752
  126OSM   C17F13508   5.107   4.698   8.361  0.6833  0.1661  0.2622
  126OSM   H17F13509   5.098   4.589   8.342  0.3843  0.5717 -2.4233
  126OSM   H17G13510   5.003   4.725   8.331  0.7078 -1.5223 -1.5388
  126OSM   C18F13511   5.141   4.735   8.509 -0.5308  0.3361  0.1964
  126OSM   H18F13512   5.245   4.700   8.528 -1.0954 -2.4694 -1.2880
  126OSM   H18G13513   5.080   4.690   8.590  0.6005  0.7033  1.2841
  126OSM   H18H13514   5.142   4.844   8.527 -2.0118  0.4639 -0.3857
  127OSM      N13515   3.093   4.284   5.846 -0.3699  0.0406 -0.4127
  127OSM    C1513516   2.987   4.375   5.880 -0.0381 -0.1642 -0.4692
  127OSM   H15A13517   3.018   4.478   5.868 -1.0583  0.3341  0.8671
  127OSM   H15B13518   2.947   4.360   5.980 -0.5991 -0.6420 -0.7623
  127OSM   H15C13519   2.894   4.359   5.829  0.1391 -4.3693  0.1613
  127OSM    C1413520   3.035   4.149   5.856  0.3200 -0.2244  0.2578
  127OSM   H14A13521   2.947   4.156   5.793  0.4767  0.1828  0.0803
  127OSM   H14B13522   2.999   4.114   5.952 -0.4052 -1.0117 -0.2754
  127OSM   H14C13523   3.102   4.075   5.815 -0.1696 -0.5681  0.0542
  127OSM    C1313524   3.131   4.315   5.699  0.5327  0.2122  0.4580
  127OSM   H13A13525   3.044   4.306   5.636  0.7197  0.5656  0.1429
  127OSM   H13B13526   3.200   4.239   5.665 -0.3352  0.3836 -1.8555
  127OSM   H13C13527   3.187   4.407   5.686  3.1127 -1.4483 -1.3058
  127OSM    C1213528   3.204   4.305   5.945 -0.4640  0.2844  0.0647
  127OSM   H12A13529   3.237   4.407   5.937 -0.7105  0.3059 -0.7824
  127OSM   H12B13530   3.280   4.231   5.923 -0.8011  0.4640 -1.9275
  127OSM    C1113531   3.165   4.286   6.095  0.2805 -0.4911  0.1118
  127OSM   H11A13532   3.082   4.356   6.121  2.6950  3.1897 -1.3220
  127OSM   H11B13533   3.253   4.321   6.153  0.8387  3.9092 -2.9299
  127OSM      P13534   3.237   4.042   6.165 -0.1558  0.0877  0.0089
  127OSM    O1313535   3.180   3.905   6.178  0.3285  0.1263  0.3015
  127OSM    O1413536   3.345   4.067   6.067 -0.0619  0.4455 -0.2345
  127OSM    O1113537   3.280   4.097   6.305 -0.2238 -0.1768  0.3980
  127OSM    O1213538   3.126   4.147   6.131  0.0328  0.2892 -0.5420
  127OSM    C1S13539   3.184   4.099   6.410 -0.2254  0.1933  0.6802
  127OSM    H1S13540   3.179   3.996   6.451  2.1499 -0.3596 -0.2406
  127OSM    H1T13541   3.081   4.131   6.385 -0.1766  0.2444  0.5451
  127OSM     NF13542   3.138   4.132   6.640 -0.5583 -0.4032  0.1477
  127OSM    HNF13543   3.079   4.204   6.676  0.8084  0.7322  0.2041
  127OSM    C2S13544   3.224   4.180   6.535  0.3639 -0.1604  0.2998
  127OSM    H2S13545   3.327   4.157   6.571  0.8293  0.3476 -0.6804
  127OSM    C3S13546   3.216   4.331   6.500  0.7432  0.1255 -0.3401
  127OSM    H3S13547   3.117   4.343   6.450 -0.7272 -2.3128  1.7241
  127OSM     O313548   3.312   4.360   6.393  0.6513  0.2695 -0.0634
  127OSM    HO313549   3.340   4.275   6.357 -1.3212 -0.8315  0.8229
  127OSM    C4S13550   3.234   4.423   6.619 -0.6524  0.1965 -0.4411
  127OSM    H4S13551   3.138   4.473   6.639 -0.4667  0.0648  0.8564
  127OSM    C5S13552   3.336   4.467   6.690 -0.8957  0.3330 -0.5051
  127OSM    H5S13553   3.440   4.446   6.665 -0.2738  3.0800 -0.6133
  127OSM    C6S13554   3.313   4.563   6.802 -0.1154 -0.6470  0.1396
  127OSM    H6S13555   3.211   4.606   6.796 -0.2180 -0.8039  0.6913
  127OSM    H6T13556   3.377   4.648   6.767 -1.1471 -0.4419 -1.3221
  127OSM    C7S13557   3.349   4.501   6.939  0.3377 -0.2820 -0.0513
  127OSM    H7S13558   3.460   4.501   6.949  0.1877 -0.3949  2.0494
  127OSM    H7T13559   3.314   4.396   6.947 -1.0404  0.0338 -1.5764
  127OSM    C8S13560   3.300   4.579   7.068 -0.3292 -0.8603 -0.0834
  127OSM    H8S13561   3.191   4.586   7.049 -0.4644  1.1652  1.1771
  127OSM    H8T13562   3.328   4.686   7.081 -1.9346 -0.1450 -1.9856
  127OSM    C9S13563   3.324   4.495   7.191 -0.3702 -0.0132  0.1107
  127OSM    H9S13564   3.429   4.456   7.188 -0.3045  0.1407  0.3988
  127OSM    H9T13565   3.246   4.417   7.203 -0.6248 -0.4531 -3.2445
  127OSM   C10S13566   3.310   4.572   7.327 -0.2652  0.8901 -1.0667
  127OSM   H10S13567   3.203   4.601   7.331 -0.9391 -1.4665  2.6527
  127OSM   H10T13568   3.371   4.664   7.342 -1.5779  1.7826 -1.0000
  127OSM   C11S13569   3.333   4.477   7.448 -0.9804 -0.2751  0.1616
  127OSM   H11S13570   3.443   4.470   7.459 -0.8982  3.0715  3.1909
  127OSM   H11T13571   3.285   4.381   7.419  0.3337 -1.2628  1.1359
  127OSM   C12S13572   3.290   4.543   7.574 -0.2967 -0.2923 -1.0148
  127OSM   H12S13573   3.179   4.552   7.577 -0.1558  1.5048 -0.2717
  127OSM   H12T13574   3.313   4.651   7.577 -2.4199  0.1847  0.7431
  127OSM   C13S13575   3.351   4.478   7.690 -0.1944 -0.6393  0.0492
  127OSM   H13S13576   3.460   4.471   7.674 -0.3867 -1.0960 -1.1230
  127OSM   H13T13577   3.321   4.372   7.699 -0.4510 -0.4400  2.0329
  127OSM   C14S13578   3.325   4.552   7.828 -1.2226 -0.7479 -0.1430
  127OSM   H14S13579   3.218   4.581   7.829 -0.6659  1.4736  0.4292
  127OSM   H14T13580   3.378   4.649   7.830 -3.9545  0.8376  1.9757
  127OSM   C15S13581   3.374   4.469   7.953  0.5433  0.4697  0.0197
  127OSM   H15S13582   3.469   4.416   7.931 -0.5365 -1.6518  0.1509
  127OSM   H15T13583   3.289   4.398   7.965  0.3964  0.7473  0.6760
  127OSM   C16S13584   3.390   4.557   8.081  0.4909 -0.8952  0.1165
  127OSM   H16S13585   3.296   4.612   8.105  0.4218 -2.0796  2.9554
  127OSM   H16T13586   3.469   4.631   8.058  1.0447 -1.4458  0.2264
  127OSM   C17S13587   3.427   4.478   8.197 -0.4133 -0.3849 -0.6315
  127OSM   H17S13588   3.494   4.397   8.158 -1.4302 -1.1222 -0.8824
  127OSM   H17T13589   3.332   4.431   8.230 -1.7037  1.2905 -1.8142
  127OSM   C18S13590   3.496   4.559   8.301  0.4737  0.3254  0.3480
  127OSM   H18S13591   3.431   4.645   8.328 -0.8523  0.3147 -2.4504
  127OSM   H18T13592   3.595   4.599   8.273  0.8559 -0.8826 -0.0909
  127OSM   H18U13593   3.494   4.495   8.392 -1.1707 -0.5253 -0.2465
  127OSM    C1F13594   3.145   4.004   6.690 -0.0868 -0.3639 -0.2616
  127OSM     OF13595   3.244   3.931   6.660  0.4226 -0.0437  0.3790
  127OSM    C2F13596   3.048   3.954   6.791 -0.1985 -0.0472  0.7683
  127OSM    H2F13597   2.976   3.876   6.756 -0.8823  1.5602 -1.6474
  127OSM    H2G13598   2.985   4.038   6.825  0.2583  1.0959 -1.0572
  127OSM    C3F13599   3.117   3.902   6.915 -0.2741 -0.2497  0.1738
  127OSM    H3F13600   3.186   3.971   6.967  0.9172 -0.2247 -1.3559
  127OSM    H3G13601   3.174   3.812   6.882 -0.1022  0.9175 -3.1327
  127OSM    C4F13602   3.022   3.866   7.028 -0.5669 -0.3803 -0.5646
  127OSM    H4F13603   2.953   3.784   7.000  1.1613 -2.8638  2.0337
  127OSM    H4G13604   2.956   3.953   7.050 -0.0609 -0.3319  0.8268
  127OSM    C5F13605   3.095   3.841   7.157 -0.2185  0.0111  0.0392
  127OSM    H5F13606   3.137   3.930   7.208 -0.0145  0.6043 -1.1320
  127OSM    H5G13607   3.182   3.778   7.127 -0.3724  0.0996 -0.6168
  127OSM    C6F13608   3.022   3.749   7.251 -0.4175 -0.2300 -0.4899
  127OSM    H6F13609   2.977   3.679   7.177  2.1692  1.4960 -4.0303
  127OSM    H6G13610   2.933   3.811   7.279 -0.2332 -0.0170 -0.3746
  127OSM    C7F13611   3.102   3.677   7.361 -0.4103 -0.3115  0.5345
  127OSM    H7F13612   3.184   3.618   7.315  1.1852  0.3180  2.4524
  127OSM    H7G13613   3.025   3.616   7.414  1.2573 -2.4677  0.5893
  127OSM    C8F13614   3.159   3.784   7.452  0.2971  0.7130  0.6361
  127OSM    H8F13615   3.079   3.852   7.490  0.6042  0.3711  1.9289
  127OSM    H8G13616   3.233   3.850   7.402  0.6868  0.2874  0.6520
  127OSM    C9F13617   3.228   3.707   7.568 -0.0106  0.4150  0.7637
  127OSM    H9F13618   3.307   3.639   7.533 -2.0603 -1.3890 -0.6484
  127OSM   C10F13619   3.203   3.730   7.700  0.1872 -0.5629 -0.4077
  127OSM   H10F13620   3.248   3.663   7.775 -1.1203  1.9589  2.8481
  127OSM   C11F13621   3.100   3.825   7.755 -0.4936 -0.3457 -0.0281
  127OSM   H11F13622   3.012   3.842   7.689  0.4687 -1.5661 -1.6956
  127OSM   H11G13623   3.148   3.923   7.776  1.4021 -1.4554  1.1633
  127OSM   C12F13624   3.046   3.765   7.883 -0.5129 -0.0581  0.0011
  127OSM   H12F13625   3.130   3.743   7.952 -0.9265  2.1430  1.2981
  127OSM   H12G13626   2.975   3.681   7.867  1.2108 -1.9766  1.8747
  127OSM   C13F13627   2.968   3.868   7.966  0.4262 -0.3665  0.2278
  127OSM   H13F13628   2.879   3.892   7.905 -1.1532 -1.9517  1.7728
  127OSM   H13G13629   3.017   3.968   7.967 -2.4188  1.1359 -0.0473
  127OSM   C14F13630   2.919   3.826   8.108  0.2746  0.2822  0.0528
  127OSM   H14F13631   2.998   3.794   8.179  0.6205  1.3252  0.1476
  127OSM   H14G13632   2.845   3.745   8.090  0.8640 -0.5515  1.1849
  127OSM   C15F13633   2.825   3.931   8.177  0.3987  0.0561  0.3488
  127OSM   H15F13634   2.731   3.941   8.117  0.5079  1.6637  0.4043
  127OSM   H15G13635   2.889   4.021   8.187  0.3052  0.3380 -1.3422
  127OSM   C16F13636   2.795   3.892   8.322  0.5534 -0.4584  0.4372
  127OSM   H16F13637   2.793   3.985   8.383 -1.4401  0.3660 -0.7869
  127OSM   H16G13638   2.874   3.833   8.373 -0.7323 -2.2974  0.4032
  127OSM   C17F13639   2.669   3.806   8.347  0.5413  0.1697  0.2490
  127OSM   H17F13640   2.679   3.699   8.318 -2.8166 -0.0998 -0.2812
  127OSM   H17G13641   2.578   3.836   8.291 -0.0793 -0.3648  0.9516
  127OSM   C18F13642   2.612   3.801   8.487 -0.6182  0.5434  0.0555
  127OSM   H18F13643   2.518   3.740   8.485  0.3833 -1.0328 -0.6284
  127OSM   H18G13644   2.583   3.897   8.535 -0.4882  0.4961  0.2300
  127OSM   H18H13645   2.688   3.758   8.555 -0.3652  1.2801  0.2357
  128OSM      N13646   2.804   2.329   5.796  0.6471  0.0954 -0.2283
  128OSM    C1513647   2.875   2.333   5.657  0.3389 -0.2309 -0.4531
  128OSM   H15A13648   2.819   2.387   5.581  1.9675  0.3532 -1.2791
  128OSM   H15B13649   2.884   2.233   5.617 -2.1320  0.0081 -1.8613
  128OSM   H15C13650   2.974   2.373   5.673 -0.5820  0.8850  3.3911
  128OSM    C1413651   2.692   2.235   5.784 -0.6123 -0.0956  0.1241
  128OSM   H14A13652   2.717   2.136   5.751  0.8783 -0.3440  1.8743
  128OSM   H14B13653   2.624   2.284   5.715 -0.6470 -0.1141  0.1452
  128OSM   H14C13654   2.642   2.230   5.880  0.7174 -1.4303  0.7735
  128OSM    C1313655   2.908   2.269   5.890  1.2748 -0.0136 -0.1167
  128OSM   H13A13656   2.984   2.345   5.903 -0.3712  1.1645  3.9815
  128OSM   H13B13657   2.950   2.174   5.862  2.2128 -0.1701  1.6973
  128OSM   H13C13658   2.853   2.258   5.982  1.6791 -3.1430 -0.1411
  128OSM    C1213659   2.747   2.465   5.828  0.1632 -0.1935 -0.0262
  128OSM   H12A13660   2.684   2.483   5.742 -0.5743 -1.0020  0.3296
  128OSM   H12B13661   2.827   2.535   5.847 -1.5451  0.8863  4.7735
  128OSM    C1113662   2.666   2.472   5.954  0.3583 -0.3485 -0.0934
  128OSM   H11A13663   2.724   2.415   6.031 -0.3863 -0.0740  0.6877
  128OSM   H11B13664   2.573   2.415   5.935  0.9482 -1.6325  0.6768
  128OSM      P13665   2.541   2.646   6.093 -0.2858 -0.6590 -0.2126
  128OSM    O1313666   2.533   2.795   6.109 -0.3100  0.7309  0.5667
  128OSM    O1413667   2.414   2.584   6.054  0.4228  0.8792  0.1113
  128OSM    O1113668   2.584   2.577   6.232  0.4300  0.5277  0.0411
  128OSM    O1213669   2.649   2.613   5.979  0.3722 -0.9714 -0.1546
  128OSM    C1S13670   2.714   2.604   6.291 -0.4364 -0.6131  0.2775
  128OSM    H1S13671   2.750   2.703   6.259 -2.6055  0.3493  0.6001
  128OSM    H1T13672   2.787   2.527   6.258  1.3840  1.2149 -0.0794
  128OSM     NF13673   2.833   2.646   6.511  0.5947  0.1969  0.6141
  128OSM    HNF13674   2.901   2.573   6.516 -0.4624 -1.1245 -2.1384
  128OSM    C2S13675   2.712   2.607   6.451  1.0310  0.0863  0.0330
  128OSM    H2S13676   2.634   2.678   6.485  0.0735 -0.3454 -1.1859
  128OSM    C3S13677   2.659   2.462   6.496 -0.4505 -0.4412  0.1769
  128OSM    H3S13678   2.717   2.372   6.468 -0.0939 -0.3506  0.6084
  128OSM     O313679   2.529   2.437   6.455  0.1784  0.2127  0.4468
  128OSM    HO313680   2.547   2.442   6.360  3.0719 -1.2784  0.8097
  128OSM    C4S13681   2.650   2.465   6.646 -0.0250 -0.5671 -0.6320
  128OSM    H4S13682   2.605   2.552   6.697  1.7056 -0.8554  1.5748
  128OSM    C5S13683   2.722   2.384   6.728 -0.2222  0.3863 -0.1593
  128OSM    H5S13684   2.794   2.315   6.682  1.6932  2.1845 -0.0278
  128OSM    C6S13685   2.734   2.386   6.880  0.2310 -0.0674  0.8796
  128OSM    H6S13686   2.842   2.393   6.904  0.5700  0.9667 -0.8129
  128OSM    H6T13687   2.709   2.280   6.902  1.5252 -1.1619 -2.2822
  128OSM    C7S13688   2.658   2.498   6.952 -0.8326  0.3051 -0.3117
  128OSM    H7S13689   2.550   2.506   6.929 -0.6584  0.3686 -1.1388
  128OSM    H7T13690   2.698   2.600   6.930  0.7759 -0.2169  0.0166
  128OSM    C8S13691   2.698   2.485   7.097 -0.5124 -0.6873  0.4571
  128OSM    H8S13692   2.802   2.520   7.114 -0.5474 -1.5705  2.7934
  128OSM    H8T13693   2.686   2.385   7.143 -0.5949 -0.0915  1.7608
  128OSM    C9S13694   2.615   2.583   7.180  0.1045 -0.8517 -0.4719
  128OSM    H9S13695   2.510   2.548   7.183 -0.0295 -0.3817  1.4305
  128OSM    H9T13696   2.613   2.676   7.119 -0.0346 -1.3972 -1.3243
  128OSM   C10S13697   2.672   2.591   7.325  0.2039  0.1216 -0.1236
  128OSM   H10S13698   2.757   2.663   7.327  0.7310 -0.4515 -1.2181
  128OSM   H10T13699   2.715   2.498   7.369  0.4505  0.8511  1.2433
  128OSM   C11S13700   2.567   2.641   7.428  0.1658 -0.5923  0.5756
  128OSM   H11S13701   2.487   2.564   7.433 -2.2775  1.6601 -1.0736
  128OSM   H11T13702   2.510   2.726   7.384  1.3048 -0.5960 -0.9868
  128OSM   C12S13703   2.623   2.667   7.567  0.5209 -0.5377  0.3232
  128OSM   H12S13704   2.675   2.576   7.604 -1.2633 -0.5034  3.1434
  128OSM   H12T13705   2.546   2.677   7.646  0.8259  1.9097  0.3882
  128OSM   C13S13706   2.716   2.793   7.594  0.5894  0.0111  0.8547
  128OSM   H13S13707   2.663   2.890   7.592  1.3182  0.4491  1.9437
  128OSM   H13T13708   2.799   2.794   7.519 -0.8321  1.4690 -0.7994
  128OSM   C14S13709   2.783   2.798   7.735 -0.4493 -0.0062 -0.5376
  128OSM   H14S13710   2.847   2.708   7.749 -0.6053  0.0614  0.6861
  128OSM   H14T13711   2.705   2.804   7.814 -0.5234 -0.1289 -0.6006
  128OSM   C15S13712   2.879   2.918   7.738  0.1891 -0.1137  0.6616
  128OSM   H15S13713   2.824   3.009   7.703  0.1298 -0.5569 -0.4048
  128OSM   H15T13714   2.954   2.881   7.666 -0.9357 -1.8612  0.3401
  128OSM   C16S13715   2.954   2.946   7.868 -0.5106 -0.3086 -0.4725
  128OSM   H16S13716   3.041   3.015   7.854 -0.6239  0.2103  1.1645
  128OSM   H16T13717   2.985   2.852   7.918  0.6752 -0.0283 -0.6437
  128OSM   C17S13718   2.859   3.001   7.980 -0.0292  0.5043  0.3279
  128OSM   H17S13719   2.764   2.944   7.974 -0.4759  1.3670 -1.4556
  128OSM   H17T13720   2.832   3.105   7.953 -0.1863  0.3274 -0.1949
  128OSM   C18S13721   2.915   2.997   8.123  0.8337  0.2345 -0.4709
  128OSM   H18S13722   2.847   3.042   8.199  1.3956 -1.5395  1.1674
  128OSM   H18T13723   3.009   3.056   8.127 -0.5452  2.5604 -0.9357
  128OSM   H18U13724   2.939   2.896   8.163  1.3839  0.2724 -0.6927
  128OSM    C1F13725   2.865   2.775   6.515 -0.3903  0.6234 -0.0145
  128OSM     OF13726   2.794   2.862   6.464 -0.1505 -0.6291  0.2944
  128OSM    C2F13727   2.999   2.809   6.583  0.4124  0.7150  0.9566
  128OSM    H2F13728   3.018   2.918   6.570  0.6817  0.8102  2.0430
  128OSM    H2G13729   3.073   2.749   6.527 -1.5606 -0.5922 -0.4019
  128OSM    C3F13730   2.999   2.766   6.734  0.2288  0.1950 -0.1355
  128OSM    H3F13731   3.096   2.802   6.774 -0.4286 -0.6903  2.5215
  128OSM    H3G13732   3.000   2.657   6.754 -2.3490  0.0599 -0.4376
  128OSM    C4F13733   2.895   2.837   6.818 -0.5232  0.7632  0.5319
  128OSM    H4F13734   2.792   2.802   6.795  0.3703 -2.0036  0.4811
  128OSM    H4G13735   2.901   2.942   6.780  0.5576  1.1101  1.6217
  128OSM    C5F13736   2.920   2.825   6.966 -0.0911  0.2916  0.5902
  128OSM    H5F13737   2.920   2.720   7.003 -3.4377 -0.1904 -0.4103
  128OSM    H5G13738   2.824   2.863   7.007 -1.8198 -0.8997 -2.1156
  128OSM    C6F13739   3.036   2.907   7.026 -0.1770  0.6792 -0.2249
  128OSM    H6F13740   3.028   3.014   6.998 -0.8403  0.5625 -0.5003
  128OSM    H6G13741   3.131   2.878   6.976 -1.7628 -0.7334 -2.5769
  128OSM    C7F13742   3.058   2.884   7.178  0.4043  0.2103 -0.6097
  128OSM    H7F13743   3.159   2.912   7.213  0.1991 -1.5010  1.5659
  128OSM    H7G13744   3.044   2.774   7.189  0.2019  0.2377 -0.5859
  128OSM    C8F13745   2.949   2.962   7.265  0.0043  0.6966 -0.2553
  128OSM    H8F13746   2.988   2.946   7.368  1.3595  1.4051 -0.6398
  128OSM    H8G13747   2.846   2.920   7.259  0.4219 -1.0290  2.6430
  128OSM    C9F13748   2.938   3.107   7.245  0.2276  0.6675  0.7001
  128OSM    H9F13749   2.874   3.131   7.158 -0.9571 -1.2085  0.9988
  128OSM   C10F13750   2.991   3.207   7.318  0.3887  0.0236  0.8212
  128OSM   H10F13751   2.965   3.307   7.281 -0.7458 -0.9960 -1.3450
  128OSM   C11F13752   3.068   3.194   7.445 -0.8468  0.1451 -0.0312
  128OSM   H11F13753   3.168   3.241   7.430 -1.1981  0.2255 -2.6291
  128OSM   H11G13754   3.092   3.088   7.470 -1.6995  0.3157  1.6568
  128OSM   C12F13755   3.005   3.252   7.567  0.0141 -0.0905 -0.0381
  128OSM   H12F13756   3.067   3.217   7.652 -0.7244 -0.5830  0.3063
  128OSM   H12G13757   2.905   3.204   7.572  0.4588 -0.9468  1.3195
  128OSM   C13F13758   2.987   3.404   7.572 -0.3655  0.2576  0.1736
  128OSM   H13F13759   2.970   3.430   7.465 -1.3905  0.3424  0.3450
  128OSM   H13G13760   3.085   3.446   7.603  0.4110 -1.2463 -0.1872
  128OSM   C14F13761   2.872   3.435   7.655 -0.4450 -0.1832  1.0126
  128OSM   H14F13762   2.781   3.389   7.609  0.1978  2.2206 -3.1661
  128OSM   H14G13763   2.862   3.545   7.645 -3.0430 -0.3044  1.4138
  128OSM   C15F13764   2.871   3.387   7.799 -0.7251  0.0292 -0.5711
  128OSM   H15F13765   2.966   3.413   7.851 -0.3333 -1.2114 -0.6313
  128OSM   H15G13766   2.865   3.277   7.814  2.2843  0.0029  1.3196
  128OSM   C16F13767   2.760   3.458   7.876  0.4661 -0.1867 -0.3327
  128OSM   H16F13768   2.658   3.431   7.839  0.2416 -1.7868  1.3416
  128OSM   H16G13769   2.774   3.567   7.859  2.6564 -0.7100 -2.5280
  128OSM   C17F13770   2.764   3.423   8.029 -0.4936  0.6378  0.2304
  128OSM   H17F13771   2.871   3.447   8.049  0.4269  0.1480 -3.3091
  128OSM   H17G13772   2.756   3.312   8.035  0.8042  0.3585 -2.0606
  128OSM   C18F13773   2.670   3.491   8.128 -0.0166  0.2908 -0.3508
  128OSM   H18F13774   2.674   3.601   8.113 -0.9811  0.2807 -0.7366
  128OSM   H18G13775   2.690   3.464   8.234  1.4031  2.5814  0.0330
  128OSM   H18H13776   2.567   3.456   8.105 -0.3208 -0.1826  1.5657
  129OSM      N13777   1.371   4.037   6.095  0.7203 -0.1991  0.4824
  129OSM    C1513778   1.468   3.981   5.999  0.5820 -0.0840 -0.3631
  129OSM   H15A13779   1.473   4.021   5.899  0.0739 -3.5750 -1.9410
  129OSM   H15B13780   1.453   3.876   5.979  0.4085 -0.2030  0.3939
  129OSM   H15C13781   1.571   3.990   6.033  0.3558 -0.1821  0.3631
  129OSM    C1413782   1.342   3.960   6.225 -0.1797 -0.4416  0.7212
  129OSM   H14A13783   1.273   4.019   6.285  0.7706  0.3312  1.0833
  129OSM   H14B13784   1.434   3.941   6.278  2.1767  0.3952 -2.7623
  129OSM   H14C13785   1.285   3.870   6.210 -2.2685  1.0126 -0.6483
  129OSM    C1313786   1.417   4.175   6.127 -0.3710 -0.0502  0.5322
  129OSM   H13A13787   1.506   4.164   6.187 -0.9018  0.6352  1.4689
  129OSM   H13B13788   1.348   4.235   6.185  0.9183  0.4478  1.5773
  129OSM   H13C13789   1.441   4.227   6.035  1.3378  0.6008  1.3079
  129OSM    C1213790   1.236   4.047   6.015 -0.3134  0.5640  0.5342
  129OSM   H12A13791   1.162   4.090   6.081 -1.8307 -0.0286 -0.7110
  129OSM   H12B13792   1.208   3.947   5.986 -1.1979  0.8202  0.4618
  129OSM    C1113793   1.240   4.135   5.883 -0.4910  0.3985 -0.0690
  129OSM   H11A13794   1.306   4.083   5.811 -0.3125 -0.3556  0.6120
  129OSM   H11B13795   1.293   4.232   5.892  2.0709 -0.9688  0.5585
  129OSM      P13796   1.020   4.268   5.880  0.4493  0.1323  0.4765
  129OSM    O1313797   1.034   4.386   5.797  0.8126 -0.0049  0.1525
  129OSM    O1413798   0.882   4.209   5.891  0.6104  0.0585 -0.2636
  129OSM    O1113799   1.072   4.296   6.023  0.2682 -0.0251 -0.0836
  129OSM    O1213800   1.114   4.156   5.817 -0.1179  0.0023  0.3809
  129OSM    C1S13801   0.988   4.290   6.135  0.7171 -0.0008 -0.4267
  129OSM    H1S13802   0.924   4.199   6.135 -1.2623  1.2496  2.1823
  129OSM    H1T13803   0.922   4.379   6.141  2.1297  1.0115  4.8344
  129OSM     NF13804   1.010   4.221   6.371  0.4191 -0.1903 -0.0144
  129OSM    HNF13805   0.939   4.271   6.419  0.5211  0.7953 -0.8609
  129OSM    C2S13806   1.076   4.287   6.261 -0.0076  0.1125  0.4018
  129OSM    H2S13807   1.173   4.236   6.240  1.0410  2.6165 -1.4031
  129OSM    C3S13808   1.108   4.437   6.290 -0.4491 -0.2272 -0.1416
  129OSM    H3S13809   1.005   4.480   6.291 -0.8784 -1.2300  0.4532
  129OSM     O313810   1.199   4.490   6.188  0.6717 -0.0595 -0.2255
  129OSM    HO313811   1.183   4.429   6.115 -0.2639 -0.9238  0.6547
  129OSM    C4S13812   1.174   4.464   6.425  0.3838  0.5285  0.2173
  129OSM    H4S13813   1.104   4.503   6.500  0.1973 -0.1689  0.4157
  129OSM    C5S13814   1.299   4.447   6.454  0.0549  0.0405 -0.9791
  129OSM    H5S13815   1.364   4.396   6.381 -0.2618 -3.3444  0.8933
  129OSM    C6S13816   1.361   4.482   6.590  0.2734  0.8850  0.1797
  129OSM    H6S13817   1.448   4.549   6.577  1.7509 -1.1560 -1.0762
  129OSM    H6T13818   1.402   4.384   6.621  0.2523  0.3834 -1.2883
  129OSM    C7S13819   1.269   4.538   6.694  0.1946  0.2418 -0.1246
  129OSM    H7S13820   1.179   4.475   6.708  0.4189 -0.2722 -0.9132
  129OSM    H7T13821   1.244   4.645   6.680 -1.4562  0.2238  2.1291
  129OSM    C8S13822   1.341   4.548   6.833 -0.7858 -0.1184  0.3406
  129OSM    H8S13823   1.427   4.617   6.819  0.3039 -1.5071  0.0077
  129OSM    H8T13824   1.387   4.449   6.854 -0.4737  0.2368  1.3717
  129OSM    C9S13825   1.250   4.587   6.951 -0.2832 -0.1254  0.0334
  129OSM    H9S13826   1.173   4.508   6.964 -1.5824  0.2269 -4.2654
  129OSM    H9T13827   1.193   4.679   6.928 -0.2823 -0.1223  0.0444
  129OSM   C10S13828   1.334   4.608   7.072 -0.2823  0.5617 -0.5751
  129OSM   H10S13829   1.425   4.668   7.051  1.0598 -1.4124 -0.6442
  129OSM   H10T13830   1.358   4.506   7.108 -1.7042  0.4658  0.1705
  129OSM   C11S13831   1.257   4.669   7.188 -0.4956  0.5535  0.6779
  129OSM   H11S13832   1.160   4.624   7.218 -1.1287  2.2104  1.2402
  129OSM   H11T13833   1.233   4.775   7.164 -1.3973  0.1494 -0.2820
  129OSM   C12S13834   1.334   4.684   7.317 -0.6058  0.2740  0.2989
  129OSM   H12S13835   1.425   4.745   7.299 -0.0998 -0.2758  0.9513
  129OSM   H12T13836   1.373   4.587   7.355  2.1095  0.7117 -1.1374
  129OSM   C13S13837   1.243   4.742   7.427  0.6835 -1.2783 -0.4032
  129OSM   H13S13838   1.165   4.679   7.475 -0.4825  1.0894  0.9717
  129OSM   H13T13839   1.186   4.813   7.364  2.5353 -0.0805 -0.8013
  129OSM   C14S13840   1.328   4.792   7.544  0.4371  0.0413 -0.1977
  129OSM   H14S13841   1.411   4.843   7.492 -0.4948  0.0805 -1.7103
  129OSM   H14T13842   1.366   4.702   7.597 -2.3374  0.1586  2.2408
  129OSM   C15S13843   1.249   4.874   7.638  0.9072 -0.3822  0.7421
  129OSM   H15S13844   1.213   4.969   7.593  3.5397  0.9737  1.3264
  129OSM   H15T13845   1.312   4.895   7.727  0.0876 -0.0279  1.2516
  129OSM   C16S13846   1.124   4.804   7.693 -0.0421 -0.9451 -0.8438
  129OSM   H16S13847   1.155   4.701   7.721 -0.6309 -0.7094  0.7306
  129OSM   H16T13848   1.043   4.802   7.616 -3.0441 -0.9772  2.0924
  129OSM   C17S13849   1.055   4.867   7.818  0.1370  0.0188  0.2087
  129OSM   H17S13850   1.121   4.848   7.905 -1.1947  0.8902  1.4492
  129OSM   H17T13851   0.968   4.799   7.828 -1.5836  2.2483  1.1465
  129OSM   C18S13852   1.021   5.018   7.802 -0.5000 -0.0224  0.3573
  129OSM   H18S13853   1.115   5.078   7.795  1.3479 -2.5479  1.6197
  129OSM   H18T13854   0.974   5.052   7.897  1.6134 -0.6745  1.7100
  129OSM   H18U13855   0.952   5.048   7.720 -0.5467 -1.2213 -0.0558
  129OSM    C1F13856   1.006   4.091   6.376  0.5354  0.3756  0.6055
  129OSM     OF13857   1.068   4.018   6.301  0.2555  0.0041  0.4709
  129OSM    C2F13858   0.911   4.030   6.475  0.1070  0.3933  0.7101
  129OSM    H2F13859   0.812   4.075   6.449  1.4813  1.7599 -2.7287
  129OSM    H2G13860   0.959   4.060   6.571  0.1571  1.9227  0.2376
  129OSM    C3F13861   0.911   3.875   6.456  0.4274  0.2561 -0.4566
  129OSM    H3F13862   1.013   3.833   6.461  0.3628  0.2542  1.1125
  129OSM    H3G13863   0.863   3.857   6.357  0.6782 -1.9889 -0.2166
  129OSM    C4F13864   0.821   3.798   6.558  0.5194  0.1068 -0.0471
  129OSM    H4F13865   0.788   3.699   6.519  0.3725 -0.5347  1.6197
  129OSM    H4G13866   0.732   3.863   6.566 -0.1745 -0.9540  1.2650
  129OSM    C5F13867   0.900   3.760   6.683 -0.6759 -0.0390 -0.2506
  129OSM    H5F13868   0.907   3.850   6.749  0.1325 -1.3153  1.4768
  129OSM    H5G13869   1.001   3.738   6.643 -1.5482 -0.3475 -2.3831
  129OSM    C6F13870   0.840   3.651   6.765  0.1999 -0.5040 -0.7561
  129OSM    H6F13871   0.834   3.554   6.712  1.2515 -0.3439 -1.2013
  129OSM    H6G13872   0.736   3.669   6.800  0.5331  1.3446 -0.6086
  129OSM    C7F13873   0.921   3.626   6.897 -0.9073 -0.2497 -0.0141
  129OSM    H7F13874   1.021   3.611   6.852 -0.2723  2.2841  0.3809
  129OSM    H7G13875   0.886   3.537   6.952 -1.0623 -0.7877 -0.9634
  129OSM    C8F13876   0.922   3.748   6.992  0.3044 -0.0136 -0.1395
  129OSM    H8F13877   0.818   3.754   7.032  0.2743 -3.7561  0.7767
  129OSM    H8G13878   0.939   3.847   6.946  0.3308  0.6079  1.1694
  129OSM    C9F13879   1.016   3.721   7.105 -0.1108 -0.6185  0.1776
  129OSM    H9F13880   1.120   3.756   7.093 -0.8910  2.3814  1.2136
  129OSM   C10F13881   0.981   3.674   7.223 -0.4328  0.1849 -0.4740
  129OSM   H10F13882   1.063   3.659   7.295 -0.9666  1.8713  0.5440
  129OSM   C11F13883   0.842   3.628   7.263 -0.3064 -0.0449  0.1358
  129OSM   H11F13884   0.756   3.647   7.195  0.4674  0.5498 -0.7000
  129OSM   H11G13885   0.807   3.680   7.355  1.3543  2.6216 -0.6184
  129OSM   C12F13886   0.851   3.476   7.294  0.6159 -0.4191 -0.1854
  129OSM   H12F13887   0.931   3.438   7.361 -0.3643 -0.7856  0.7999
  129OSM   H12G13888   0.858   3.414   7.202  1.0507 -1.0772  0.2814
  129OSM   C13F13889   0.722   3.433   7.359  0.3721 -0.4458  0.6318
  129OSM   H13F13890   0.636   3.447   7.291  2.0678  0.6419 -1.3976
  129OSM   H13G13891   0.694   3.493   7.449 -1.4626 -0.4069  0.0605
  129OSM   C14F13892   0.717   3.286   7.402 -0.0667  0.1300 -0.5015
  129OSM   H14F13893   0.804   3.267   7.469  1.3716  1.4116 -1.9412
  129OSM   H14G13894   0.726   3.229   7.307  2.3847  1.2275 -0.9945
  129OSM   C15F13895   0.588   3.244   7.481 -0.1084 -0.6381 -0.9573
  129OSM   H15F13896   0.566   3.136   7.466 -1.4859 -0.2206 -2.2252
  129OSM   H15G13897   0.501   3.297   7.435 -0.3257 -0.5724 -0.4776
  129OSM   C16F13898   0.605   3.262   7.630  0.4649  0.0200  0.0688
  129OSM   H16F13899   0.627   3.368   7.653  0.4779  0.3195 -1.2685
  129OSM   H16G13900   0.697   3.205   7.656  0.3353 -0.7586 -1.1186
  129OSM   C17F13901   0.491   3.202   7.718  0.1813 -0.1250  0.2397
  129OSM   H17F13902   0.452   3.109   7.671 -0.0744  0.4022 -0.6218
  129OSM   H17G13903   0.408   3.274   7.701 -2.9818 -3.6352 -0.5185
  129OSM   C18F13904   0.540   3.185   7.862 -0.1119 -0.1806 -0.2330
  129OSM   H18F13905   0.626   3.116   7.877  0.2231 -0.0021 -1.2159
  129OSM   H18G13906   0.455   3.151   7.924  1.1275  1.1086  2.3429
  129OSM   H18H13907   0.578   3.285   7.892  0.8328 -0.4829 -0.3834
  130OSM      N13908   0.385   0.721   6.046  0.0829  1.2043  0.3788
  130OSM    C1513909   0.330   0.652   6.163  0.9398  0.5258 -0.0677
  130OSM   H15A13910   0.365   0.704   6.251 -1.7641  2.2593  0.1128
  130OSM   H15B13911   0.355   0.547   6.169 -0.8709  0.1365  2.2323
  130OSM   H15C13912   0.222   0.652   6.160  0.9463 -0.7308 -1.2359
  130OSM    C1413913   0.532   0.700   6.048 -0.4077  0.4495  0.2837
  130OSM   H14A13914   0.573   0.749   6.135  0.7282 -1.2353  0.7494
  130OSM   H14B13915   0.567   0.763   5.967 -3.4218  0.1753 -1.3551
  130OSM   H14C13916   0.570   0.599   6.047 -0.0409  0.5810  0.6334
  130OSM    C1313917   0.325   0.661   5.924  0.2230 -0.0002  0.2546
  130OSM   H13A13918   0.361   0.560   5.910  2.0906  0.8371 -1.4404
  130OSM   H13B13919   0.353   0.713   5.834 -0.3488 -0.1726 -0.0347
  130OSM   H13C13920   0.217   0.669   5.928  0.1572 -0.7530  0.1840
  130OSM    C1213921   0.354   0.865   6.055 -0.4804 -0.0999 -0.3723
  130OSM   H12A13922   0.248   0.881   6.045 -0.3416 -0.4689 -3.7271
  130OSM   H12B13923   0.392   0.911   5.964  1.4348 -0.6104  0.1100
  130OSM    C1113924   0.403   0.943   6.178 -0.2293 -0.1085  0.0687
  130OSM   H11A13925   0.367   0.885   6.266 -1.0857 -1.5201 -1.1705
  130OSM   H11B13926   0.342   1.035   6.166 -0.8409 -0.3753  0.9947
  130OSM      P13927   0.588   1.133   6.194  0.1763  0.0613 -0.2958
  130OSM    O1313928   0.732   1.133   6.165  0.8894  0.6869  0.2347
  130OSM    O1413929   0.507   1.217   6.108  0.0319  0.3779 -0.0389
  130OSM    O1113930   0.560   1.156   6.347  0.1486 -0.2450 -0.3295
  130OSM    O1213931   0.539   0.985   6.174  0.0064  0.6851  0.2232
  130OSM    C1S13932   0.639   1.225   6.445  0.4797  1.0529  0.3285
  130OSM    H1S13933   0.608   1.332   6.452  0.0897  1.0453 -0.9589
  130OSM    H1T13934   0.749   1.214   6.430  0.2706 -1.8615  0.3734
  130OSM     NF13935   0.714   1.259   6.683  0.0272 -0.1531  0.4144
  130OSM    HNF13936   0.798   1.221   6.720  0.4676  0.7149  0.3309
  130OSM    C2S13937   0.626   1.177   6.592 -0.3166 -0.1442 -0.6273
  130OSM    H2S13938   0.520   1.179   6.626  0.0611 -2.6552  0.9662
  130OSM    C3S13939   0.670   1.022   6.598 -0.6677  0.6422  0.1045
  130OSM    H3S13940   0.778   1.016   6.573 -0.2429 -1.0459  2.0643
  130OSM     O313941   0.597   0.940   6.503  0.0524  0.3437 -0.1690
  130OSM    HO313942   0.561   1.007   6.444  1.1449  0.8332 -0.2992
  130OSM    C4S13943   0.641   0.963   6.727 -0.0050  0.9731 -0.4271
  130OSM    H4S13944   0.535   0.943   6.750 -0.1770  0.9524 -1.2028
  130OSM    C5S13945   0.736   0.906   6.804  0.4971  0.6953  0.3274
  130OSM    H5S13946   0.838   0.922   6.767 -0.3927  0.7517 -2.2587
  130OSM    C6S13947   0.720   0.828   6.929 -0.3830 -0.0239 -0.0546
  130OSM    H6S13948   0.737   0.721   6.907  0.1630  0.1555 -0.5253
  130OSM    H6T13949   0.616   0.835   6.969  0.3469  1.5925  1.7919
  130OSM    C7S13950   0.825   0.861   7.037  0.6060  0.2800 -0.5140
  130OSM    H7S13951   0.809   0.966   7.069 -0.5471  0.1384 -0.5821
  130OSM    H7T13952   0.929   0.848   7.000  2.3063 -0.6345  3.9487
  130OSM    C8S13953   0.822   0.784   7.175  0.5207 -0.5202  0.0089
  130OSM    H8S13954   0.847   0.677   7.155 -0.5763 -1.1266  1.6910
  130OSM    H8T13955   0.726   0.794   7.228  0.5532 -1.5338  0.2859
  130OSM    C9S13956   0.938   0.838   7.273 -0.1872  0.0470 -0.4462
  130OSM    H9S13957   0.987   0.930   7.233  2.6823 -0.7607  0.9596
  130OSM    H9T13958   1.016   0.761   7.288 -0.3887 -0.0429  0.1432
  130OSM   C10S13959   0.882   0.864   7.414  0.5701 -0.6380 -0.1678
  130OSM   H10S13960   0.830   0.773   7.451 -0.9449 -0.1468 -1.0056
  130OSM   H10T13961   0.806   0.944   7.403  1.0918 -0.2347 -0.8965
  130OSM   C11S13962   0.980   0.899   7.527  0.0899  0.4758 -0.0101
  130OSM   H11S13963   1.022   0.998   7.500 -0.1428  1.0323  1.5435
  130OSM   H11T13964   1.055   0.818   7.540  0.3262  0.7093  0.0829
  130OSM   C12S13965   0.911   0.913   7.667 -0.2895  0.6356  0.5264
  130OSM   H12S13966   0.874   0.810   7.685 -0.2751  0.4497 -0.4594
  130OSM   H12T13967   0.830   0.989   7.661 -1.3773 -0.4872  0.6064
  130OSM   C13S13968   1.008   0.955   7.780 -0.1691  0.1412  0.5418
  130OSM   H13S13969   1.050   1.056   7.762 -3.1874  1.4736  0.2883
  130OSM   H13T13970   1.098   0.891   7.790 -0.3011  0.2814  3.3180
  130OSM   C14S13971   0.932   0.947   7.913  0.6745  0.1086 -0.4543
  130OSM   H14S13972   0.867   0.857   7.912  0.4466  0.2634  0.1817
  130OSM   H14T13973   0.865   1.035   7.922 -0.8791 -1.1687  1.1148
  130OSM   C15S13974   1.021   0.940   8.037  0.1365 -0.0732 -0.0854
  130OSM   H15S13975   1.090   1.027   8.028 -1.5207  1.0522 -3.4552
  130OSM   H15T13976   1.071   0.841   8.026 -1.5299 -0.7018 -2.9747
  130OSM   C16S13977   0.951   0.947   8.173  0.1731  0.8177 -0.5703
  130OSM   H16S13978   1.025   0.932   8.254  0.3703  0.5178 -0.8011
  130OSM   H16T13979   0.877   0.864   8.178 -0.9949  1.8767 -0.0018
  130OSM   C17S13980   0.877   1.076   8.194  0.5450  0.1277 -0.4074
  130OSM   H17S13981   0.796   1.090   8.120 -1.0866  1.2693  1.4854
  130OSM   H17T13982   0.950   1.153   8.163  1.0167 -0.3715 -0.5629
  130OSM   C18S13983   0.817   1.100   8.331  0.0684  0.4656 -0.2029
  130OSM   H18S13984   0.785   1.001   8.369  1.9028 -0.1058 -0.0653
  130OSM   H18T13985   0.736   1.176   8.335 -1.0673 -0.6493 -1.2383
  130OSM   H18U13986   0.897   1.135   8.399  0.2016 -0.1298 -0.0523
  130OSM    C1F13987   0.691   1.383   6.702  0.2423  0.7472 -1.1944
  130OSM     OF13988   0.579   1.425   6.672  0.1759 -0.0953 -0.6648
  130OSM    C2F13989   0.802   1.467   6.757  0.8811  0.8160  0.1586
  130OSM    H2F13990   0.850   1.507   6.665 -0.9914 -0.8846 -1.6738
  130OSM    H2G13991   0.874   1.408   6.816  0.9046  0.4493 -0.2378
  130OSM    C3F13992   0.745   1.583   6.843  0.3717  0.6616 -0.0614
  130OSM    H3F13993   0.698   1.539   6.934 -0.0035  0.2858 -0.4343
  130OSM    H3G13994   0.672   1.648   6.790 -2.3463 -0.4637  2.0623
  130OSM    C4F13995   0.853   1.676   6.900  0.1451 -0.8617  0.4545
  130OSM    H4F13996   0.811   1.779   6.902  1.3667 -0.2341 -2.1270
  130OSM    H4G13997   0.928   1.684   6.818  0.6280  1.5284  1.0613
  130OSM    C5F13998   0.904   1.636   7.031 -0.3180 -0.3695 -0.1509
  130OSM    H5F13999   0.926   1.527   7.028  0.2036 -0.2542 -0.6761
  130OSM    H5G14000   0.820   1.644   7.103  1.3200 -1.7237  2.0518
  130OSM    C6F14001   1.010   1.724   7.098  0.2208  0.7773 -0.1430
  130OSM    H6F14002   0.985   1.831   7.112 -2.2822  0.3717 -0.9817
  130OSM    H6G14003   1.086   1.716   7.016 -0.7047 -0.5606 -0.9154
  130OSM    C7F14004   1.053   1.672   7.239  0.5597  0.1826  0.8080
  130OSM    H7F14005   1.157   1.705   7.261  2.2006 -1.4850 -3.4879
  130OSM    H7G14006   1.028   1.564   7.232 -2.0880  0.7969 -0.4590
  130OSM    C8F14007   0.960   1.735   7.352 -0.2420  0.1512  0.0422
  130OSM    H8F14008   0.857   1.723   7.312  0.4189  0.2376 -1.7471
  130OSM    H8G14009   0.987   1.842   7.359 -1.5151  0.4601  0.6159
  130OSM    C9F14010   0.982   1.658   7.483 -0.3652  0.9539  0.2463
  130OSM    H9F14011   0.954   1.553   7.470  0.6993  1.0085 -3.2278
  130OSM   C10F14012   1.011   1.697   7.612  0.1718 -0.8779  0.0509
  130OSM   H10F14013   1.028   1.623   7.692  2.5648  0.7574  1.1887
  130OSM   C11F14014   1.045   1.838   7.661 -0.3285 -0.0501  0.9860
  130OSM   H11F14015   0.974   1.909   7.614 -1.6275 -1.8857  0.0239
  130OSM   H11G14016   1.148   1.857   7.623 -0.9499  2.5490  0.4223
  130OSM   C12F14017   1.044   1.859   7.812  0.3753 -0.5398 -0.9736
  130OSM   H12F14018   1.079   1.963   7.828 -1.2527 -0.0372 -0.3740
  130OSM   H12G14019   1.100   1.781   7.867  1.0308  1.0953  0.8172
  130OSM   C13F14020   0.905   1.849   7.867  0.5359  0.2638 -0.2502
  130OSM   H13F14021   0.860   1.748   7.855 -1.4675  1.2879 -2.1331
  130OSM   H13G14022   0.835   1.906   7.802  0.6686 -1.0937 -1.6428
  130OSM   C14F14023   0.899   1.889   8.013  0.5534 -0.0614 -0.1929
  130OSM   H14F14024   0.932   1.995   8.012  0.2531  0.0492  0.7653
  130OSM   H14G14025   0.970   1.833   8.077  0.1531  0.4172  0.6926
  130OSM   C15F14026   0.750   1.883   8.066  0.3929  0.5479  0.4228
  130OSM   H15F14027   0.701   1.786   8.089 -0.7276  0.9310 -0.2388
  130OSM   H15G14028   0.673   1.912   7.991  0.6456 -0.7375 -0.3438
  130OSM   C16F14029   0.732   1.966   8.195  0.7704 -0.0193 -0.6513
  130OSM   H16F14030   0.721   2.069   8.156  0.3412  0.1297 -0.1378
  130OSM   H16G14031   0.819   1.956   8.263 -0.8932 -1.4590  1.3858
  130OSM   C17F14032   0.608   1.921   8.271  0.1342 -0.1220 -0.5892
  130OSM   H17F14033   0.610   1.811   8.289  0.2367  0.1489  1.3288
  130OSM   H17G14034   0.522   1.954   8.210  0.2585  0.8294 -0.2678
  130OSM   C18F14035   0.579   1.998   8.395  0.2991  0.3269 -0.1118
  130OSM   H18F14036   0.675   2.014   8.450  0.3433  1.2093 -0.4336
  130OSM   H18G14037   0.502   1.950   8.459 -0.0133 -0.7894 -1.2928
  130OSM   H18H14038   0.551   2.103   8.370  0.3141  1.0379  2.5630
  131OSM      N14039   2.787   5.389   5.831 -0.6007  0.1496 -0.0583
  131OSM    C1514040   2.925   5.443   5.840  0.6825 -0.7097 -0.8944
  131OSM   H15A14041   2.964   5.455   5.940  1.7219  0.1289 -1.3861
  131OSM   H15B14042   2.937   5.531   5.778 -1.0624  1.2426  1.3506
  131OSM   H15C14043   2.986   5.371   5.788  0.3777 -2.0686  0.5538
  131OSM    C1414044   2.725   5.427   5.697 -0.6597  0.5272  0.0332
  131OSM   H14A14045   2.736   5.533   5.679 -1.5366  0.4980 -0.7220
  131OSM   H14B14046   2.623   5.392   5.697 -0.7495  0.7756  0.8405
  131OSM   H14C14047   2.772   5.383   5.610 -1.2653 -0.7373  0.3303
  131OSM    C1314048   2.798   5.240   5.842 -0.7188  0.4594  0.1908
  131OSM   H13A14049   2.883   5.200   5.790 -1.3547 -1.2836  0.4229
  131OSM   H13B14050   2.711   5.197   5.795 -0.2264 -1.5902  1.0448
  131OSM   H13C14051   2.805   5.206   5.945 -2.1944 -3.1214 -0.7618
  131OSM    C1214052   2.690   5.434   5.932 -0.4743 -0.2200 -0.1683
  131OSM   H12A14053   2.596   5.386   5.908 -1.6706  2.1717 -0.5516
  131OSM   H12B14054   2.663   5.538   5.934 -0.3047 -0.1945  1.7144
  131OSM    C1114055   2.715   5.399   6.080 -0.7535 -0.2192  0.8381
  131OSM   H11A14056   2.725   5.290   6.098  0.3865 -0.5159 -1.2642
  131OSM   H11B14057   2.626   5.430   6.138 -0.8597  2.4080 -0.6021
  131OSM      P14058   2.847   5.627   6.160  0.2612 -0.1753  0.0049
  131OSM    O1314059   2.985   5.665   6.125  0.4348 -0.4682 -0.0015
  131OSM    O1414060   2.736   5.691   6.083  0.3589 -0.6384 -0.2698
  131OSM    O1114061   2.828   5.648   6.326  0.7739  0.2477 -0.4972
  131OSM    O1214062   2.827   5.472   6.138  0.0724 -0.3357  0.9881
  131OSM    C1S14063   2.880   5.546   6.415  0.5944 -0.1347  0.3960
  131OSM    H1S14064   2.989   5.564   6.432  0.4262  0.5287  0.8334
  131OSM    H1T14065   2.865   5.441   6.382  0.0477  0.0047  0.1987
  131OSM     NF14066   2.872   5.467   6.642 -0.6743  0.2380 -0.1579
  131OSM    HNF14067   2.857   5.371   6.664 -1.5455  0.2934 -0.4852
  131OSM    C2S14068   2.792   5.530   6.541 -0.6693 -0.3351 -0.0894
  131OSM    H2S14069   2.765   5.634   6.570 -1.3234 -0.9733  1.7639
  131OSM    C3S14070   2.657   5.455   6.521  0.7429  0.3222 -0.2043
  131OSM    H3S14071   2.673   5.352   6.481  1.9540  0.0040  1.0436
  131OSM     O314072   2.570   5.523   6.427  0.3718  0.3668  0.8141
  131OSM    HO314073   2.616   5.594   6.382 -0.0031 -0.0030 -0.1885
  131OSM    C4S14074   2.576   5.454   6.652  0.0612  0.1930  0.0184
  131OSM    H4S14075   2.542   5.552   6.687 -1.2470 -0.5208  0.8089
  131OSM    C5S14076   2.552   5.346   6.726  0.4257 -0.1935  0.0249
  131OSM    H5S14077   2.580   5.248   6.685 -0.9405  0.0033 -1.5040
  131OSM    C6S14078   2.477   5.326   6.856 -0.2123 -0.6330  1.2508
  131OSM    H6S14079   2.539   5.290   6.941 -0.3823 -1.1661  1.1511
  131OSM    H6T14080   2.382   5.269   6.848  0.1833 -1.0116 -3.0510
  131OSM    C7S14081   2.439   5.462   6.925 -0.0026 -1.0118 -0.6014
  131OSM    H7S14082   2.382   5.515   6.845  1.3819 -2.3412 -2.5604
  131OSM    H7T14083   2.527   5.527   6.944  0.1766 -0.9324 -1.6231
  131OSM    C8S14084   2.357   5.449   7.057 -0.1141  0.3250  0.3247
  131OSM    H8S14085   2.396   5.370   7.125 -3.0576 -1.0808  0.5438
  131OSM    H8T14086   2.261   5.403   7.025 -0.2598  0.9008 -0.0719
  131OSM    C9S14087   2.328   5.580   7.126  0.0346 -0.3707  0.0802
  131OSM    H9S14088   2.280   5.636   7.043 -0.0203  0.2162  0.4997
  131OSM    H9T14089   2.415   5.640   7.159 -1.7487  1.9275  0.8538
  131OSM   C10S14090   2.221   5.567   7.239 -0.2180  0.0766  0.5919
  131OSM   H10S14091   2.261   5.482   7.299 -0.2949 -0.2802  0.1394
  131OSM   H10T14092   2.118   5.541   7.210 -0.1454 -0.2111  0.5883
  131OSM   C11S14093   2.227   5.681   7.339  0.0004  0.4021  0.6428
  131OSM   H11S14094   2.204   5.773   7.281 -1.1177  0.4581  1.1586
  131OSM   H11T14095   2.326   5.705   7.384  0.4854  1.1848 -0.7542
  131OSM   C12S14096   2.129   5.662   7.451  0.1636 -0.0707  0.2252
  131OSM   H12S14097   2.035   5.631   7.400 -0.1626  1.4790 -0.1572
  131OSM   H12T14098   2.104   5.762   7.492 -0.4596  0.2821 -0.9922
  131OSM   C13S14099   2.191   5.580   7.567  0.2735  0.3626 -0.3780
  131OSM   H13S14100   2.218   5.481   7.525  1.4479  0.9972 -1.1987
  131OSM   H13T14101   2.111   5.555   7.640  0.5301 -0.5922 -0.4102
  131OSM   C14S14102   2.304   5.653   7.645 -0.3163  0.5963  0.3090
  131OSM   H14S14103   2.266   5.754   7.673 -1.0744  0.1330  0.9741
  131OSM   H14T14104   2.395   5.668   7.583  0.0758  0.5388  0.8672
  131OSM   C15S14105   2.357   5.590   7.776  0.2502  0.2043  0.8071
  131OSM   H15S14106   2.395   5.485   7.770  0.8752  0.2186  3.5462
  131OSM   H15T14107   2.267   5.589   7.841  0.5882  0.6579  1.2909
  131OSM   C16S14108   2.471   5.667   7.843  0.0743  0.1632 -0.0283
  131OSM   H16S14109   2.466   5.635   7.949  0.0588  1.2525  0.3090
  131OSM   H16T14110   2.446   5.775   7.844 -0.3611  0.1088 -1.5766
  131OSM   C17S14111   2.603   5.653   7.769  1.3344  0.2682  0.3000
  131OSM   H17S14112   2.592   5.699   7.669 -1.3670  0.2011  0.4907
  131OSM   H17T14113   2.622   5.546   7.749 -2.3008 -0.3862 -0.3063
  131OSM   C18S14114   2.718   5.707   7.854 -0.4160  0.0121  0.0594
  131OSM   H18S14115   2.726   5.818   7.866  0.0289 -0.0408  0.2871
  131OSM   H18T14116   2.814   5.679   7.804 -0.6733 -0.0971 -0.3765
  131OSM   H18U14117   2.718   5.658   7.954  0.2534 -0.5302 -0.1990
  131OSM    C1F14118   2.970   5.542   6.703 -0.2215  0.3830 -0.6725
  131OSM     OF14119   2.996   5.650   6.661  0.1815 -0.9018 -0.1632
  131OSM    C2F14120   3.043   5.474   6.815  0.2468 -0.5376  0.1500
  131OSM    H2F14121   3.152   5.467   6.793  0.3928 -2.4031  1.2136
  131OSM    H2G14122   3.005   5.372   6.840  0.3704 -0.0461  2.6224
  131OSM    C3F14123   3.030   5.568   6.938 -0.0006 -0.3835  0.6784
  131OSM    H3F14124   3.069   5.668   6.910  0.8211  0.1361  3.4661
  131OSM    H3G14125   3.086   5.546   7.031 -0.8135 -0.0512  1.2645
  131OSM    C4F14126   2.883   5.581   6.987  0.3835  0.1189 -0.0588
  131OSM    H4F14127   2.822   5.607   6.898  1.1811  1.7370 -0.1685
  131OSM    H4G14128   2.877   5.663   7.062 -0.5505  0.3112 -0.3330
  131OSM    C5F14129   2.817   5.459   7.051  0.2401  0.5062 -0.6869
  131OSM    H5F14130   2.830   5.378   6.976 -3.7137 -0.1683 -0.8644
  131OSM    H5G14131   2.709   5.482   7.065  0.4537  0.5752  1.0004
  131OSM    C6F14132   2.882   5.418   7.187  0.3756  0.3798  0.1725
  131OSM    H6F14133   2.878   5.516   7.238  0.5717  0.1180  0.7107
  131OSM    H6G14134   2.985   5.381   7.166 -0.2361 -0.4959 -1.4448
  131OSM    C7F14135   2.802   5.319   7.272  0.2713 -0.0245  0.3989
  131OSM    H7F14136   2.813   5.217   7.229 -2.4881  0.0813 -0.7842
  131OSM    H7G14137   2.697   5.354   7.261 -0.3586 -2.1096 -0.9058
  131OSM    C8F14138   2.839   5.315   7.420  0.3822  0.7486  0.1681
  131OSM    H8F14139   2.815   5.412   7.468  0.5957  0.6697  0.4354
  131OSM    H8G14140   2.949   5.301   7.427  0.4176 -0.2547 -1.6351
  131OSM    C9F14141   2.781   5.194   7.493 -0.2947 -0.2837 -0.1414
  131OSM    H9F14142   2.777   5.108   7.424 -0.1987  1.1598 -2.0246
  131OSM   C10F14143   2.749   5.179   7.627 -0.4318  0.0166  0.2371
  131OSM   H10F14144   2.713   5.083   7.667 -0.5228  0.3543  0.9643
  131OSM   C11F14145   2.760   5.297   7.722 -0.0934  0.5023 -0.0195
  131OSM   H11F14146   2.658   5.341   7.727 -1.5124 -2.4384 -0.8741
  131OSM   H11G14147   2.846   5.363   7.695  0.0459  0.3894  0.1444
  131OSM   C12F14148   2.794   5.256   7.871  0.3880  0.1899  0.0234
  131OSM   H12F14149   2.893   5.207   7.864  0.0725 -0.3276 -1.0888
  131OSM   H12G14150   2.713   5.185   7.901 -0.6817  0.9807 -0.8739
  131OSM   C13F14151   2.795   5.365   7.971  0.5050 -0.0810 -0.2166
  131OSM   H13F14152   2.693   5.407   7.987  0.3521 -0.8638  1.0187
  131OSM   H13G14153   2.856   5.447   7.928  0.3175  1.1800  1.7569
  131OSM   C14F14154   2.858   5.331   8.113  0.0783 -0.6165 -0.0528
  131OSM   H14F14155   2.805   5.245   8.160  0.0136 -0.0432  0.9487
  131OSM   H14G14156   2.857   5.423   8.174  1.4356 -0.0880 -0.7750
  131OSM   C15F14157   3.002   5.269   8.109 -0.0749  0.3735 -0.2788
  131OSM   H15F14158   3.015   5.185   8.037  1.0191 -1.2847  1.7378
  131OSM   H15G14159   3.032   5.231   8.209  0.6578  0.2074 -0.5567
  131OSM   C16F14160   3.118   5.367   8.082 -0.2319  0.9827  0.5897
  131OSM   H16F14161   3.114   5.453   8.152 -0.4140  1.3281  0.1563
  131OSM   H16G14162   3.117   5.395   7.974 -0.8066 -0.7557  0.1093
  131OSM   C17F14163   3.248   5.294   8.116  0.2393 -0.1460 -0.6132
  131OSM   H17F14164   3.246   5.199   8.058 -1.7969  0.0264 -0.8947
  131OSM   H17G14165   3.251   5.262   8.222 -0.9228  0.5127 -0.3628
  131OSM   C18F14166   3.366   5.385   8.090  0.9593 -0.7597  0.0717
  131OSM   H18F14167   3.335   5.486   8.123 -1.6792 -1.7570  0.8625
  131OSM   H18G14168   3.382   5.387   7.980  0.1973  1.2610 -0.0413
  131OSM   H18H14169   3.460   5.347   8.135 -0.3150 -1.7451  2.0158
  132OSM      N14170   3.366   2.729   6.091 -0.0749 -0.3777  0.4296
  132OSM    C1514171   3.476   2.828   6.058 -0.1273 -0.0992 -0.2774
  132OSM   H15A14172   3.442   2.879   5.969  0.0250 -0.8211 -0.7565
  132OSM   H15B14173   3.570   2.783   6.029 -1.3033 -2.7672 -0.2192
  132OSM   H15C14174   3.475   2.904   6.135  0.3807  1.6866 -1.9521
  132OSM    C1414175   3.236   2.801   6.086 -0.2321  0.3460  0.0152
  132OSM   H14A14176   3.161   2.744   6.139  0.2392  1.6714  2.2219
  132OSM   H14B14177   3.212   2.840   5.988  1.8454  1.3193 -0.1509
  132OSM   H14C14178   3.235   2.889   6.148 -1.0803 -0.8152  1.7270
  132OSM    C1314179   3.363   2.621   5.978  0.3289 -0.5980 -0.3955
  132OSM   H13A14180   3.456   2.566   5.987  0.5970  0.0287  0.8776
  132OSM   H13B14181   3.338   2.662   5.881  0.1454 -1.0224 -0.5315
  132OSM   H13C14182   3.280   2.558   6.006 -0.9518  1.0421 -0.3749
  132OSM    C1214183   3.379   2.660   6.225  0.7647  0.2379 -0.5151
  132OSM   H12A14184   3.385   2.737   6.301 -3.1068  0.6593 -0.4599
  132OSM   H12B14185   3.475   2.610   6.213  0.5397 -0.6929  1.2768
  132OSM    C1114186   3.273   2.560   6.273 -0.2245 -0.3731  0.4266
  132OSM   H11A14187   3.172   2.601   6.249  0.1097 -0.6896 -1.7606
  132OSM   H11B14188   3.303   2.566   6.379  2.2603 -1.1750 -0.1678
  132OSM      P14189   3.190   2.337   6.166 -0.0158  0.0954  0.1372
  132OSM    O1314190   3.106   2.414   6.072  0.0149 -0.1210 -0.4879
  132OSM    O1414191   3.260   2.214   6.112 -0.3461 -0.0082  0.2001
  132OSM    O1114192   3.108   2.298   6.291  0.2282 -0.3502  0.5050
  132OSM    O1214193   3.301   2.434   6.223 -0.2440 -0.2515  0.1273
  132OSM    C1S14194   3.157   2.198   6.387 -0.3576 -0.7315 -0.0766
  132OSM    H1S14195   3.249   2.144   6.354  0.7630  1.0459 -0.0033
  132OSM    H1T14196   3.084   2.117   6.404 -0.7100 -0.4644 -0.2937
  132OSM     NF14197   3.278   2.160   6.600 -0.5496 -0.2231  0.4808
  132OSM    HNF14198   3.216   2.126   6.669 -2.4413 -1.4456 -1.6801
  132OSM    C2S14199   3.214   2.262   6.521 -0.6372 -0.0780  0.8381
  132OSM    H2S14200   3.287   2.337   6.484 -4.1143  2.2687 -1.9629
  132OSM    C3S14201   3.108   2.344   6.601  0.2315  0.6670  0.3674
  132OSM    H3S14202   3.029   2.276   6.640  0.0855  1.1347  0.9027
  132OSM     O314203   3.037   2.442   6.533 -0.6605 -0.4224  0.1470
  132OSM    HO314204   3.049   2.429   6.438  0.3571 -0.6622  0.2969
  132OSM    C4S14205   3.169   2.397   6.731  0.0422 -0.3983 -0.1059
  132OSM    H4S14206   3.133   2.346   6.822  1.9213  0.8052  1.4039
  132OSM    C5S14207   3.253   2.504   6.740 -0.0976  0.1169 -0.3929
  132OSM    H5S14208   3.286   2.562   6.652 -0.7219  0.7781 -0.1999
  132OSM    C6S14209   3.312   2.572   6.866 -0.1853  0.9633  0.4142
  132OSM    H6S14210   3.288   2.680   6.862 -0.7106  0.8326 -0.1834
  132OSM    H6T14211   3.423   2.565   6.868 -0.1661  1.3960  1.9621
  132OSM    C7S14212   3.261   2.521   6.997  0.4519  0.2306 -0.6126
  132OSM    H7S14213   3.271   2.411   7.011  2.2955  0.3935 -0.3512
  132OSM    H7T14214   3.153   2.546   7.006 -0.2694 -2.9229  1.1703
  132OSM    C8S14215   3.325   2.596   7.112  0.4928 -0.1699 -0.2747
  132OSM    H8S14216   3.307   2.704   7.097  0.0630 -0.1088  0.6190
  132OSM    H8T14217   3.436   2.590   7.107  0.5474  1.2490 -1.4314
  132OSM    C9S14218   3.260   2.554   7.242 -0.4713 -0.2954 -0.0911
  132OSM    H9S14219   3.291   2.448   7.251  0.7323  0.0637  0.1151
  132OSM    H9T14220   3.153   2.581   7.229 -0.1134  1.0026 -0.5029
  132OSM   C10S14221   3.298   2.643   7.359  0.0807  0.0514 -0.2015
  132OSM   H10S14222   3.291   2.751   7.335  0.9404  0.1665  0.0619
  132OSM   H10T14223   3.406   2.625   7.372  0.0044  0.0356  0.4545
  132OSM   C11S14224   3.217   2.610   7.483  0.1917 -0.3373  0.2922
  132OSM   H11S14225   3.217   2.502   7.507  1.1512 -0.0079  1.9590
  132OSM   H11T14226   3.113   2.647   7.476  0.7725  1.2896 -0.2671
  132OSM   C12S14227   3.272   2.690   7.605 -0.1260  0.3604 -0.6759
  132OSM   H12S14228   3.261   2.798   7.578  1.5914  0.6600 -0.3012
  132OSM   H12T14229   3.379   2.661   7.599 -0.0253  0.3614  0.7705
  132OSM   C13S14230   3.217   2.647   7.743  0.6827  0.4443  0.1326
  132OSM   H13S14231   3.243   2.539   7.742  0.4278  0.3825  0.1946
  132OSM   H13T14232   3.106   2.647   7.740  0.6818  0.0555  0.1185
  132OSM   C14S14233   3.274   2.720   7.867 -0.4954 -0.0967  0.6418
  132OSM   H14S14234   3.250   2.825   7.840  2.2086  0.5493  0.5003
  132OSM   H14T14235   3.381   2.702   7.847 -0.9370 -0.6439 -1.5440
  132OSM   C15S14236   3.217   2.680   8.006 -0.2913  0.2481  0.3324
  132OSM   H15S14237   3.269   2.583   8.023  1.8738  1.0885 -1.0915
  132OSM   H15T14238   3.108   2.667   7.995 -0.1484 -0.5950 -0.1801
  132OSM   C16S14239   3.242   2.786   8.119  0.0629  0.4420  0.3219
  132OSM   H16S14240   3.192   2.747   8.211 -0.4364 -2.1027 -0.9193
  132OSM   H16T14241   3.198   2.883   8.088 -2.3734 -0.7330 -0.1348
  132OSM   C17S14242   3.387   2.795   8.158  0.9829 -0.3813 -0.5184
  132OSM   H17S14243   3.447   2.833   8.073  2.7625 -0.1291  0.7810
  132OSM   H17T14244   3.432   2.698   8.189 -0.6182 -0.9210  0.2583
  132OSM   C18S14245   3.406   2.907   8.261 -0.5555 -0.3288 -0.5705
  132OSM   H18S14246   3.515   2.917   8.278 -0.6584  0.8701 -0.5833
  132OSM   H18T14247   3.351   2.888   8.356 -0.9791  3.3849  0.0502
  132OSM   H18U14248   3.387   3.011   8.227 -1.6108 -0.2788  0.1342
  132OSM    C1F14249   3.391   2.097   6.566 -0.1113 -0.4292  0.0663
  132OSM     OF14250   3.451   2.124   6.464  0.2133  0.0677  0.5213
  132OSM    C2F14251   3.445   1.990   6.660  0.3438 -0.5847 -0.2024
  132OSM    H2F14252   3.449   1.900   6.595 -0.5677  0.9935 -2.5810
  132OSM    H2G14253   3.364   1.969   6.733  0.6098 -1.9463 -0.2666
  132OSM    C3F14254   3.582   2.024   6.729 -0.4442 -0.1424 -0.3522
  132OSM    H3F14255   3.659   2.067   6.662  0.5233 -0.7993  0.3143
  132OSM    H3G14256   3.627   1.930   6.768 -1.2923  0.1404  1.4280
  132OSM    C4F14257   3.558   2.125   6.843 -0.2524  0.5420 -0.1857
  132OSM    H4F14258   3.513   2.069   6.928 -2.8237  2.5197 -0.0941
  132OSM    H4G14259   3.488   2.207   6.816 -1.4804 -0.3415  0.2260
  132OSM    C5F14260   3.689   2.176   6.900  0.3930 -0.4939  0.0569
  132OSM    H5F14261   3.719   2.250   6.824  1.0211 -1.0806 -0.2798
  132OSM    H5G14262   3.765   2.094   6.901  0.9213 -0.0184 -0.6450
  132OSM    C6F14263   3.661   2.248   7.032  0.2980  0.7219  0.2159
  132OSM    H6F14264   3.578   2.321   7.024 -0.0043  0.4129  0.5359
  132OSM    H6G14265   3.747   2.313   7.060 -0.1263  1.5455 -0.3595
  132OSM    C7F14266   3.628   2.154   7.152 -0.4010  0.1477  0.2490
  132OSM    H7F14267   3.712   2.084   7.174 -2.3752 -1.9782  1.6184
  132OSM    H7G14268   3.551   2.081   7.121 -0.8137  0.9609 -0.6794
  132OSM    C8F14269   3.593   2.234   7.271 -0.2573  0.0207  0.2442
  132OSM    H8F14270   3.500   2.291   7.249  0.4541  0.6289 -1.4113
  132OSM    H8G14271   3.671   2.307   7.303 -0.6121 -0.5538  2.5624
  132OSM    C9F14272   3.578   2.143   7.397 -0.0079  0.3928  0.6199
  132OSM    H9F14273   3.594   2.037   7.373 -1.6682  0.3520 -0.4382
  132OSM   C10F14274   3.535   2.185   7.517  0.2977 -0.2189 -0.6550
  132OSM   H10F14275   3.518   2.104   7.590 -3.6693 -0.1823 -1.3086
  132OSM   C11F14276   3.499   2.325   7.556  0.4052  0.4227 -0.2737
  132OSM   H11F14277   3.388   2.324   7.553  0.3550  1.4578  0.4699
  132OSM   H11G14278   3.541   2.393   7.478  3.3438  0.0764  0.8701
  132OSM   C12F14279   3.531   2.374   7.692  0.8556 -0.8203 -0.3089
  132OSM   H12F14280   3.473   2.468   7.709  1.1391 -0.5339 -0.9027
  132OSM   H12G14281   3.639   2.397   7.700  0.3318  1.4103  1.7967
  132OSM   C13F14282   3.487   2.290   7.812  0.5390  0.1041 -0.2146
  132OSM   H13F14283   3.517   2.183   7.805 -1.8058 -0.5678 -1.0161
  132OSM   H13G14284   3.376   2.288   7.820  0.3814 -1.7214 -2.0597
  132OSM   C14F14285   3.539   2.344   7.944 -0.3201 -0.1501 -0.5695
  132OSM   H14F14286   3.529   2.454   7.952  2.8932  0.1375  1.4387
  132OSM   H14G14287   3.649   2.328   7.951 -0.2151  0.6626 -0.3007
  132OSM   C15F14288   3.478   2.280   8.065  0.1910 -0.0189 -0.3417
  132OSM   H15F14289   3.471   2.171   8.041 -2.5411 -0.5839  2.5137
  132OSM   H15G14290   3.372   2.312   8.073  0.3557  0.1563  1.3414
  132OSM   C16F14291   3.565   2.312   8.185 -0.3742  0.1391  0.5322
  132OSM   H16F14292   3.561   2.422   8.195  0.3994  0.2257 -0.0161
  132OSM   H16G14293   3.673   2.306   8.160 -0.6361  1.6434 -1.1928
  132OSM   C17F14294   3.531   2.227   8.308 -0.1415 -0.2786 -0.6385
  132OSM   H17F14295   3.551   2.119   8.290 -1.1477 -1.2813  3.2003
  132OSM   H17G14296   3.423   2.244   8.326  0.2959  1.6117  0.4944
  132OSM   C18F14297   3.613   2.261   8.437 -0.3066 -0.1792 -0.3984
  132OSM   H18F14298   3.718   2.285   8.414 -0.1911 -0.2745  0.0202
  132OSM   H18G14299   3.612   2.176   8.508 -1.2349  0.5387  0.4813
  132OSM   H18H14300   3.569   2.355   8.477  1.8254  1.4748 -1.7251
  133SAPE     N14301   6.845   0.434  10.446 -0.2417 -0.0510  0.1052
  133SAPE   HN114302   6.805   0.435  10.350 -1.2504  4.4561  0.3347
  133SAPE   HN214303   6.766   0.439  10.514  1.6480 -0.1489  2.4422
  133SAPE   HN314304   6.896   0.523  10.461 -0.2388  0.4473 -2.4009
  133SAPE   C1214305   6.923   0.311  10.466  0.6745  0.2868 -0.4219
  133SAPE  H12A14306   6.993   0.315  10.553 -0.3459 -1.7097  0.5528
  133SAPE  H12B14307   6.992   0.288  10.383  2.6883 -0.3028  1.3145
  133SAPE   C1114308   6.822   0.200  10.494 -0.6503 -0.0745  0.2783
  133SAPE  H11A14309   6.875   0.103  10.500  1.3927  0.9299 -0.7379
  133SAPE  H11B14310   6.758   0.179  10.406 -0.2938 -0.9839  0.2268
  133SAPE     P14311   6.593   0.249  10.603 -0.3026 -0.1089 -0.1501
  133SAPE   O1314312   6.543   0.232  10.742  0.2117  0.3887 -0.1326
  133SAPE   O1414313   6.597   0.383  10.542  0.2302  0.1254  0.3998
  133SAPE   O1214314   6.748   0.211  10.614  0.4106 -0.1981  0.1164
  133SAPE   O1114315   6.541   0.131  10.512 -0.1528 -0.0076 -0.0315
  133SAPE    C114316   6.403   0.133  10.468 -0.6536  0.0403 -0.2932
  133SAPE    HA14317   6.337   0.073  10.534 -0.2716  0.4340  0.4632
  133SAPE    HB14318   6.366   0.237  10.457  2.0102  1.2802  1.2060
  133SAPE    C214319   6.387   0.041  10.345  0.1495 -0.4978  0.4028
  133SAPE    HS14320   6.414  -0.063  10.374 -1.0762 -1.5145 -1.8133
  133SAPE   O2114321   6.474   0.098  10.245  0.7837 -0.5372  0.2523
  133SAPE   C2114322   6.520   0.014  10.153  0.2191 -0.5993 -0.6761
  133SAPE   O2214323   6.505  -0.104  10.142  0.1026 -0.3301 -0.4085
  133SAPE   C2214324   6.595   0.100  10.053 -0.4632  0.5152  0.3577
  133SAPE   H2R14325   6.520   0.148   9.986 -0.5622 -0.6488 -0.3980
  133SAPE   H2S14326   6.643   0.185  10.106 -0.2035  0.6421 -0.0767
  133SAPE    C314327   6.242   0.054  10.289 -0.4266 -0.3641 -0.4349
  133SAPE    HX14328   6.179  -0.012  10.353  1.1433 -1.9474 -0.4387
  133SAPE    HY14329   6.238   0.021  10.183 -2.0771  1.0448 -0.8448
  133SAPE   O3114330   6.191   0.185  10.308  0.1205 -0.2524  0.3436
  133SAPE   C3114331   6.196   0.285  10.221 -0.0773 -0.0220 -0.3021
  133SAPE   O3214332   6.265   0.280  10.118 -0.7814  0.6628 -0.3703
  133SAPE   C3214333   6.111   0.395  10.272  0.4524  0.0869  0.1988
  133SAPE   H2X14334   6.172   0.487  10.259  2.3660 -0.9394  1.3826
  133SAPE   H2Y14335   6.112   0.378  10.382  0.6449 -0.4405  0.1196
  133SAPE   C2314336   6.693   0.018   9.974 -0.2092 -0.3357 -0.0904
  133SAPE   H3R14337   6.653  -0.077   9.932  0.1365  0.8281 -3.3790
  133SAPE   H3S14338   6.771  -0.001  10.051  0.3539  2.3576  0.1070
  133SAPE   C2414339   6.747   0.093   9.850 -0.7542 -0.7090  0.6852
  133SAPE   H4R14340   6.842   0.042   9.820 -1.0084 -0.0205 -1.5170
  133SAPE   H4S14341   6.782   0.193   9.885  0.2132 -1.8709  3.3114
  133SAPE   C2514342   6.652   0.098   9.734  0.4307 -0.2752  0.3003
  133SAPE   H5R14343   6.568   0.163   9.762  2.6086  2.2614  1.4243
  133SAPE   C2614344   6.666   0.040   9.611 -0.0944  0.4879 -0.6691
  133SAPE   H6R14345   6.578   0.050   9.547  0.7833  0.3709 -1.9237
  133SAPE   C2714346   6.787  -0.031   9.555 -0.4387 -0.1491 -0.1708
  133SAPE   H7R14347   6.769  -0.139   9.536 -1.1632  0.2032 -1.6802
  133SAPE   H7S14348   6.872  -0.020   9.626  0.5788 -0.8419 -1.2395
  133SAPE   C2814349   6.830   0.042   9.428  0.2681 -0.3887  0.2374
  133SAPE   H8R14350   6.859   0.148   9.441  1.1625 -0.5291 -0.4780
  133SAPE   C2914351   6.832  -0.009   9.299 -0.4733 -0.6362  0.1980
  133SAPE   H9R14352   6.853   0.062   9.217  0.2586 -1.7531 -0.6016
  133SAPE  C21014353   6.803  -0.148   9.256 -0.1828  0.0466 -0.2884
  133SAPE  H10R14354   6.746  -0.144   9.161 -0.7162 -0.9347 -0.0216
  133SAPE  H10S14355   6.733  -0.202   9.324 -1.8011  0.9109 -1.2044
  133SAPE  C21114356   6.921  -0.233   9.223 -0.3832  0.2744  0.3233
  133SAPE  H11R14357   6.963  -0.292   9.307  0.1800  0.6831  0.3344
  133SAPE  C21214358   6.994  -0.230   9.112 -0.4056 -0.2812  0.2354
  133SAPE  H12R14359   7.073  -0.306   9.104 -2.3484 -2.2399 -1.4831
  133SAPE  C21314360   6.972  -0.150   8.991  0.2199  0.1886  0.5658
  133SAPE  H13R14361   7.059  -0.081   8.980  0.7954 -0.8097 -1.8348
  133SAPE  H13S14362   6.877  -0.092   8.993  0.9839  1.5070  3.0850
  133SAPE  C21414363   6.961  -0.232   8.865  0.0339  0.7303 -0.2451
  133SAPE  H14R14364   6.875  -0.300   8.869  1.2920 -0.9704 -0.7945
  133SAPE  C21514365   7.044  -0.228   8.754  0.2465  0.0485 -0.0776
  133SAPE  H15R14366   7.023  -0.294   8.670  0.0324  0.2452 -0.1806
  133SAPE  C21614367   7.156  -0.131   8.741 -0.8121  0.5404 -0.1245
  133SAPE  H16R14368   7.149  -0.037   8.799 -2.5803 -0.0639  0.7170
  133SAPE  H16S14369   7.182  -0.095   8.639  3.9349 -0.7568  0.3556
  133SAPE  C21714370   7.286  -0.215   8.777 -0.2119  0.3513  0.4706
  133SAPE  H17R14371   7.376  -0.182   8.720 -0.8896 -1.4752 -1.8436
  133SAPE  H17S14372   7.265  -0.317   8.737  1.4569  0.3254 -0.4644
  133SAPE  C21814373   7.332  -0.203   8.923  0.0414  0.4573  0.9109
  133SAPE  H18R14374   7.244  -0.220   8.989 -0.7815 -1.3253 -0.5434
  133SAPE  H18S14375   7.363  -0.099   8.947 -1.9235  1.0777  0.8629
  133SAPE  C21914376   7.449  -0.303   8.963  0.4410  0.1860  0.4706
  133SAPE  H19R14377   7.471  -0.292   9.072 -3.7806  1.3995  1.3956
  133SAPE  H19S14378   7.536  -0.281   8.899 -0.7373 -1.2685 -1.7438
  133SAPE  C22014379   7.421  -0.454   8.930 -0.0545 -0.2333  0.7412
  133SAPE  H20R14380   7.510  -0.514   8.959  0.1121 -0.6841 -0.6229
  133SAPE  H20S14381   7.410  -0.482   8.823  0.7551  1.2937  0.2329
  133SAPE  H20T14382   7.341  -0.501   8.991  1.4492 -4.1345  0.0195
  133SAPE   C3314383   5.966   0.415  10.225 -0.0376  0.1856  0.0254
  133SAPE   H3X14384   5.940   0.523  10.237 -0.0234  0.3140 -1.0095
  133SAPE   H3Y14385   5.903   0.365  10.301 -0.4799  0.4040 -0.1892
  133SAPE   C3414386   5.923   0.381  10.075 -0.2590  0.2769  1.2366
  133SAPE   H4X14387   5.814   0.402  10.079 -0.0090  1.6606  1.3846
  133SAPE   H4Y14388   5.934   0.273  10.050 -1.9003  0.1990  0.6987
  133SAPE   C3514389   5.985   0.471   9.966 -0.2533  0.2445 -0.4594
  133SAPE   H5X14390   6.095   0.460   9.953 -0.4486 -1.5995 -0.8519
  133SAPE   H5Y14391   5.970   0.578   9.993 -0.7919  0.0799 -0.0900
  133SAPE   C3614392   5.920   0.448   9.827  0.1576  0.3310 -0.1630
  133SAPE   H6X14393   5.936   0.542   9.769  0.1873  1.0312  0.9501
  133SAPE   H6Y14394   5.813   0.421   9.836  0.2749 -0.1005 -0.0428
  133SAPE   C3714395   5.981   0.330   9.757 -0.5679 -0.1165 -0.0350
  133SAPE   H7X14396   5.964   0.234   9.811 -0.8307  1.2183  2.3626
  133SAPE   H7Y14397   6.090   0.352   9.765 -1.0662  1.9619  1.9150
  133SAPE   C3814398   5.922   0.318   9.612  0.2470  0.7514 -0.8725
  133SAPE   H8X14399   5.812   0.330   9.618  0.5202  2.9140  1.6133
  133SAPE   H8Y14400   5.945   0.220   9.567 -0.2843  0.2137 -0.0024
  133SAPE   C3914401   5.988   0.421   9.504  0.1514  1.1082  0.3553
  133SAPE   H9X14402   6.097   0.429   9.525  0.2398 -0.6054  0.7833
  133SAPE   H9Y14403   5.938   0.516   9.532  1.3599  1.1825  2.5093
  133SAPE  C31014404   5.957   0.388   9.359  0.6919 -0.5304 -0.2669
  133SAPE  H10X14405   5.850   0.362   9.344  0.3542  0.7350 -0.1597
  133SAPE  H10Y14406   6.007   0.289   9.359 -2.7306 -2.4874  2.1556
  133SAPE  C31114407   6.009   0.499   9.260 -0.6480  1.0700 -0.8109
  133SAPE  H11X14408   6.119   0.491   9.274 -1.1327 -0.5853  3.2393
  133SAPE  H11Y14409   5.991   0.604   9.289 -2.5247  0.7274 -0.6120
  133SAPE  C31214410   5.967   0.466   9.116  0.4344 -0.3048  0.2411
  133SAPE  H12X14411   6.005   0.535   9.038  0.1504 -0.9873 -0.5026
  133SAPE  H12Y14412   5.857   0.472   9.104  0.7002  0.7958 -2.0959
  133SAPE  C31314413   5.989   0.318   9.069 -0.3116 -0.2755 -0.2935
  133SAPE  H13X14414   5.971   0.240   9.146  4.4144 -2.8341 -1.3750
  133SAPE  H13Y14415   6.096   0.308   9.039 -0.6809  0.3018 -1.8802
  133SAPE  C31414416   5.901   0.286   8.950 -0.3284 -0.2043  0.2058
  133SAPE  H14X14417   5.790   0.280   8.958 -0.4247 -0.9993 -1.2881
  133SAPE  H14Y14418   5.936   0.183   8.926 -0.9719 -0.7445  1.4833
  133SAPE  C31514419   5.937   0.373   8.826  0.5558  0.1738 -0.4940
  133SAPE  H15X14420   6.047   0.378   8.812  0.4755  2.9083 -0.8462
  133SAPE  H15Y14421   5.904   0.475   8.854 -2.3216 -1.0714  1.0566
  133SAPE  C31614422   5.876   0.321   8.699 -0.0807 -0.6918  0.5196
  133SAPE  H16X14423   5.771   0.301   8.727  0.1943 -1.7274  0.8458
  133SAPE  H16Y14424   5.924   0.231   8.654 -0.8210 -1.0500  0.4392
  133SAPE  C31714425   5.879   0.440   8.593  0.8322  0.6920 -0.5086
  133SAPE  H17X14426   5.982   0.470   8.562  1.3829  0.8955  1.3455
  133SAPE  H17Y14427   5.833   0.522   8.652  0.8825 -0.5180  1.2958
  133SAPE  C31814428   5.801   0.389   8.473 -0.0707  0.4810 -0.5618
  133SAPE  H18X14429   5.834   0.291   8.434  1.7420  1.1752 -0.8502
  133SAPE  H18Y14430   5.816   0.463   8.392  2.4680  1.3164  0.5636
  133SAPE  H18Z14431   5.695   0.378   8.506  0.0959 -0.9143 -0.4327
  134SAPE     N14432   0.457   6.529  10.668 -0.6020 -0.1897  0.2153
  134SAPE   HN114433   0.481   6.629  10.661 -2.1316  0.0994 -2.7610
  134SAPE   HN214434   0.379   6.521  10.599 -0.6650  0.4042  0.2117
  134SAPE   HN314435   0.427   6.503  10.764 -0.1254  0.4908  0.5521
  134SAPE   C1214436   0.572   6.455  10.625 -0.7831  0.1359 -0.5799
  134SAPE  H12A14437   0.535   6.355  10.594  3.3135 -1.6616 -0.3343
  134SAPE  H12B14438   0.638   6.444  10.713 -0.5076  0.2715 -0.7676
  134SAPE   C1114439   0.640   6.518  10.502 -0.2800 -0.0751 -0.3877
  134SAPE  H11A14440   0.573   6.544  10.417 -0.8626 -1.4350 -0.3639
  134SAPE  H11B14441   0.710   6.443  10.461 -0.8694 -1.1621  0.5442
  134SAPE     P14442   0.645   6.781  10.521  0.0708 -0.0471  0.1051
  134SAPE   O1314443   0.504   6.771  10.580  0.4570  0.7021  0.0943
  134SAPE   O1414444   0.732   6.890  10.569 -0.7975  0.3519 -0.2944
  134SAPE   O1214445   0.710   6.638  10.543 -0.1472 -0.0953  0.0494
  134SAPE   O1114446   0.613   6.799  10.372 -0.3486 -0.4075  0.2837
  134SAPE    C114447   0.698   6.772  10.266 -0.7474  0.0179  0.3520
  134SAPE    HA14448   0.785   6.713  10.303 -0.3722  0.7148  0.6037
  134SAPE    HB14449   0.642   6.702  10.200 -1.0534 -2.1732  2.7836
  134SAPE    C214450   0.734   6.901  10.195 -0.4674  1.0663  0.8503
  134SAPE    HS14451   0.643   6.951  10.155 -1.3995 -0.6892  0.6466
  134SAPE   O2114452   0.832   6.877  10.088  0.0049  0.3919  0.6012
  134SAPE   C2114453   0.783   6.831   9.979  0.4872  0.7693  0.2146
  134SAPE   O2214454   0.666   6.797   9.957 -0.1039 -0.2055 -0.4275
  134SAPE   C2214455   0.890   6.819   9.870 -0.1671  0.1390 -0.0764
  134SAPE   H2R14456   0.905   6.712   9.842  1.8899  0.6294 -1.0158
  134SAPE   H2S14457   0.854   6.871   9.778  0.3293  2.7125  1.1158
  134SAPE    C314458   0.794   7.008  10.291  0.5916  0.3426  0.0438
  134SAPE    HX14459   0.869   6.965  10.361  0.4285  1.4009  0.9029
  134SAPE    HY14460   0.718   7.051  10.359 -1.0541 -1.1702 -0.7701
  134SAPE   O3114461   0.856   7.108  10.211  0.2330 -0.2049 -0.0470
  134SAPE   C3114462   0.782   7.213  10.174  0.3226  0.0793  0.2416
  134SAPE   O3214463   0.671   7.237  10.221 -0.0012 -0.3550  0.1907
  134SAPE   C3214464   0.859   7.285  10.054  0.4670  0.6329  0.4361
  134SAPE   H2X14465   0.969   7.269  10.058  0.4224  0.1677 -0.0440
  134SAPE   H2Y14466   0.830   7.392  10.050  0.2207  0.5639  0.3824
  134SAPE   C2314467   1.032   6.871   9.920 -0.2792 -0.0189 -0.3536
  134SAPE   H3R14468   1.085   6.801   9.987 -0.0470 -0.8892 -1.4165
  134SAPE   H3S14469   1.008   6.971   9.961  0.8167  0.1517 -0.0866
  134SAPE   C2414470   1.132   6.896   9.798 -0.0143  0.7928 -0.4200
  134SAPE   H4R14471   1.231   6.923   9.842 -0.5224  0.4391  0.9745
  134SAPE   H4S14472   1.090   6.991   9.762 -1.8232  0.0145 -0.4635
  134SAPE   C2514473   1.154   6.781   9.706 -0.3509  0.1368  0.5385
  134SAPE   H5R14474   1.148   6.686   9.761  2.6513  0.6695  2.0142
  134SAPE   C2614475   1.160   6.781   9.577 -1.0863 -0.6786  0.6992
  134SAPE   H6R14476   1.190   6.687   9.527  1.4905  1.0278 -1.2913
  134SAPE   C2714477   1.157   6.900   9.484  1.1735  0.1152  0.3370
  134SAPE   H7R14478   1.241   6.884   9.413  0.0920  0.7893 -1.1259
  134SAPE   H7S14479   1.168   7.001   9.528  0.6641 -0.1387  1.0641
  134SAPE   C2814480   1.023   6.906   9.417  0.0979 -0.1865  0.3045
  134SAPE   H8R14481   0.947   6.957   9.479  0.6152  0.7058  0.2284
  134SAPE   C2914482   0.987   6.854   9.299  0.3467 -0.1206  0.0831
  134SAPE   H9R14483   0.889   6.876   9.254  0.0588 -2.4989 -0.5846
  134SAPE  C21014484   1.080   6.780   9.204  0.0117  0.0013 -0.1485
  134SAPE  H10R14485   1.186   6.807   9.227  0.3367 -1.8392  0.6885
  134SAPE  H10S14486   1.067   6.811   9.098  1.1672  0.0916 -0.2763
  134SAPE  C21114487   1.081   6.628   9.206  0.3263  0.1702  0.0314
  134SAPE  H11R14488   1.087   6.584   9.306  0.3139  3.7379  1.7444
  134SAPE  C21214489   1.053   6.543   9.106  0.1201  0.4271 -0.3995
  134SAPE  H12R14490   1.039   6.436   9.128  0.7487  0.6384  1.1559
  134SAPE  C21314491   1.027   6.593   8.967  0.1229  0.6642 -0.4358
  134SAPE  H13R14492   1.105   6.661   8.925  0.4108  1.4535  1.2610
  134SAPE  H13S14493   0.938   6.659   8.973 -0.7089 -0.4968  0.3272
  134SAPE  C21414494   1.002   6.486   8.863 -0.0421 -0.0058 -0.0594
  134SAPE  H14R14495   0.954   6.394   8.901  2.1202 -2.2836 -2.3763
  134SAPE  C21514496   1.030   6.481   8.728  0.8703  0.1351 -0.7205
  134SAPE  H15R14497   0.999   6.391   8.672  0.7883 -0.9455  0.9939
  134SAPE  C21614498   1.089   6.578   8.637  0.1229 -0.1699 -0.1909
  134SAPE  H16R14499   1.079   6.680   8.679 -2.2250 -0.9168  1.1975
  134SAPE  H16S14500   1.046   6.581   8.535 -0.5544  2.3892  0.1263
  134SAPE  C21714501   1.238   6.554   8.607 -0.5547  0.4672 -0.1288
  134SAPE  H17R14502   1.256   6.460   8.550  2.0026  2.8264 -3.6707
  134SAPE  H17S14503   1.288   6.555   8.707 -1.7948 -0.3591  0.5198
  134SAPE  C21814504   1.309   6.657   8.513  0.3627  0.1909 -0.4413
  134SAPE  H18R14505   1.280   6.761   8.536  0.5770  1.0537 -3.6580
  134SAPE  H18S14506   1.258   6.638   8.417  0.7538  0.9989 -0.8154
  134SAPE  C21914507   1.455   6.644   8.501 -0.8361  0.3063 -0.2312
  134SAPE  H19R14508   1.491   6.600   8.596  0.5486  0.0453 -0.8582
  134SAPE  H19S14509   1.500   6.746   8.497 -0.1691  0.1295  1.8092
  134SAPE  C22014510   1.507   6.555   8.385  0.5270  0.4368 -0.9521
  134SAPE  H20R14511   1.462   6.454   8.401  1.8716 -0.3685 -2.0612
  134SAPE  H20S14512   1.613   6.531   8.406 -0.2462 -1.8582  0.9322
  134SAPE  H20T14513   1.473   6.589   8.285 -0.0959  0.4508 -0.7429
  134SAPE   C3314514   0.804   7.220   9.922  0.4567 -0.1319  0.5075
  134SAPE   H3X14515   0.807   7.110   9.928 -0.3712 -0.4030 -2.3648
  134SAPE   H3Y14516   0.879   7.250   9.846  0.7281 -1.0086  0.4235
  134SAPE   C3414517   0.659   7.274   9.877  0.2803  0.5853 -0.0908
  134SAPE   H4X14518   0.663   7.385   9.876 -1.5808  0.6745 -0.8848
  134SAPE   H4Y14519   0.576   7.255   9.948  0.6785 -0.8068  0.0337
  134SAPE   C3514520   0.627   7.230   9.732 -0.9213 -0.4767  0.5468
  134SAPE   H5X14521   0.527   7.267   9.702 -0.3788  0.2481 -0.4082
  134SAPE   H5Y14522   0.625   7.118   9.732 -2.0250 -0.5702  3.6221
  134SAPE   C3614523   0.726   7.293   9.628 -0.6380 -0.0853  0.3529
  134SAPE   H6X14524   0.819   7.320   9.682 -0.8282  1.7674 -0.1891
  134SAPE   H6Y14525   0.692   7.395   9.600 -0.6551 -0.1575  0.1117
  134SAPE   C3714526   0.763   7.207   9.503 -0.0514 -0.0259 -0.6308
  134SAPE   H7X14527   0.802   7.112   9.545 -1.7710 -0.6044 -0.2419
  134SAPE   H7Y14528   0.848   7.256   9.452 -0.5858  0.2757 -1.2415
  134SAPE   C3814529   0.640   7.176   9.418 -0.7808  0.5248  0.1647
  134SAPE   H8X14530   0.588   7.273   9.403 -2.0708 -0.4095 -1.8846
  134SAPE   H8Y14531   0.587   7.101   9.480 -0.0130 -0.7546 -0.6882
  134SAPE   C3914532   0.690   7.116   9.288  0.0145  0.2768 -0.1707
  134SAPE   H9X14533   0.758   7.029   9.301  1.7532  1.5407 -0.4624
  134SAPE   H9Y14534   0.742   7.199   9.237  1.2006 -0.6771 -0.5593
  134SAPE  C31014535   0.573   7.072   9.200  0.1679 -0.2798 -0.7176
  134SAPE  H10X14536   0.533   7.167   9.158 -3.1875 -1.0887  0.3444
  134SAPE  H10Y14537   0.495   7.031   9.267  0.9818 -0.3427  0.2072
  134SAPE  C31114538   0.612   6.958   9.097  0.6155  0.1857  0.2789
  134SAPE  H11X14539   0.520   6.944   9.036  0.3155 -2.2964  1.1714
  134SAPE  H11Y14540   0.641   6.861   9.143  1.2394  0.4546  0.4659
  134SAPE  C31214541   0.731   6.999   9.008 -0.4806  0.0304  0.3925
  134SAPE  H12X14542   0.833   6.967   9.041  0.5423  0.7958 -1.8479
  134SAPE  H12Y14543   0.735   7.110   9.009 -1.9822  0.1405  2.4388
  134SAPE  C31314544   0.717   6.933   8.868 -0.3102  0.2278 -0.0729
  134SAPE  H13X14545   0.705   6.824   8.882 -4.0903  0.6935  1.5084
  134SAPE  H13Y14546   0.820   6.939   8.825 -1.0053 -0.6370 -2.0085
  134SAPE  C31414547   0.624   7.011   8.776 -0.0063  0.1486 -0.6923
  134SAPE  H14X14548   0.641   7.120   8.790 -3.8057  0.8309 -0.4521
  134SAPE  H14Y14549   0.516   7.000   8.796 -0.3599  2.2443 -1.2373
  134SAPE  C31514550   0.655   6.982   8.629  0.4683  0.4611 -0.8335
  134SAPE  H15X14551   0.645   6.871   8.622  1.1729  0.4572 -1.9311
  134SAPE  H15Y14552   0.756   7.013   8.595 -0.4306  2.9621 -1.4499
  134SAPE  C31614553   0.548   7.040   8.538 -0.3396  0.4473 -0.1141
  134SAPE  H16X14554   0.532   7.149   8.554 -1.6715 -0.2055  3.9777
  134SAPE  H16Y14555   0.451   6.987   8.554 -1.2474  1.6252 -1.4192
  134SAPE  C31714556   0.571   7.000   8.393 -0.6556  0.3385 -0.2367
  134SAPE  H17X14557   0.475   7.005   8.337 -1.1995  1.3621  0.7567
  134SAPE  H17Y14558   0.604   6.894   8.387  1.1820  0.8296  0.5686
  134SAPE  C31814559   0.681   7.078   8.326 -0.4242 -0.2048  0.3498
  134SAPE  H18X14560   0.780   7.050   8.367 -0.1255  0.0434 -0.1789
  134SAPE  H18Y14561   0.680   7.189   8.328 -0.1918 -0.1758 -0.5368
  134SAPE  H18Z14562   0.678   7.054   8.217 -2.0228 -1.4887  0.6484
  135SAPE     N14563   2.694   6.069  10.722 -0.1583 -0.6488 -0.5352
  135SAPE   HN114564   2.611   6.007  10.712 -2.4146  2.2536 -1.0490
  135SAPE   HN214565   2.693   6.096  10.822 -0.1924  0.7644 -0.8990
  135SAPE   HN314566   2.681   6.158  10.670  1.6352 -1.2979 -2.2407
  135SAPE   C1214567   2.822   6.026  10.661  0.0103 -0.4230 -0.5307
  135SAPE  H12A14568   2.825   6.038  10.551  3.0773  1.0301 -0.3781
  135SAPE  H12B14569   2.837   5.920  10.691 -0.8619 -0.2319  0.6611
  135SAPE   C1114570   2.941   6.113  10.720  0.0290 -0.0324  0.2355
  135SAPE  H11A14571   2.937   6.115  10.831 -1.2989  2.9199  0.2386
  135SAPE  H11B14572   2.925   6.215  10.679  1.8528  0.5320  0.8327
  135SAPE     P14573   3.186   6.129  10.594  0.4790  0.2833 -0.5649
  135SAPE   O1314574   3.224   6.269  10.633 -0.0546  0.7653 -0.2207
  135SAPE   O1414575   3.301   6.037  10.596 -0.9236  0.3689 -0.3182
  135SAPE   O1214576   3.076   6.060  10.685 -0.0721 -0.3401 -0.4920
  135SAPE   O1114577   3.127   6.132  10.449  0.2498 -0.1924  0.2295
  135SAPE    C114578   3.076   6.255  10.397 -0.6909  0.2823  0.0336
  135SAPE    HA14579   2.986   6.283  10.456  0.5608 -1.1586  2.7656
  135SAPE    HB14580   3.150   6.338  10.396 -0.7369  0.3362 -1.6226
  135SAPE    C214581   3.035   6.241  10.250  0.2368  0.5768 -0.4072
  135SAPE    HS14582   2.934   6.193  10.253  0.0364  0.9926 -0.4794
  135SAPE   O2114583   3.131   6.161  10.181  0.1340  0.2104 -0.4232
  135SAPE   C2114584   3.093   6.070  10.097 -0.5249 -0.1601  0.3997
  135SAPE   O2214585   2.980   6.043  10.060 -0.0420 -0.0704 -0.4443
  135SAPE   C2214586   3.216   5.998  10.046 -0.5300  0.2589  0.6144
  135SAPE   H2R14587   3.305   6.048  10.090 -0.2701 -1.9091  2.6975
  135SAPE   H2S14588   3.217   5.899  10.095 -1.1091 -0.4638 -0.7657
  135SAPE    C314589   3.032   6.383  10.185  0.4565 -0.2095  0.2253
  135SAPE    HX14590   3.132   6.432  10.194  0.4651 -0.1613 -0.0949
  135SAPE    HY14591   2.964   6.440  10.251 -1.0959 -1.7839  0.0594
  135SAPE   O3114592   2.978   6.384  10.051  0.2120  1.0919 -0.4803
  135SAPE   C3114593   2.845   6.351  10.044  0.3885 -0.2040 -0.1569
  135SAPE   O3214594   2.776   6.319  10.144 -0.2042  0.0557  0.3094
  135SAPE   C3214595   2.794   6.355   9.903 -0.4370 -0.5235  0.7616
  135SAPE   H2X14596   2.877   6.332   9.834  1.5290  0.5278  2.6552
  135SAPE   H2Y14597   2.748   6.454   9.880 -1.9082 -1.7204 -1.9346
  135SAPE   C2314598   3.221   5.991   9.894  0.0239 -0.3384  0.6087
  135SAPE   H3R14599   3.151   5.915   9.853  1.0308 -1.4683  0.9158
  135SAPE   H3S14600   3.316   5.936   9.876  0.1174 -0.1196  0.4150
  135SAPE   C2414601   3.201   6.114   9.818 -0.6040  0.8634  0.5107
  135SAPE   H4R14602   3.283   6.186   9.843  1.5908 -1.0683 -0.7569
  135SAPE   H4S14603   3.103   6.161   9.840  0.0113  2.1848  0.5089
  135SAPE   C2514604   3.210   6.086   9.673  0.0382 -0.1793  0.3491
  135SAPE   H5R14605   3.252   5.987   9.648  0.3187  0.2846 -1.1105
  135SAPE   C2614606   3.178   6.161   9.565  0.7524 -0.7885 -0.0068
  135SAPE   H6R14607   3.196   6.123   9.463  3.1276  1.4099 -0.5118
  135SAPE   C2714608   3.116   6.294   9.556  0.9408  0.3024 -0.6755
  135SAPE   H7R14609   3.079   6.331   9.654 -0.5307 -1.2045 -0.6195
  135SAPE   H7S14610   3.020   6.302   9.501 -0.2403 -2.1581  0.8614
  135SAPE   C2814611   3.208   6.404   9.509  0.1925  0.5669  0.3026
  135SAPE   H8R14612   3.302   6.414   9.565  0.6770 -2.2871  0.1072
  135SAPE   C2914613   3.192   6.467   9.391 -0.7705 -0.5988 -0.3914
  135SAPE   H9R14614   3.265   6.543   9.361  0.2147 -1.1547  0.5467
  135SAPE  C21014615   3.085   6.439   9.283 -0.2291  0.2239 -0.4932
  135SAPE  H10R14616   3.082   6.528   9.217  2.8773 -1.4152 -3.1523
  135SAPE  H10S14617   2.989   6.421   9.337  1.9378 -2.6538  2.8411
  135SAPE  C21114618   3.127   6.324   9.190  0.2168  0.1204 -0.6782
  135SAPE  H11R14619   3.153   6.235   9.249 -2.0226 -0.2238 -0.1186
  135SAPE  C21214620   3.114   6.323   9.058 -0.2468  0.0758  0.5251
  135SAPE  H12R14621   3.147   6.229   9.012 -0.8379  0.8404 -1.5363
  135SAPE  C21314622   3.079   6.450   8.982 -0.0207  0.9070  0.7657
  135SAPE  H13R14623   3.139   6.530   9.031  0.6759  0.2593  0.9808
  135SAPE  H13S14624   2.970   6.468   8.987 -0.8266 -1.2997 -3.6972
  135SAPE  C21414625   3.105   6.455   8.831  0.1400  0.4140  0.1279
  135SAPE  H14R14626   3.196   6.401   8.802  0.7757  1.6030 -0.1495
  135SAPE  C21514627   3.031   6.513   8.733  0.5105 -0.2552 -0.9314
  135SAPE  H15R14628   3.069   6.512   8.630 -0.4225 -1.1916 -1.2885
  135SAPE  C21614629   2.902   6.591   8.754 -0.0319  0.3032 -0.8719
  135SAPE  H16R14630   2.906   6.675   8.682 -0.7701  0.4718 -0.7224
  135SAPE  H16S14631   2.892   6.634   8.855  0.6450  1.2898 -1.2137
  135SAPE  C21714632   2.784   6.493   8.726  0.9544 -0.3550  0.5901
  135SAPE  H17R14633   2.774   6.411   8.800  2.3183 -1.2907 -0.2088
  135SAPE  H17S14634   2.793   6.446   8.625 -1.4605  1.8068 -0.7594
  135SAPE  C21814635   2.648   6.558   8.715  0.4679  0.3954 -0.1346
  135SAPE  H18R14636   2.641   6.638   8.638 -0.7400 -0.2927 -0.7603
  135SAPE  H18S14637   2.624   6.611   8.810 -1.2796  0.8818 -0.8047
  135SAPE  C21914638   2.539   6.453   8.694  0.1953 -0.0855 -0.2559
  135SAPE  H19R14639   2.444   6.498   8.732  0.5535  0.1644  0.3459
  135SAPE  H19S14640   2.552   6.365   8.760 -0.6818 -0.3532 -0.4177
  135SAPE  C22014641   2.513   6.404   8.550 -0.4716 -0.3065  0.2241
  135SAPE  H20R14642   2.600   6.353   8.503 -0.4612 -0.6733  0.6327
  135SAPE  H20S14643   2.509   6.499   8.493  3.0709 -1.5637 -2.5316
  135SAPE  H20T14644   2.425   6.336   8.550 -3.2788  3.0500  0.2015
  135SAPE   C3314645   2.685   6.256   9.874  0.4733 -0.3269  0.0966
  135SAPE   H3X14646   2.603   6.270   9.948 -1.0882 -0.6111 -1.4948
  135SAPE   H3Y14647   2.719   6.151   9.883 -1.6802 -1.0129  0.8510
  135SAPE   C3414648   2.617   6.274   9.736  0.0232  0.0973  0.2831
  135SAPE   H4X14649   2.563   6.370   9.748 -0.3097 -0.3135  2.4439
  135SAPE   H4Y14650   2.540   6.195   9.750  0.0836  0.1075  0.6938
  135SAPE   C3514651   2.711   6.255   9.609 -0.2201  1.1865  0.0073
  135SAPE   H5X14652   2.772   6.164   9.628 -1.3160  0.8048  1.8876
  135SAPE   H5Y14653   2.782   6.339   9.589 -0.1280  0.9155 -0.8622
  135SAPE   C3614654   2.624   6.220   9.491 -0.6590  0.4717  0.5418
  135SAPE   H6X14655   2.568   6.308   9.453 -0.8086 -0.3911 -1.3467
  135SAPE   H6Y14656   2.551   6.140   9.517  0.8003 -1.1114 -0.0524
  135SAPE   C3714657   2.698   6.168   9.365 -1.3195  0.1706  0.1498
  135SAPE   H7X14658   2.769   6.084   9.377 -0.1379  0.9026 -1.3532
  135SAPE   H7Y14659   2.762   6.255   9.338  2.5041 -2.0730  1.2396
  135SAPE   C3814660   2.611   6.135   9.241  0.0699  0.3485 -0.1814
  135SAPE   H8X14661   2.552   6.223   9.209  1.1724  0.4675 -2.0434
  135SAPE   H8Y14662   2.553   6.042   9.259  1.0294 -0.3223 -0.4339
  135SAPE   C3914663   2.707   6.096   9.124 -0.0014  0.0109 -0.6665
  135SAPE   H9X14664   2.771   6.010   9.151 -1.7383 -1.0282  0.3043
  135SAPE   H9Y14665   2.791   6.166   9.102 -0.7466  0.3759 -2.6148
  135SAPE  C31014666   2.635   6.066   8.991  0.3205  0.5043 -0.2839
  135SAPE  H10X14667   2.599   6.161   8.947 -2.6952 -1.3684 -2.2855
  135SAPE  H10Y14668   2.541   6.008   9.008 -1.0677  2.7740  0.2390
  135SAPE  C31114669   2.731   6.002   8.887  0.2015  0.4838 -0.8700
  135SAPE  H11X14670   2.668   5.970   8.801  0.4746 -1.7731 -0.2896
  135SAPE  H11Y14671   2.777   5.913   8.935  2.1752  1.8945  0.0191
  135SAPE  C31214672   2.842   6.104   8.836 -0.3701 -0.5725 -0.0569
  135SAPE  H12X14673   2.912   6.135   8.916 -2.0688 -1.3442  1.8259
  135SAPE  H12Y14674   2.806   6.196   8.784  0.5699 -0.0069  0.2673
  135SAPE  C31314675   2.932   6.036   8.730  0.2516 -0.5905 -0.5654
  135SAPE  H13X14676   2.874   6.004   8.641 -1.6415  1.5659 -0.2035
  135SAPE  H13Y14677   2.968   5.951   8.791 -0.2868  1.6552  3.2301
  135SAPE  C31414678   3.036   6.135   8.684 -0.4751  0.0412  0.4881
  135SAPE  H14X14679   3.107   6.161   8.766  1.0031 -1.8090 -0.1314
  135SAPE  H14Y14680   2.991   6.232   8.654 -1.9219 -0.7157  0.1090
  135SAPE  C31514681   3.122   6.087   8.563  0.0893  0.7217  0.0445
  135SAPE  H15X14682   3.158   5.983   8.583  0.6028  0.7098 -0.8730
  135SAPE  H15Y14683   3.214   6.148   8.566 -0.7347  2.1760 -1.8847
  135SAPE  C31614684   3.059   6.095   8.430  0.5034  0.0090 -1.2439
  135SAPE  H16X14685   3.026   6.199   8.407 -0.0017  0.3254  0.7323
  135SAPE  H16Y14686   2.968   6.032   8.423 -0.9597  1.9746 -0.9603
  135SAPE  C31714687   3.145   6.040   8.317 -0.2020 -0.0840  0.3760
  135SAPE  H17X14688   3.157   5.931   8.330 -0.0670 -0.0221  0.7925
  135SAPE  H17Y14689   3.248   6.081   8.328 -0.1912 -0.2906  1.0849
  135SAPE  C31814690   3.081   6.066   8.180  0.2804  0.4231 -0.5885
  135SAPE  H18X14691   3.146   6.024   8.100  0.7628  0.2082 -0.0861
  135SAPE  H18Y14692   3.061   6.174   8.160 -1.2596 -0.3125 -3.8190
  135SAPE  H18Z14693   2.981   6.021   8.196  0.2484 -1.2407 -4.3792
  136SAPE     N14694   3.258   6.539  10.614 -0.2599  0.3727 -0.1087
  136SAPE   HN114695   3.236   6.568  10.711  0.3730  0.6601 -0.0465
  136SAPE   HN214696   3.191   6.589  10.551 -0.1180  0.1440 -0.4454
  136SAPE   HN314697   3.239   6.437  10.614  0.9851  0.1212  0.3804
  136SAPE   C1214698   3.400   6.565  10.581  0.4935  0.3315 -0.0198
  136SAPE  H12A14699   3.407   6.675  10.567 -0.8619  0.9414  3.1247
  136SAPE  H12B14700   3.418   6.496  10.496 -0.8281 -1.1760  0.8438
  136SAPE   C1114701   3.481   6.537  10.706 -0.0841  0.5798  0.2465
  136SAPE  H11A14702   3.449   6.592  10.797  1.6372  0.1270  1.1812
  136SAPE  H11B14703   3.580   6.576  10.675 -0.9574  2.6340 -0.0965
  136SAPE     P14704   3.619   6.330  10.746 -0.1129 -0.1277  0.0775
  136SAPE   O1314705   3.727   6.428  10.785  0.4415  0.2602 -0.2525
  136SAPE   O1414706   3.611   6.198  10.819 -0.4403 -0.0397  0.0501
  136SAPE   O1214707   3.477   6.396  10.741  0.5155 -0.2795  0.5881
  136SAPE   O1114708   3.659   6.304  10.597 -0.1067  0.6700 -0.5503
  136SAPE    C114709   3.567   6.245  10.507  0.3093 -0.3117  1.2971
  136SAPE    HA14710   3.570   6.134  10.504 -2.2698 -0.4510 -1.0757
  136SAPE    HB14711   3.461   6.264  10.535  0.3830  3.1424 -0.2858
  136SAPE    C214712   3.585   6.298  10.356 -0.9474 -0.0043  0.2907
  136SAPE    HS14713   3.678   6.245  10.325 -0.4107 -0.5076  2.5839
  136SAPE   O2114714   3.609   6.446  10.363 -0.4291  0.4309  0.3682
  136SAPE   C2114715   3.733   6.481  10.372  0.0458  0.1802  0.2730
  136SAPE   O2214716   3.831   6.410  10.355  0.4370  0.2008  0.0671
  136SAPE   C2214717   3.731   6.633  10.385 -0.1611 -0.0177  0.2295
  136SAPE   H2R14718   3.643   6.682  10.337 -0.6545 -0.3007  0.8232
  136SAPE   H2S14719   3.717   6.650  10.494  0.0517  0.7023  0.1441
  136SAPE    C314720   3.469   6.261  10.264  0.8464 -0.1592  0.1788
  136SAPE    HX14721   3.379   6.303  10.314  0.8295  0.6418 -0.5122
  136SAPE    HY14722   3.469   6.150  10.258  1.6390 -0.1453 -0.2309
  136SAPE   O3114723   3.483   6.306  10.123 -0.6221 -0.0622 -0.3079
  136SAPE   C3114724   3.413   6.413  10.093 -0.7941 -0.2855 -0.4160
  136SAPE   O3214725   3.351   6.478  10.177  0.0229  0.2436  0.3707
  136SAPE   C3214726   3.409   6.454   9.945  0.2191  0.2337  0.4623
  136SAPE   H2X14727   3.323   6.405   9.896  0.6120  1.2798 -1.3442
  136SAPE   H2Y14728   3.505   6.415   9.905 -0.4891 -0.2162 -0.8345
  136SAPE   C2314729   3.866   6.704  10.347  0.4293 -0.0661 -0.3213
  136SAPE   H3R14730   3.945   6.637  10.386  0.2787 -0.2907 -0.3948
  136SAPE   H3S14731   3.877   6.803  10.395  4.0708  0.2545 -1.5045
  136SAPE   C2414732   3.889   6.719  10.200 -0.0336 -0.1588 -0.0095
  136SAPE   H4R14733   3.879   6.614  10.166 -1.5454 -0.8404  2.3292
  136SAPE   H4S14734   3.996   6.747  10.186 -0.1068  0.3443  0.4156
  136SAPE   C2514735   3.787   6.812  10.135 -0.4353  0.6873  0.0281
  136SAPE   H5R14736   3.693   6.823  10.191  0.7132  0.9049  2.0135
  136SAPE   C2614737   3.817   6.890  10.027 -0.2500  0.4995  0.4775
  136SAPE   H6R14738   3.744   6.969  10.003  0.0848  0.7893  0.4113
  136SAPE   C2714739   3.945   6.895   9.947  0.0763  0.0150  0.7625
  136SAPE   H7R14740   4.000   6.804   9.980 -0.5387 -0.0317  1.6933
  136SAPE   H7S14741   4.000   6.987   9.979 -1.1709  0.5627  1.3927
  136SAPE   C2814742   3.942   6.879   9.802  0.4167  0.0444  0.2660
  136SAPE   H8R14743   3.897   6.791   9.754  0.9457  1.1566 -2.4195
  136SAPE   C2914744   4.005   6.957   9.715 -0.0179 -0.1969  0.5157
  136SAPE   H9R14745   4.003   6.929   9.609 -0.9658  0.9215  0.2192
  136SAPE  C21014746   4.084   7.084   9.737 -0.4454  0.1166 -0.0062
  136SAPE  H10R14747   4.021   7.139   9.810  2.5615 -0.9398  3.6771
  136SAPE  H10S14748   4.075   7.152   9.650 -2.2835 -0.4813 -0.3335
  136SAPE  C21114749   4.225   7.069   9.784  0.1809 -0.3387 -0.5131
  136SAPE  H11R14750   4.245   7.022   9.882  0.3610 -0.3322 -0.5484
  136SAPE  C21214751   4.334   7.098   9.714  0.5901  0.0506  0.0771
  136SAPE  H12R14752   4.436   7.077   9.748  0.4021  2.2627  2.3028
  136SAPE  C21314753   4.324   7.152   9.568 -0.4590  0.4464 -0.9853
  136SAPE  H13R14754   4.417   7.196   9.528  1.4928 -3.0317 -0.6888
  136SAPE  H13S14755   4.246   7.231   9.560  0.9705  1.9967 -0.3274
  136SAPE  C21414756   4.283   7.041   9.482  0.1120  0.0454  0.1800
  136SAPE  H14R14757   4.180   7.012   9.508  0.6429 -2.2735 -0.1081
  136SAPE  C21514758   4.358   6.981   9.386  0.5165  1.0330 -0.6452
  136SAPE  H15R14759   4.299   6.909   9.328 -0.1107  0.1662  1.0156
  136SAPE  C21614760   4.500   7.006   9.348  0.0137 -0.1974 -0.4499
  136SAPE  H16R14761   4.550   6.907   9.352 -1.6330 -1.1276 -1.3701
  136SAPE  H16S14762   4.545   7.067   9.428  1.1176  0.4081 -1.4949
  136SAPE  C21714763   4.516   7.066   9.205 -0.6262  0.7479 -0.8127
  136SAPE  H17R14764   4.626   7.078   9.206 -0.3602 -1.3434  0.5607
  136SAPE  H17S14765   4.466   7.165   9.212 -1.2578  0.3280  1.0776
  136SAPE  C21814766   4.468   6.975   9.096 -0.0815 -0.4917 -0.4595
  136SAPE  H18R14767   4.357   6.974   9.106 -0.2483  2.3517 -1.2189
  136SAPE  H18S14768   4.510   6.872   9.105 -1.9352 -1.1277  1.8113
  136SAPE  C21914769   4.489   7.024   8.958  0.2524  0.2830  0.2908
  136SAPE  H19R14770   4.595   7.051   8.940  0.4264 -0.8564 -0.5508
  136SAPE  H19S14771   4.425   7.114   8.946 -0.6789 -0.0339  2.3883
  136SAPE  C22014772   4.453   6.915   8.861 -0.4109  0.5007 -0.1032
  136SAPE  H20R14773   4.472   6.949   8.757 -1.1920  2.1024  0.2361
  136SAPE  H20S14774   4.350   6.875   8.875 -0.0923 -0.6129 -0.8682
  136SAPE  H20T14775   4.514   6.823   8.871  1.6974  1.8103 -0.4837
  136SAPE   C3314776   3.387   6.613   9.922  0.1242  0.6944  0.4245
  136SAPE   H3X14777   3.453   6.672   9.990  0.8719  1.6581 -1.0897
  136SAPE   H3Y14778   3.285   6.641   9.954 -0.3615 -0.4222 -0.1207
  136SAPE   C3414779   3.400   6.666   9.779 -0.8302  0.3359  0.3491
  136SAPE   H4X14780   3.360   6.769   9.785 -1.1189  0.2171  0.4752
  136SAPE   H4Y14781   3.350   6.602   9.703  0.8029 -1.1306  0.4443
  136SAPE   C3514782   3.555   6.658   9.752 -0.0880 -0.3811  0.3467
  136SAPE   H5X14783   3.584   6.555   9.782  0.5861 -0.5231 -0.7300
  136SAPE   H5Y14784   3.616   6.730   9.810  1.3079 -1.2294 -0.0245
  136SAPE   C3614785   3.590   6.670   9.599 -0.6298  0.1062 -0.7212
  136SAPE   H6X14786   3.587   6.568   9.556  2.1574 -0.3566  0.0223
  136SAPE   H6Y14787   3.697   6.694   9.585 -0.8581  0.7672 -1.3937
  136SAPE   C3714788   3.505   6.766   9.517  0.4311 -0.2817  0.1156
  136SAPE   H7X14789   3.515   6.860   9.574  0.4253  0.1649 -0.6085
  136SAPE   H7Y14790   3.398   6.736   9.508  0.3940  0.4542 -2.6909
  136SAPE   C3814791   3.544   6.774   9.375  0.9052 -0.3891 -0.5352
  136SAPE   H8X14792   3.539   6.668   9.343  3.3146 -0.8595  0.3584
  136SAPE   H8Y14793   3.652   6.803   9.376  1.2959 -1.7053  1.1538
  136SAPE   C3914794   3.465   6.870   9.278  0.0412  0.7577 -0.4939
  136SAPE   H9X14795   3.460   6.972   9.321  1.3077  0.7530 -0.2799
  136SAPE   H9Y14796   3.361   6.832   9.272 -0.2156  1.5128 -0.9872
  136SAPE  C31014797   3.514   6.878   9.135  0.2327 -0.5076 -0.4233
  136SAPE  H10X14798   3.520   6.770   9.110 -0.3056 -0.3682 -1.1913
  136SAPE  H10Y14799   3.615   6.921   9.118 -0.4211  0.4993 -1.9508
  136SAPE  C31114800   3.419   6.966   9.051 -0.2013  0.9082 -0.1605
  136SAPE  H11X14801   3.421   7.072   9.083 -1.0351  0.7062  0.5979
  136SAPE  H11Y14802   3.312   6.936   9.059 -0.0930 -0.3875 -2.5126
  136SAPE  C31214803   3.437   6.952   8.899  0.4121  0.3343  0.2066
  136SAPE  H12X14804   3.539   6.991   8.881  0.1133  0.5602 -1.0879
  136SAPE  H12Y14805   3.366   7.004   8.831  0.9111  0.6763 -0.0611
  136SAPE  C31314806   3.438   6.807   8.856 -0.5191  0.3143  0.3847
  136SAPE  H13X14807   3.347   6.744   8.867  0.2629 -0.8184  0.5764
  136SAPE  H13Y14808   3.523   6.761   8.911 -1.2134  0.8057  1.9443
  136SAPE  C31414809   3.471   6.789   8.698  0.5798 -0.7259  0.1352
  136SAPE  H14X14810   3.575   6.822   8.676 -0.5380  2.9413 -0.3345
  136SAPE  H14Y14811   3.402   6.858   8.646  0.6659 -0.8550 -0.1542
  136SAPE  C31514812   3.455   6.642   8.640 -0.4026  0.0806 -0.2610
  136SAPE  H15X14813   3.473   6.650   8.531 -1.2270 -1.5408 -0.5568
  136SAPE  H15Y14814   3.352   6.600   8.647  0.5964 -2.8661 -1.3606
  136SAPE  C31614815   3.541   6.528   8.701  0.0000 -0.2128  0.9190
  136SAPE  H16X14816   3.535   6.436   8.639 -0.2410 -0.5736  1.4616
  136SAPE  H16Y14817   3.503   6.521   8.805  0.4783 -1.6303  1.0202
  136SAPE  C31714818   3.696   6.550   8.703  0.4126 -0.0816  0.8325
  136SAPE  H17X14819   3.742   6.459   8.747  1.1197  0.7613  1.9036
  136SAPE  H17Y14820   3.725   6.632   8.772  0.2233 -1.7041  2.9135
  136SAPE  C31814821   3.762   6.584   8.571 -0.7494 -0.5640  0.2050
  136SAPE  H18X14822   3.719   6.675   8.525  0.9352  0.1437 -0.0650
  136SAPE  H18Y14823   3.745   6.502   8.498 -0.6809 -1.4972  1.2044
  136SAPE  H18Z14824   3.868   6.608   8.594 -1.0159  1.3272 -0.3559
  137SAPE     N14825   2.081   1.556  10.827 -0.1383  0.3967 -0.1246
  137SAPE   HN114826   2.132   1.467  10.844 -0.1454 -0.2327 -2.9930
  137SAPE   HN214827   2.028   1.533  10.740  1.7766  0.4421 -1.3534
  137SAPE   HN314828   2.147   1.627  10.790  1.1499 -1.0646 -0.7247
  137SAPE   C1214829   1.987   1.605  10.937  0.1218  0.5093  0.4610
  137SAPE  H12A14830   1.947   1.704  10.906 -1.2271  0.4092  1.7920
  137SAPE  H12B14831   2.041   1.616  11.034 -0.3655 -1.1589  0.9455
  137SAPE   C1114832   1.879   1.491  10.949  0.3388 -1.1082  0.2249
  137SAPE  H11A14833   1.840   1.503  11.053  0.0274  0.8686 -0.0884
  137SAPE  H11B14834   1.920   1.390  10.925  1.1149 -0.6333 -0.4914
  137SAPE     P14835   1.634   1.425  10.862  0.2786 -0.1767  0.4709
  137SAPE   O1314836   1.661   1.287  10.834 -0.5877 -0.1032 -0.2812
  137SAPE   O1414837   1.558   1.457  10.987 -0.3867  0.0197  0.6839
  137SAPE   O1214838   1.769   1.504  10.857 -0.6442  0.0894 -0.5536
  137SAPE   O1114839   1.563   1.481  10.734 -0.1550  0.3056 -0.6350
  137SAPE    C114840   1.552   1.620  10.731  0.1013 -0.2647 -0.3387
  137SAPE    HA14841   1.445   1.649  10.728  1.1200  4.4461  0.5233
  137SAPE    HB14842   1.571   1.680  10.823 -0.0216 -0.5014 -0.1585
  137SAPE    C214843   1.616   1.682  10.600 -0.5588  0.3513 -0.7499
  137SAPE    HS14844   1.582   1.788  10.599  0.1163  0.6267  1.1555
  137SAPE   O2114845   1.584   1.618  10.479  0.1434 -0.3497  0.1402
  137SAPE   C2114846   1.464   1.655  10.435  0.1720  0.0063 -0.4309
  137SAPE   O2214847   1.381   1.726  10.494 -1.1603 -0.2813 -0.3191
  137SAPE   C2214848   1.452   1.597  10.292  0.0991 -0.2048 -0.2521
  137SAPE   H2R14849   1.555   1.573  10.257  0.2888 -2.3638  1.6046
  137SAPE   H2S14850   1.403   1.497  10.298  1.5310 -1.1039 -2.2007
  137SAPE    C314851   1.769   1.694  10.613 -0.3724 -0.2491 -0.6334
  137SAPE    HX14852   1.815   1.595  10.632  1.6011  0.6979 -0.2161
  137SAPE    HY14853   1.787   1.740  10.712 -0.3626 -1.0926 -0.2337
  137SAPE   O3114854   1.829   1.761  10.498  0.0876  0.3375  0.4812
  137SAPE   C3114855   1.946   1.816  10.513 -0.0740  0.1813 -0.2232
  137SAPE   O3214856   2.020   1.788  10.605  0.0849  0.2234 -0.0846
  137SAPE   C3214857   1.976   1.921  10.402  0.3196  0.1690 -0.7120
  137SAPE   H2X14858   2.085   1.941  10.405  0.7443 -2.0220  0.1883
  137SAPE   H2Y14859   1.915   2.011  10.423 -2.0343 -1.5123  0.0981
  137SAPE   C2314860   1.365   1.676  10.185  0.0508  0.8361 -0.2657
  137SAPE   H3R14861   1.259   1.692  10.215 -0.6352  0.6775 -2.4066
  137SAPE   H3S14862   1.362   1.594  10.110 -2.1311 -0.7831  1.4226
  137SAPE   C2414863   1.431   1.797  10.123 -0.3608 -1.2077 -0.0772
  137SAPE   H4R14864   1.432   1.881  10.195  2.5287 -0.2933 -1.0344
  137SAPE   H4S14865   1.370   1.819  10.033 -0.7119  0.3342  0.5082
  137SAPE   C2514866   1.577   1.763  10.092 -0.1416 -0.1364 -0.5860
  137SAPE   H5R14867   1.637   1.774  10.183 -1.9167  3.0071  0.3223
  137SAPE   C2614868   1.639   1.739   9.975 -0.5911  0.1963  0.1595
  137SAPE   H6R14869   1.747   1.718   9.977 -0.5643  0.1826  2.6286
  137SAPE   C2714870   1.576   1.750   9.841  0.0558  0.8593 -0.6934
  137SAPE   H7R14871   1.638   1.816   9.777  1.2190 -0.0998 -0.5929
  137SAPE   H7S14872   1.473   1.789   9.856 -0.9831 -1.2252 -1.8789
  137SAPE   C2814873   1.549   1.618   9.770  0.8474  0.5584 -0.7367
  137SAPE   H8R14874   1.498   1.542   9.832  0.8873  2.0750  1.2538
  137SAPE   C2914875   1.564   1.598   9.637  0.2452 -0.1055 -0.3537
  137SAPE   H9R14876   1.517   1.512   9.587  0.5777  0.0099 -0.8697
  137SAPE  C21014877   1.615   1.698   9.540  0.9461 -0.6751  0.0372
  137SAPE  H10R14878   1.693   1.755   9.595  0.2572  0.6341 -0.2959
  137SAPE  H10S14879   1.537   1.776   9.532  0.5475 -1.1802 -1.1736
  137SAPE  C21114880   1.657   1.645   9.408  0.3687  0.0344  0.3556
  137SAPE  H11R14881   1.710   1.549   9.421  0.1232 -0.1307  0.1535
  137SAPE  C21214882   1.644   1.682   9.278 -0.4426 -0.2211  0.0518
  137SAPE  H12R14883   1.709   1.625   9.210 -0.7900 -0.7542  0.1579
  137SAPE  C21314884   1.571   1.803   9.240 -0.2656 -0.9966 -0.3632
  137SAPE  H13R14885   1.599   1.881   9.315  0.4555 -1.3400 -0.2763
  137SAPE  H13S14886   1.462   1.803   9.264 -0.0746  0.7454  0.7364
  137SAPE  C21414887   1.602   1.851   9.098 -0.5749  0.6958  0.0330
  137SAPE  H14R14888   1.675   1.933   9.088  2.2304 -1.8214 -1.7398
  137SAPE  C21514889   1.545   1.797   8.988 -0.2275 -1.1584 -0.0839
  137SAPE  H15R14890   1.574   1.845   8.893  0.1111  1.2550  1.1664
  137SAPE  C21614891   1.443   1.687   9.004  0.6091  0.1188  0.5106
  137SAPE  H16R14892   1.341   1.732   9.010  1.2220  1.7764 -0.9034
  137SAPE  H16S14893   1.463   1.625   9.094  1.3026  2.0746  1.7688
  137SAPE  C21714894   1.444   1.590   8.884  0.0881 -0.2706  0.3749
  137SAPE  H17R14895   1.535   1.526   8.882  0.5779  0.2691  2.5894
  137SAPE  H17S14896   1.443   1.656   8.795 -1.8070  0.6160  1.0002
  137SAPE  C21814897   1.320   1.491   8.866 -0.1374  0.1499 -0.1983
  137SAPE  H18R14898   1.285   1.488   8.972 -0.4868  1.4563 -0.2594
  137SAPE  H18S14899   1.356   1.393   8.828 -0.1784 -0.2202  0.6922
  137SAPE  C21914900   1.207   1.548   8.771 -0.7123 -0.0630  0.2417
  137SAPE  H19R14901   1.144   1.460   8.747 -2.6927  1.7562 -1.6687
  137SAPE  H19S14902   1.261   1.576   8.678 -1.3838  2.7020  0.5975
  137SAPE  C22014903   1.128   1.662   8.835  0.2567 -0.1892  0.3562
  137SAPE  H20R14904   1.188   1.754   8.848  0.8122 -0.4848 -0.0860
  137SAPE  H20S14905   1.086   1.628   8.933 -3.4207  0.3631 -0.8586
  137SAPE  H20T14906   1.038   1.683   8.773  1.3537  1.5671 -0.7249
  137SAPE   C3314907   1.938   1.889  10.262  0.7057  0.1398  0.3589
  137SAPE   H3X14908   1.941   1.991  10.216  0.8137  0.2443  0.5953
  137SAPE   H3Y14909   1.833   1.853  10.254 -0.4209  2.7761  1.7474
  137SAPE   C3414910   2.041   1.805  10.186 -0.2311 -0.1208  0.0906
  137SAPE   H4X14911   1.990   1.711  10.156 -1.0753  0.2995  0.1707
  137SAPE   H4Y14912   2.128   1.781  10.251 -1.1574 -0.1035  1.4016
  137SAPE   C3514913   2.082   1.866  10.054 -0.1382  0.2284 -0.0549
  137SAPE   H5X14914   2.124   1.965  10.080  1.0463 -0.3380  0.2695
  137SAPE   H5Y14915   1.998   1.876   9.982  0.0361  1.8848 -0.0689
  137SAPE   C3614916   2.192   1.773  10.000  0.7902  0.4712  0.7644
  137SAPE   H6X14917   2.159   1.667  10.000  0.5304  0.5466  0.1011
  137SAPE   H6Y14918   2.281   1.767  10.066  2.6843  0.9446 -1.5848
  137SAPE   C3714919   2.243   1.807   9.858  0.6721  0.2927 -0.0886
  137SAPE   H7X14920   2.313   1.727   9.827 -2.9836 -2.7745 -1.1633
  137SAPE   H7Y14921   2.287   1.908   9.877  0.5906  0.3947 -0.4311
  137SAPE   C3814922   2.131   1.807   9.752  0.4133  0.1329  0.1496
  137SAPE   H8X14923   2.043   1.871   9.776 -0.6011 -0.4150 -1.9222
  137SAPE   H8Y14924   2.085   1.707   9.743 -0.3476  0.4870  0.0629
  137SAPE   C3914925   2.181   1.845   9.609 -0.7864  0.3886  0.1780
  137SAPE   H9X14926   2.275   1.794   9.579 -0.1588  1.1842  0.7667
  137SAPE   H9Y14927   2.205   1.953   9.614  1.3478 -0.0926  1.9433
  137SAPE  C31014928   2.072   1.809   9.502  0.9134  0.2348  0.5073
  137SAPE  H10X14929   1.973   1.843   9.539 -0.8197 -0.5080 -3.0558
  137SAPE  H10Y14930   2.070   1.698   9.489  0.6630  0.4242 -1.2732
  137SAPE  C31114931   2.109   1.872   9.374 -0.2378 -0.2479  0.6850
  137SAPE  H11X14932   2.217   1.847   9.363  0.2028  0.1079  3.5444
  137SAPE  H11Y14933   2.110   1.983   9.384 -1.0887 -0.1260 -0.3563
  137SAPE  C31214934   2.022   1.823   9.257 -0.4894  0.1662 -0.2254
  137SAPE  H12X14935   1.916   1.843   9.285 -1.1833 -0.1951 -2.3816
  137SAPE  H12Y14936   2.026   1.712   9.257 -0.0638  0.1659  1.1384
  137SAPE  C31314937   2.057   1.872   9.112  0.3369 -0.2840  0.0485
  137SAPE  H13X14938   2.164   1.850   9.092  0.5039 -0.1834  0.8094
  137SAPE  H13Y14939   2.035   1.981   9.119  0.2705 -0.3150  0.3363
  137SAPE  C31414940   1.969   1.809   8.998  0.0822 -0.2571  0.2047
  137SAPE  H14X14941   1.948   1.895   8.930 -1.5433 -0.7012  0.0960
  137SAPE  H14Y14942   1.867   1.774   9.025  0.3957 -1.5357 -0.1948
  137SAPE  C31514943   2.031   1.695   8.918  0.4169 -0.3685 -0.2830
  137SAPE  H15X14944   2.047   1.608   8.985  0.8056 -0.3284 -0.3223
  137SAPE  H15Y14945   2.121   1.739   8.870  0.4512 -0.1098  0.0190
  137SAPE  C31614946   1.941   1.628   8.812  0.0226 -0.2073 -0.2035
  137SAPE  H16X14947   1.847   1.601   8.863  0.2448 -3.1043 -1.1522
  137SAPE  H16Y14948   1.986   1.532   8.779 -0.9692 -1.1554  1.0701
  137SAPE  C31714949   1.908   1.717   8.693 -0.3055 -1.2710 -0.5475
  137SAPE  H17X14950   2.004   1.749   8.646 -0.6700 -0.3894 -0.7129
  137SAPE  H17Y14951   1.863   1.816   8.717  0.5861 -1.0219  0.1838
  137SAPE  C31814952   1.830   1.643   8.592 -0.4790  0.2247 -0.2422
  137SAPE  H18X14953   1.891   1.555   8.563 -2.9331 -1.6013 -0.1294
  137SAPE  H18Y14954   1.808   1.713   8.508  0.0574 -1.1618 -1.5988
  137SAPE  H18Z14955   1.728   1.614   8.624 -0.3175 -0.9486 -0.7261
  138SAPE     N14956   0.026   3.018  10.667  0.2957 -0.4808  0.4559
  138SAPE   HN114957   0.069   3.108  10.697  0.8320 -0.3196 -0.7036
  138SAPE   HN214958   0.014   2.964  10.755  2.9482 -0.2472  1.0618
  138SAPE   HN314959   0.097   2.967  10.610 -1.5506 -1.0872 -1.4427
  138SAPE   C1214960  -0.102   3.030  10.583 -0.5627  0.6084 -0.2166
  138SAPE  H12A14961  -0.182   3.069  10.648 -0.5286  0.8168 -0.2978
  138SAPE  H12B14962  -0.138   2.930  10.552 -1.7972  0.7336  0.7575
  138SAPE   C1114963  -0.076   3.113  10.454 -0.2590 -0.1131 -0.1524
  138SAPE  H11A14964  -0.165   3.105  10.388  0.3062 -1.2573 -0.8073
  138SAPE  H11B14965   0.010   3.078  10.393  0.4378 -1.4180  1.4916
  138SAPE     P14966  -0.171   3.354  10.524  0.6964  0.5726  0.4377
  138SAPE   O1314967  -0.263   3.299  10.622 -0.0201  0.3484  0.2167
  138SAPE   O1414968  -0.105   3.476  10.568 -0.1384 -0.0715 -0.0532
  138SAPE   O1214969  -0.061   3.249  10.490  0.0511  0.0972  0.0404
  138SAPE   O1114970  -0.254   3.380  10.389  0.2816 -0.5300  1.1162
  138SAPE    C114971  -0.397   3.371  10.391 -0.3070  0.9336 -0.0071
  138SAPE    HA14972  -0.432   3.276  10.438  1.0286  1.3156  1.8407
  138SAPE    HB14973  -0.442   3.451  10.454 -0.0625 -1.0450  2.8650
  138SAPE    C214974  -0.447   3.379  10.245  0.0387  0.4414  0.2309
  138SAPE    HS14975  -0.555   3.353  10.242 -0.0525  0.8921 -0.7405
  138SAPE   O2114976  -0.376   3.286  10.156  0.1928 -0.8032 -0.3302
  138SAPE   C2114977  -0.388   3.164  10.185 -0.3801 -0.4486 -0.3933
  138SAPE   O2214978  -0.475   3.117  10.262  0.0959 -0.2705 -0.3054
  138SAPE   C2214979  -0.282   3.087  10.099 -0.0509  0.9169 -0.2036
  138SAPE   H2R14980  -0.174   3.102  10.121  0.7868 -2.2969 -1.4622
  138SAPE   H2S14981  -0.290   2.981  10.132  1.4949  0.8542  0.0451
  138SAPE    C314982  -0.411   3.521  10.197  0.1766 -0.2467  0.2839
  138SAPE    HX14983  -0.301   3.527  10.181  0.2528 -0.9960  0.5075
  138SAPE    HY14984  -0.444   3.592  10.277  0.5534 -0.3689  0.5520
  138SAPE   O3114985  -0.485   3.551  10.078 -0.4661 -0.3649 -0.3442
  138SAPE   C3114986  -0.443   3.670  10.019 -0.0601  0.2535  0.7187
  138SAPE   O3214987  -0.340   3.730  10.035 -0.1325 -0.1450  0.9013
  138SAPE   C3214988  -0.558   3.725   9.928  0.4164 -0.5144 -0.2355
  138SAPE   H2X14989  -0.590   3.816   9.982  1.1003 -1.5739  2.0539
  138SAPE   H2Y14990  -0.638   3.648   9.934 -1.2471  1.2343  4.6517
  138SAPE   C2314991  -0.328   3.108   9.949 -0.8575 -0.6013 -0.3158
  138SAPE   H3R14992  -0.317   3.210   9.906 -0.0789 -0.4808  0.1534
  138SAPE   H3S14993  -0.438   3.093   9.938 -1.2056  0.8865  0.8232
  138SAPE   C2414994  -0.255   3.013   9.846  0.6450  0.1813 -0.3511
  138SAPE   H4R14995  -0.302   3.018   9.746  0.3964  0.2752 -0.2314
  138SAPE   H4S14996  -0.271   2.909   9.883 -0.6901  0.9507  1.3649
  138SAPE   C2514997  -0.107   3.049   9.832 -0.7689 -0.4305  0.7823
  138SAPE   H5R14998  -0.040   3.043   9.919  1.4558 -0.3867 -0.8404
  138SAPE   C2614999  -0.052   3.092   9.721 -0.7867 -0.9529  1.2170
  138SAPE   H6R15000   0.053   3.124   9.724 -0.7691 -1.0592  2.2034
  138SAPE   C2715001  -0.105   3.100   9.581  0.3651 -0.3207 -0.2206
  138SAPE   H7R15002  -0.092   3.204   9.543  2.3853 -0.0425  1.1061
  138SAPE   H7S15003  -0.214   3.084   9.568 -0.2094  3.0187 -0.5951
  138SAPE   C2815004  -0.036   3.015   9.479 -0.7223 -0.0855  0.1667
  138SAPE   H8R15005   0.020   2.932   9.523 -1.4740 -1.1116 -0.7591
  138SAPE   C2915006  -0.041   3.032   9.342 -0.1978  0.6109  0.2461
  138SAPE   H9R15007   0.014   2.955   9.285 -0.4626  0.4120  0.2563
  138SAPE  C21015008  -0.110   3.136   9.263 -0.0931  0.4680  0.5760
  138SAPE  H10R15009  -0.203   3.170   9.315  0.5694  0.9698  1.4598
  138SAPE  H10S15010  -0.150   3.086   9.172  1.6946 -0.8176  0.4488
  138SAPE  C21115011  -0.028   3.254   9.225  0.5502  0.1146  0.3019
  138SAPE  H11R15012  -0.027   3.328   9.307 -1.3879 -0.4116  0.8633
  138SAPE  C21215013   0.046   3.270   9.108  0.7705  0.2524 -0.9412
  138SAPE  H12R15014   0.099   3.365   9.093 -2.2291  2.1949 -0.1662
  138SAPE  C21315015   0.049   3.171   8.996 -0.2466  0.1789  0.8515
  138SAPE  H13R15016   0.060   3.065   9.027  1.1854 -0.6970 -2.2528
  138SAPE  H13S15017   0.138   3.189   8.932 -0.2325  1.7952  1.2946
  138SAPE  C21415018  -0.070   3.162   8.907 -0.7036  0.5482  0.6003
  138SAPE  H14R15019  -0.159   3.126   8.961  0.0171 -0.4872  1.1188
  138SAPE  C21515020  -0.068   3.200   8.770  0.3841 -0.1198 -0.3149
  138SAPE  H15R15021  -0.165   3.202   8.718  0.0761 -0.3633  0.2439
  138SAPE  C21615022   0.044   3.259   8.684 -0.7080 -0.1003 -0.2620
  138SAPE  H16R15023   0.074   3.205   8.591  0.6199  0.2241 -0.0481
  138SAPE  H16S15024   0.137   3.271   8.744 -0.8192  2.9467 -0.5689
  138SAPE  C21715025   0.037   3.411   8.639  0.3049  0.2022 -0.4792
  138SAPE  H17R15026   0.039   3.475   8.729 -2.1529  0.4165 -0.5074
  138SAPE  H17S15027  -0.064   3.426   8.595 -0.2152  0.8977  0.9166
  138SAPE  C21815028   0.140   3.456   8.529  0.2783 -0.4663 -0.4512
  138SAPE  H18R15029   0.246   3.442   8.561 -0.4092  1.9913  3.5573
  138SAPE  H18S15030   0.127   3.566   8.527 -1.3134 -0.5492  1.7472
  138SAPE  C21915031   0.114   3.402   8.390  0.7205 -0.1689 -0.0349
  138SAPE  H19R15032   0.010   3.430   8.363  0.2075  0.8535  2.7022
  138SAPE  H19S15033   0.129   3.292   8.391  0.3614 -0.2189  0.1696
  138SAPE  C22015034   0.215   3.449   8.283 -0.0263 -0.1873  0.4475
  138SAPE  H20R15035   0.313   3.407   8.315  0.2745  1.2932  1.5914
  138SAPE  H20S15036   0.227   3.559   8.273  1.4369 -0.2380  1.3054
  138SAPE  H20T15037   0.202   3.393   8.188 -0.4145  2.0523 -0.8877
  138SAPE   C3315038  -0.500   3.758   9.782  1.0422  0.8620 -0.2162
  138SAPE   H3X15039  -0.450   3.665   9.745 -1.8493 -1.2979  0.9491
  138SAPE   H3Y15040  -0.427   3.840   9.800  0.0157  1.4259  1.6369
  138SAPE   C3415041  -0.608   3.802   9.684 -0.1205  0.1544 -0.5160
  138SAPE   H4X15042  -0.633   3.907   9.710 -1.5753 -0.5785  1.3141
  138SAPE   H4Y15043  -0.696   3.735   9.699  2.3630 -3.1935  0.3803
  138SAPE   C3515044  -0.546   3.794   9.543  0.0807 -0.0552  0.5305
  138SAPE   H5X15045  -0.513   3.688   9.533  1.5119  0.4846 -1.1056
  138SAPE   H5Y15046  -0.458   3.862   9.541  0.5774 -0.6945 -0.1745
  138SAPE   C3615047  -0.645   3.817   9.428 -0.4675  0.2400 -0.3808
  138SAPE   H6X15048  -0.701   3.913   9.436 -0.5517  0.6317 -4.0921
  138SAPE   H6Y15049  -0.718   3.733   9.419 -1.0273  0.8279 -1.5093
  138SAPE   C3715050  -0.579   3.821   9.294  0.4731 -0.6043  0.1788
  138SAPE   H7X15051  -0.576   3.716   9.256 -0.4159  0.0927 -1.9860
  138SAPE   H7Y15052  -0.475   3.860   9.306  0.9890 -1.9760  0.4169
  138SAPE   C3815053  -0.655   3.896   9.182  0.8046  0.2801  0.3194
  138SAPE   H8X15054  -0.761   3.919   9.204 -0.3605 -1.5975 -2.6500
  138SAPE   H8Y15055  -0.653   3.830   9.093 -0.6255 -1.9511  1.8476
  138SAPE   C3915056  -0.585   4.017   9.123  0.3837 -0.1593  0.2647
  138SAPE   H9X15057  -0.479   3.986   9.110  0.9449  0.8096  2.1978
  138SAPE   H9Y15058  -0.586   4.104   9.192 -2.2426 -0.3794  0.6056
  138SAPE  C31015059  -0.642   4.062   8.990  0.2088  0.9966 -0.1919
  138SAPE  H10X15060  -0.641   3.980   8.916 -3.6346  0.9587 -0.3652
  138SAPE  H10Y15061  -0.573   4.140   8.949  2.2786 -1.6453 -2.0678
  138SAPE  C31115062  -0.784   4.126   8.992  0.1929  0.7743 -0.5958
  138SAPE  H11X15063  -0.775   4.212   9.061 -1.0820 -0.3163  0.9759
  138SAPE  H11Y15064  -0.863   4.058   9.030  0.0325  1.1567 -0.2364
  138SAPE  C31215065  -0.816   4.185   8.856  0.1274  0.0324 -0.5584
  138SAPE  H12X15066  -0.823   4.100   8.784 -0.3452 -1.9275  1.6852
  138SAPE  H12Y15067  -0.740   4.263   8.833 -0.3490  0.0711 -2.1482
  138SAPE  C31315068  -0.951   4.252   8.858  0.1863 -0.0960  0.0092
  138SAPE  H13X15069  -0.956   4.345   8.919 -0.3025 -0.0158 -0.1496
  138SAPE  H13Y15070  -1.031   4.187   8.900  0.1649  0.3396  0.6637
  138SAPE  C31415071  -0.995   4.276   8.714 -0.5439  0.1205  0.3061
  138SAPE  H14X15072  -1.102   4.305   8.711 -0.3266  0.9278  0.0338
  138SAPE  H14Y15073  -0.986   4.180   8.659 -0.7947  0.9654 -1.2952
  138SAPE  C31515074  -0.919   4.386   8.638  0.4807 -0.1202 -0.0119
  138SAPE  H15X15075  -0.812   4.358   8.643  0.9269  0.9372 -2.3602
  138SAPE  H15Y15076  -0.922   4.488   8.683  0.2156  0.1829 -0.7078
  138SAPE  C31615077  -0.949   4.395   8.482 -0.1276  0.3987 -0.2571
  138SAPE  H16X15078  -1.051   4.438   8.472  0.2128  1.1360 -0.7416
  138SAPE  H16Y15079  -0.961   4.289   8.451 -0.0543  0.2270  0.3061
  138SAPE  C31715080  -0.842   4.473   8.405  0.0556  1.1597  0.1709
  138SAPE  H17X15081  -0.756   4.405   8.390 -0.6178 -0.7846  3.9799
  138SAPE  H17Y15082  -0.802   4.552   8.471  2.9347 -0.4474  0.5028
  138SAPE  C31815083  -0.897   4.516   8.269 -0.1780 -0.8748 -0.4268
  138SAPE  H18X15084  -0.936   4.620   8.266  3.9098  0.8822  0.5953
  138SAPE  H18Y15085  -0.965   4.439   8.225 -0.5846 -0.1968 -1.0119
  138SAPE  H18Z15086  -0.806   4.522   8.206  0.3605  1.1609  0.4693
  139SAPE     N15087   6.303   1.639  10.714  0.0959 -0.0670 -0.0473
  139SAPE   HN115088   6.341   1.589  10.632 -1.8720 -1.6787 -0.0558
  139SAPE   HN215089   6.221   1.690  10.675 -2.0494 -2.2768  1.2637
  139SAPE   HN315090   6.367   1.707  10.759  0.4459  0.9466 -1.9898
  139SAPE   C1215091   6.234   1.549  10.811 -0.1649  0.1391 -0.0924
  139SAPE  H12A15092   6.197   1.615  10.892 -3.1429 -0.8132 -0.5351
  139SAPE  H12B15093   6.303   1.476  10.858 -2.4157 -0.6527  2.2815
  139SAPE   C1115094   6.113   1.476  10.745  0.0748 -0.3029 -0.2516
  139SAPE  H11A15095   6.070   1.425  10.834 -0.9365  0.2393 -0.4225
  139SAPE  H11B15096   6.141   1.401  10.668  2.6439 -1.2470  1.4293
  139SAPE     P15097   5.975   1.615  10.563  0.0797 -0.5093 -0.0659
  139SAPE   O1315098   5.874   1.515  10.525  0.0026  0.1827  0.0693
  139SAPE   O1415099   5.940   1.758  10.551  0.1842  0.3554  0.2640
  139SAPE   O1215100   6.020   1.576  10.707 -0.0076 -0.3377  0.4843
  139SAPE   O1115101   6.106   1.584  10.484  0.3659  0.4457  0.0413
  139SAPE    C115102   6.119   1.607  10.340  0.8765 -0.5756 -0.5309
  139SAPE    HA15103   6.032   1.665  10.304  1.1327  1.1205  1.4259
  139SAPE    HB15104   6.208   1.671  10.321  1.3352 -0.8375  0.6740
  139SAPE    C215105   6.137   1.476  10.262 -0.1096  0.1716  0.6510
  139SAPE    HS15106   6.183   1.499  10.164  2.9493  0.4137  2.0458
  139SAPE   O2115107   6.017   1.397  10.246 -0.2655 -0.7482 -0.4035
  139SAPE   C2115108   5.929   1.445  10.160 -0.7250 -0.0725 -0.3933
  139SAPE   O2215109   5.940   1.554  10.101 -0.2418 -0.1871  0.0696
  139SAPE   C2215110   5.816   1.346  10.137  0.4412 -0.2015  0.6955
  139SAPE   H2R15111   5.747   1.355  10.223 -3.3678  1.6621 -2.2334
  139SAPE   H2S15112   5.756   1.394  10.057  1.8890  0.3643 -0.0852
  139SAPE    C315113   6.243   1.381  10.335 -0.1675 -0.7637 -0.0952
  139SAPE    HX15114   6.204   1.317  10.417  0.3560  0.8339  1.4573
  139SAPE    HY15115   6.313   1.449  10.389 -0.6407 -1.0407  0.8859
  139SAPE   O3115116   6.326   1.305  10.241  0.3427  0.1954 -0.1878
  139SAPE   C3115117   6.336   1.173  10.251 -0.1210 -0.3888  0.6530
  139SAPE   O3215118   6.261   1.110  10.321 -0.1743 -0.2856  1.2475
  139SAPE   C3215119   6.437   1.122  10.147  0.0413 -0.0624 -0.0725
  139SAPE   H2X15120   6.430   1.013  10.170  0.1984  0.5062  3.1931
  139SAPE   H2Y15121   6.536   1.161  10.179 -0.7607  0.3819  2.0716
  139SAPE   C2315122   5.855   1.197  10.123 -0.4405 -0.1466  0.4730
  139SAPE   H3R15123   5.764   1.138  10.149 -0.1787 -2.0019 -2.3562
  139SAPE   H3S15124   5.928   1.160  10.198  0.5659  0.8318  0.0104
  139SAPE   C2415125   5.912   1.154   9.980 -0.0129  0.2421 -1.0011
  139SAPE   H4R15126   5.835   1.183   9.906 -0.4120 -3.5957 -2.3270
  139SAPE   H4S15127   5.921   1.044   9.968 -2.1903 -0.2351  0.9657
  139SAPE   C2515128   6.044   1.230   9.965  0.5552 -0.0387  0.0419
  139SAPE   H5R15129   6.121   1.213  10.042 -0.8914  1.9086  2.0346
  139SAPE   C2615130   6.070   1.316   9.868  0.1244  0.2048 -0.3048
  139SAPE   H6R15131   6.172   1.358   9.874  0.1610 -0.0389  1.0323
  139SAPE   C2715132   5.980   1.364   9.760  0.6432 -0.0565 -0.0950
  139SAPE   H7R15133   5.873   1.366   9.790  0.5035 -1.3535 -0.4569
  139SAPE   H7S15134   5.981   1.291   9.676  1.4069  1.2988 -1.3065
  139SAPE   C2815135   6.011   1.498   9.703  0.6681  0.6965 -0.0104
  139SAPE   H8R15136   6.007   1.575   9.781 -2.7173 -0.9799  1.7327
  139SAPE   C2915137   6.031   1.540   9.575 -0.0395 -0.0863  0.0072
  139SAPE   H9R15138   6.046   1.649   9.563  0.8482 -0.2943 -0.8154
  139SAPE  C21015139   6.032   1.463   9.446 -0.4974 -0.9910 -0.2793
  139SAPE  H10R15140   6.060   1.359   9.470 -1.4068 -0.9790  0.9052
  139SAPE  H10S15141   6.101   1.511   9.373  0.4156  0.3658  1.4043
  139SAPE  C21115142   5.895   1.464   9.384 -0.5515 -0.5632 -0.7247
  139SAPE  H11R15143   5.812   1.463   9.455  0.5450 -0.4948  0.5924
  139SAPE  C21215144   5.868   1.451   9.256  0.1155 -0.7451  1.0955
  139SAPE  H12R15145   5.762   1.462   9.228  0.2843  2.0367  1.2943
  139SAPE  C21315146   5.963   1.437   9.138  0.4141 -0.7892  0.1346
  139SAPE  H13R15147   5.902   1.392   9.056 -1.2631  0.5591  0.6067
  139SAPE  H13S15148   6.038   1.356   9.154  1.2932  0.2379  1.3227
  139SAPE  C21415149   6.034   1.562   9.099 -0.1593  0.1216  0.1738
  139SAPE  H14R15150   6.089   1.613   9.179 -1.9790 -0.1715  1.6690
  139SAPE  C21515151   6.030   1.628   8.985  0.5318 -0.0013  0.5101
  139SAPE  H15R15152   6.103   1.709   8.970 -0.9598  1.3554  0.2561
  139SAPE  C21615153   5.945   1.587   8.861 -0.4554  0.1626 -0.1542
  139SAPE  H16R15154   5.844   1.633   8.870 -1.3108 -1.4185 -1.2935
  139SAPE  H16S15155   5.946   1.476   8.856  2.2589  0.1845 -1.9245
  139SAPE  C21715156   6.006   1.651   8.734  0.3120 -0.0260 -0.1525
  139SAPE  H17R15157   6.111   1.618   8.719  0.6321  0.5976  0.5927
  139SAPE  H17S15158   5.998   1.762   8.745  0.1084 -0.1535  1.1001
  139SAPE  C21815159   5.922   1.616   8.610 -0.3093  0.3938 -0.3189
  139SAPE  H18R15160   5.815   1.595   8.632 -0.4941 -2.8949 -3.3953
  139SAPE  H18S15161   5.969   1.519   8.582  1.8917  0.8960  1.3716
  139SAPE  C21915162   5.937   1.705   8.488  0.3146 -0.0251 -0.0060
  139SAPE  H19R15163   6.042   1.708   8.450  0.7132 -0.3784  1.0167
  139SAPE  H19S15164   5.903   1.804   8.526 -0.6011 -0.0781 -0.6621
  139SAPE  C22015165   5.843   1.662   8.372  0.1185 -0.1990  0.8125
  139SAPE  H20R15166   5.866   1.714   8.277 -1.0045 -1.6788 -0.3116
  139SAPE  H20S15167   5.738   1.677   8.406  0.1603 -1.1506  1.4112
  139SAPE  H20T15168   5.866   1.558   8.338  0.4425 -0.2806  1.2657
  139SAPE   C3315169   6.406   1.145  10.002 -0.3786  0.5248  0.0135
  139SAPE   H3X15170   6.404   1.250   9.968 -1.9064  0.0553 -1.4414
  139SAPE   H3Y15171   6.298   1.125   9.992 -1.0680  2.3074  2.8196
  139SAPE   C3415172   6.484   1.057   9.899 -0.3186 -0.4472 -0.5300
  139SAPE   H4X15173   6.494   0.952   9.934  1.3593 -0.9547 -2.3495
  139SAPE   H4Y15174   6.589   1.093   9.905 -0.3780 -0.4267  0.9500
  139SAPE   C3515175   6.423   1.058   9.758  0.5527 -0.0681 -0.1707
  139SAPE   H5X15176   6.314   1.037   9.767  0.5537  0.5006  1.2783
  139SAPE   H5Y15177   6.459   0.975   9.694 -2.8602 -0.6629 -1.5927
  139SAPE   C3615178   6.422   1.201   9.689  0.1726  0.5170  0.8979
  139SAPE   H6X15179   6.526   1.240   9.696  0.9175 -1.5753  2.4518
  139SAPE   H6Y15180   6.346   1.262   9.743 -1.1029 -1.2978  1.2262
  139SAPE   C3715181   6.379   1.180   9.540  0.3444 -0.1967  0.2683
  139SAPE   H7X15182   6.272   1.152   9.553  0.0309  0.1478 -1.4254
  139SAPE   H7Y15183   6.428   1.094   9.491 -0.5752 -1.7771  1.9848
  139SAPE   C3815184   6.387   1.307   9.459 -0.6993  0.2971  0.2906
  139SAPE   H8X15185   6.496   1.327   9.462 -0.4880 -0.8544  1.4617
  139SAPE   H8Y15186   6.331   1.395   9.496  0.2345  0.6990  0.7788
  139SAPE   C3915187   6.338   1.282   9.310 -0.3993 -0.3470 -0.7571
  139SAPE   H9X15188   6.330   1.381   9.260 -0.0877 -0.1528 -0.4321
  139SAPE   H9Y15189   6.236   1.239   9.318 -1.4949  2.3340  1.1995
  139SAPE  C31015190   6.427   1.182   9.238  0.2003 -0.0273 -0.1542
  139SAPE  H10X15191   6.375   1.085   9.231  1.0423 -0.4673 -0.4411
  139SAPE  H10Y15192   6.528   1.174   9.285  0.1358  1.9247  0.4056
  139SAPE  C31115193   6.445   1.223   9.093 -0.1088 -0.3835  0.2187
  139SAPE  H11X15194   6.478   1.329   9.086 -0.0861 -0.4915 -1.9474
  139SAPE  H11Y15195   6.343   1.213   9.049  0.0165 -0.4619 -0.0504
  139SAPE  C31215196   6.550   1.139   9.015  1.3877 -0.8235 -0.0957
  139SAPE  H12X15197   6.521   1.033   9.034 -1.9627 -0.6978 -3.3629
  139SAPE  H12Y15198   6.638   1.176   9.071  0.7548  0.4725  0.0782
  139SAPE  C31315199   6.567   1.180   8.867  0.4652  0.7871  0.0785
  139SAPE  H13X15200   6.647   1.123   8.815 -1.6193 -0.2861 -2.1702
  139SAPE  H13Y15201   6.574   1.291   8.859 -1.1787  0.8493 -1.3276
  139SAPE  C31415202   6.436   1.154   8.791 -0.3249 -0.1678  0.3392
  139SAPE  H14X15203   6.395   1.251   8.755 -1.4183 -0.9408 -0.5604
  139SAPE  H14Y15204   6.355   1.117   8.858 -0.4260 -1.4723 -0.4811
  139SAPE  C31515205   6.455   1.060   8.674  0.2464  0.4824  0.0812
  139SAPE  H15X15206   6.356   1.049   8.624  0.9308  1.8343 -1.6958
  139SAPE  H15Y15207   6.489   0.960   8.705 -0.6775  0.7644  2.1437
  139SAPE  C31615208   6.543   1.102   8.552 -0.3516 -0.1632  0.4822
  139SAPE  H16X15209   6.499   1.201   8.526  0.3477 -0.4882 -2.2851
  139SAPE  H16Y15210   6.649   1.116   8.583 -0.7443 -1.2867  2.5258
  139SAPE  C31715211   6.532   1.011   8.422 -0.3873 -0.5457  0.4525
  139SAPE  H17X15212   6.429   0.989   8.385 -0.9462  0.5424  1.3051
  139SAPE  H17Y15213   6.581   0.915   8.452  0.2070 -0.9698 -1.7290
  139SAPE  C31815214   6.616   1.081   8.309  0.1451 -0.0107  0.1104
  139SAPE  H18X15215   6.630   1.007   8.228  0.0728 -1.9729  1.7966
  139SAPE  H18Y15216   6.716   1.091   8.356  0.4422  0.7945 -0.6651
  139SAPE  H18Z15217   6.574   1.180   8.281 -0.2670  0.5648  2.5229
  140SAPE     N15218   3.627   5.624  11.089  0.0205 -0.4778  0.2598
  140SAPE   HN115219   3.650   5.582  11.181 -1.4411  0.1666  0.9461
  140SAPE   HN215220   3.677   5.560  11.024  1.3211 -0.5836  1.3373
  140SAPE   HN315221   3.665   5.719  11.073 -1.1618 -0.4747 -3.7566
  140SAPE   C1215222   3.477   5.623  11.059 -0.7307 -0.0171 -0.8590
  140SAPE  H12A15223   3.419   5.702  11.112 -1.1468 -1.9035  1.6745
  140SAPE  H12B15224   3.445   5.520  11.085  2.2911 -0.7836  0.2669
  140SAPE   C1115225   3.451   5.652  10.907 -0.6751 -0.9189 -0.3576
  140SAPE  H11A15226   3.467   5.761  10.889  0.4357 -0.9248  0.4627
  140SAPE  H11B15227   3.341   5.651  10.892 -0.6954 -0.3767 -0.2593
  140SAPE     P15228   3.447   5.424  10.777 -0.3586 -0.2472 -0.3055
  140SAPE   O1315229   3.544   5.319  10.734 -0.3103  0.4704  0.6675
  140SAPE   O1415230   3.360   5.387  10.889  0.2370  0.6230  0.8472
  140SAPE   O1215231   3.519   5.560  10.822  0.8431 -0.4366 -0.2683
  140SAPE   O1115232   3.359   5.468  10.656 -0.0411  0.2474 -0.1130
  140SAPE    C115233   3.398   5.566  10.559 -0.0385 -0.0962  0.7348
  140SAPE    HA15234   3.331   5.653  10.572  1.5766  1.0506  1.7324
  140SAPE    HB15235   3.499   5.606  10.582  0.7522 -2.3881  1.4803
  140SAPE    C215236   3.393   5.507  10.414  0.5099 -0.3639  0.5183
  140SAPE    HS15237   3.481   5.543  10.357 -0.8455 -0.2358 -1.5900
  140SAPE   O2115238   3.266   5.549  10.357 -0.1098 -0.7274 -0.1406
  140SAPE   C2115239   3.270   5.573  10.224 -1.1024 -0.5569 -0.0887
  140SAPE   O2215240   3.367   5.578  10.149 -0.0608 -0.7457 -0.8213
  140SAPE   C2215241   3.126   5.587  10.172 -0.4318 -0.0664  0.1039
  140SAPE   H2R15242   3.051   5.523  10.222 -0.9533 -0.3862 -1.0441
  140SAPE   H2S15243   3.097   5.695  10.172 -0.1755  0.0061  0.7640
  140SAPE    C315244   3.416   5.355  10.416 -0.2507  0.9103 -0.3749
  140SAPE    HX15245   3.344   5.302  10.482  0.0553 -0.0028 -0.7627
  140SAPE    HY15246   3.518   5.351  10.459  0.1499  1.0991 -1.2879
  140SAPE   O3115247   3.429   5.296  10.286  0.2193 -0.8149  0.3216
  140SAPE   C3115248   3.340   5.196  10.262 -0.0757  0.0028  0.2846
  140SAPE   O3215249   3.247   5.167  10.338  0.1896  0.2884 -0.5655
  140SAPE   C3215250   3.371   5.128  10.133  0.2624 -0.4509  0.2732
  140SAPE   H2X15251   3.288   5.061  10.101 -0.7217  0.5895  0.5769
  140SAPE   H2Y15252   3.460   5.062  10.143  1.1940  0.8876  1.0094
  140SAPE   C2315253   3.108   5.535  10.027 -0.1703  0.6290  0.5926
  140SAPE   H3R15254   3.119   5.425  10.032 -1.2556  0.2717 -2.8329
  140SAPE   H3S15255   3.179   5.576   9.952 -1.4314  1.2655 -0.2929
  140SAPE   C2415256   2.968   5.555   9.976 -0.1885 -0.1051  0.2190
  140SAPE   H4R15257   2.901   5.520  10.057  1.4493 -2.3823  0.7036
  140SAPE   H4S15258   2.955   5.493   9.885  1.1504 -1.7436  1.0865
  140SAPE   C2515259   2.917   5.693   9.952 -0.1617  0.2296  0.9857
  140SAPE   H5R15260   2.897   5.761  10.037  1.5822  1.2870  0.6017
  140SAPE   C2615261   2.891   5.742   9.832  0.4340 -0.4625 -0.1629
  140SAPE   H6R15262   2.864   5.849   9.835 -0.8570 -0.7779 -0.3165
  140SAPE   C2715263   2.908   5.674   9.698 -0.0081 -0.5911 -0.3037
  140SAPE   H7R15264   2.853   5.733   9.621  2.0523 -0.3698 -1.6710
  140SAPE   H7S15265   2.867   5.570   9.697  1.8802 -1.3929  0.2439
  140SAPE   C2815266   3.051   5.658   9.661 -0.5642  0.7286  1.1631
  140SAPE   H8R15267   3.129   5.657   9.739  0.0466 -0.4324  0.5632
  140SAPE   C2915268   3.104   5.670   9.533 -0.2936 -0.9741 -0.4088
  140SAPE   H9R15269   3.210   5.647   9.520 -0.3406 -0.5122 -1.7740
  140SAPE  C21015270   3.029   5.696   9.404 -0.2620 -0.1904 -0.2819
  140SAPE  H10R15271   2.923   5.668   9.419 -0.5138  1.0094  0.2485
  140SAPE  H10S15272   3.059   5.628   9.321 -1.4219 -1.0125 -0.0603
  140SAPE  C21115273   3.031   5.845   9.359 -0.1003 -0.5616 -0.1890
  140SAPE  H11R15274   2.997   5.908   9.442  0.8301 -0.8956  0.4629
  140SAPE  C21215275   3.061   5.896   9.237 -0.3171 -0.4263  0.3658
  140SAPE  H12R15276   3.048   6.003   9.217 -1.5602 -0.9862 -2.3254
  140SAPE  C21315277   3.100   5.812   9.117 -0.3564 -0.1242 -0.6319
  140SAPE  H13R15278   3.176   5.740   9.155  0.7985  0.9880 -0.7556
  140SAPE  H13S15279   3.158   5.875   9.047  2.8340 -1.7588  0.3287
  140SAPE  C21415280   2.998   5.732   9.047 -0.0262 -0.1407  0.1862
  140SAPE  H14R15281   2.897   5.747   9.089  1.0210  0.5702  2.6639
  140SAPE  C21515282   3.024   5.649   8.938 -0.2860  0.8030  0.4818
  140SAPE  H15R15283   2.941   5.597   8.888  1.2671 -1.2056 -0.1679
  140SAPE  C21615284   3.156   5.625   8.876  0.4801  0.3657 -0.1839
  140SAPE  H16R15285   3.190   5.521   8.892 -0.8333  0.0470  0.7352
  140SAPE  H16S15286   3.233   5.681   8.933 -1.7403  1.1354  2.2598
  140SAPE  C21715287   3.176   5.682   8.731  0.4096 -0.0750 -0.3937
  140SAPE  H17R15288   3.285   5.686   8.710  0.4185  0.9656 -0.2158
  140SAPE  H17S15289   3.142   5.788   8.733  0.9417  0.1626  3.6758
  140SAPE  C21815290   3.095   5.601   8.626  0.3110  0.1969  1.0893
  140SAPE  H18R15291   2.990   5.584   8.655 -0.0062  4.9661  3.6867
  140SAPE  H18S15292   3.151   5.505   8.615  2.0231  1.0871  1.7045
  140SAPE  C21915293   3.088   5.669   8.487 -0.8483 -0.1630  0.0627
  140SAPE  H19R15294   3.193   5.672   8.451  0.0881  1.0663  2.6086
  140SAPE  H19S15295   3.048   5.772   8.500 -0.7351  0.1101 -1.5941
  140SAPE  C22015296   2.995   5.586   8.392 -0.1529 -0.5549 -0.2581
  140SAPE  H20R15297   3.036   5.486   8.366  0.1031 -0.2732 -0.9855
  140SAPE  H20S15298   2.974   5.641   8.297  3.0530  2.8902  0.7789
  140SAPE  H20T15299   2.899   5.562   8.441 -1.2623  2.5351 -0.6746
  140SAPE   C3315300   3.406   5.228  10.017  0.0280  0.2895 -0.2655
  140SAPE   H3X15301   3.487   5.300  10.040 -0.9036  1.3601 -0.2731
  140SAPE   H3Y15302   3.321   5.298  10.002  1.5197  2.6980  1.6888
  140SAPE   C3415303   3.431   5.151   9.881  0.0338 -0.5139  0.2300
  140SAPE   H4X15304   3.356   5.072   9.862  2.6562 -2.7663 -1.5263
  140SAPE   H4Y15305   3.529   5.101   9.898 -0.1793 -0.3122  2.3695
  140SAPE   C3515306   3.457   5.242   9.757  0.1256 -0.5238  0.6593
  140SAPE   H5X15307   3.496   5.190   9.667 -0.4017 -1.6257  1.0513
  140SAPE   H5Y15308   3.540   5.311   9.781  1.0461 -1.5585  0.5471
  140SAPE   C3615309   3.329   5.304   9.693 -0.2374 -0.5693  0.2650
  140SAPE   H6X15310   3.363   5.380   9.620  0.1128  0.5788  1.5846
  140SAPE   H6Y15311   3.276   5.358   9.774  1.3726 -1.0979  1.7331
  140SAPE   C3715312   3.226   5.208   9.632  0.2712  0.0688  0.5647
  140SAPE   H7X15313   3.137   5.259   9.587  1.6632  2.0607 -0.0560
  140SAPE   H7Y15314   3.194   5.133   9.706  1.6093 -2.1412 -0.9740
  140SAPE   C3815315   3.269   5.124   9.511 -0.5668  0.1574 -0.5634
  140SAPE   H8X15316   3.327   5.040   9.555 -1.6120 -1.1108 -1.5416
  140SAPE   H8Y15317   3.332   5.186   9.444  2.4914 -1.3164  0.7428
  140SAPE   C3915318   3.146   5.049   9.442  0.1516 -0.0353  0.3461
  140SAPE   H9X15319   3.070   5.123   9.410 -1.8879 -1.9454  0.5786
  140SAPE   H9Y15320   3.094   4.987   9.518 -2.3512  0.5166 -0.8129
  140SAPE  C31015321   3.177   4.967   9.310 -0.6159  0.1489 -0.1880
  140SAPE  H10X15322   3.097   4.896   9.279  1.1159 -1.7642 -0.5002
  140SAPE  H10Y15323   3.267   4.906   9.333  0.2010  0.5377 -2.1700
  140SAPE  C31115324   3.220   5.054   9.194  0.1829 -0.7115  0.0951
  140SAPE  H11X15325   3.303   5.113   9.238  0.0053  0.1328 -0.6605
  140SAPE  H11Y15326   3.140   5.123   9.160  0.2500 -0.7789 -0.2014
  140SAPE  C31215327   3.271   4.989   9.066 -0.2145  0.4249 -0.8870
  140SAPE  H12X15328   3.259   5.066   8.986 -0.9931  4.1675  2.5253
  140SAPE  H12Y15329   3.193   4.913   9.043 -2.0909  0.8719  3.1721
  140SAPE  C31315330   3.418   4.945   9.090 -0.1314 -0.0387 -0.3826
  140SAPE  H13X15331   3.425   4.884   9.182  2.1412  0.3811 -0.2316
  140SAPE  H13Y15332   3.484   5.033   9.108  0.4317 -0.4704 -0.3267
  140SAPE  C31415333   3.471   4.875   8.971  0.1594  0.2545 -0.4836
  140SAPE  H14X15334   3.407   4.788   8.945 -0.3110  0.5766 -0.4252
  140SAPE  H14Y15335   3.567   4.839   9.014 -0.5613  1.9722  3.0242
  140SAPE  C31515336   3.500   4.967   8.848  0.6939  0.7683 -0.3382
  140SAPE  H15X15337   3.576   5.041   8.880  0.8202  0.7450 -0.5779
  140SAPE  H15Y15338   3.406   5.022   8.827  2.0881  2.7592 -1.6508
  140SAPE  C31615339   3.553   4.881   8.732  0.2849 -0.4695  0.1137
  140SAPE  H16X15340   3.653   4.844   8.762 -0.0118 -0.0504  1.7180
  140SAPE  H16Y15341   3.589   4.941   8.646  1.4133  1.0964  1.6138
  140SAPE  C31715342   3.461   4.762   8.681  0.0845 -0.3834 -0.1306
  140SAPE  H17X15343   3.457   4.684   8.760 -0.0251  0.0303  0.2763
  140SAPE  H17Y15344   3.528   4.720   8.603  0.4354 -0.9876  0.4940
  140SAPE  C31815345   3.321   4.791   8.627  0.2554 -0.2291 -0.0823
  140SAPE  H18X15346   3.294   4.711   8.556 -0.9189 -0.7115  0.8769
  140SAPE  H18Y15347   3.318   4.886   8.569  0.0280 -0.1448  0.0682
  140SAPE  H18Z15348   3.249   4.803   8.711 -0.5253  2.1599 -1.0026
  141SAPE     N15349   1.053   5.779  10.696  0.6266 -0.2080 -1.0169
  141SAPE   HN115350   1.085   5.837  10.776  1.5094 -2.3464  0.2423
  141SAPE   HN215351   0.993   5.839  10.635  0.4903  0.0761 -0.6102
  141SAPE   HN315352   0.994   5.709  10.745  1.6778 -0.7686 -0.5135
  141SAPE   C1215353   1.168   5.723  10.622 -0.1309 -0.4352 -0.0126
  141SAPE  H12A15354   1.226   5.810  10.584 -3.0696  1.7484  0.2200
  141SAPE  H12B15355   1.132   5.660  10.539 -0.6946  1.6278 -1.4111
  141SAPE   C1115356   1.266   5.643  10.714 -0.1781  0.9390 -0.2607
  141SAPE  H11A15357   1.309   5.706  10.795  2.5331 -1.0545 -0.0158
  141SAPE  H11B15358   1.355   5.606  10.659  0.1965  0.4587  0.6550
  141SAPE     P15359   1.247   5.426  10.863 -0.8290  0.2235  0.0704
  141SAPE   O1315360   1.323   5.475  10.979  0.4423  0.2857 -0.1639
  141SAPE   O1415361   1.138   5.325  10.888  0.1412 -0.2820  0.1155
  141SAPE   O1215362   1.192   5.543  10.780  0.0624 -0.1241  0.0181
  141SAPE   O1115363   1.345   5.368  10.760  0.4050 -0.7174  0.4498
  141SAPE    C115364   1.315   5.335  10.627 -0.6655  0.5221  0.7841
  141SAPE    HA15365   1.303   5.225  10.617  3.7188  0.0219 -1.9900
  141SAPE    HB15366   1.243   5.403  10.577  0.4964  0.5740 -0.9356
  141SAPE    C215367   1.447   5.358  10.537  1.4640 -0.0853  0.0758
  141SAPE    HS15368   1.488   5.457  10.565 -1.7410  0.9289  1.6367
  141SAPE   O2115369   1.402   5.348  10.394 -0.4522 -0.0143  0.0156
  141SAPE   C2115370   1.360   5.463  10.340  0.1752  0.0922  0.6500
  141SAPE   O2215371   1.346   5.567  10.402 -0.4817 -0.6590 -0.2237
  141SAPE   C2215372   1.306   5.432  10.201  0.2157  0.2013 -0.1102
  141SAPE   H2R15373   1.393   5.392  10.144  2.7784  0.3474  3.3461
  141SAPE   H2S15374   1.225   5.356  10.205 -0.3442  0.8342  1.3468
  141SAPE    C315375   1.559   5.258  10.577 -0.6469  0.3853 -0.4470
  141SAPE    HX15376   1.540   5.150  10.559 -0.0814  0.3843 -1.0876
  141SAPE    HY15377   1.581   5.272  10.685 -0.0479 -0.5724 -0.4347
  141SAPE   O3115378   1.680   5.283  10.501  0.0154 -0.1946 -0.9080
  141SAPE   C3115379   1.768   5.186  10.483  0.1419  0.5673  0.1547
  141SAPE   O3215380   1.760   5.075  10.526 -0.3302 -0.6153 -0.9301
  141SAPE   C3215381   1.877   5.231  10.387  0.2102  0.0221  0.5685
  141SAPE   H2X15382   1.950   5.298  10.437  2.0677 -1.3108 -0.2706
  141SAPE   H2Y15383   1.817   5.305  10.329  0.2172  0.2513  0.8485
  141SAPE   C2315384   1.240   5.560  10.135  0.0213 -0.3777 -1.0557
  141SAPE   H3R15385   1.227   5.643  10.208  2.0228 -1.2177  0.3590
  141SAPE   H3S15386   1.144   5.532  10.087 -0.6754 -1.7693  1.0376
  141SAPE   C2415387   1.329   5.626  10.027  0.8450 -0.1518 -0.1614
  141SAPE   H4R15388   1.429   5.652  10.067  0.8725 -0.2050 -0.1950
  141SAPE   H4S15389   1.274   5.719  10.003  0.2097 -0.6987 -0.9138
  141SAPE   C2515390   1.320   5.536   9.911  0.2650 -0.2536  0.0757
  141SAPE   H5R15391   1.224   5.484   9.894  1.8927 -2.5239 -3.4004
  141SAPE   C2615392   1.419   5.504   9.825 -1.3056  0.4950 -0.2271
  141SAPE   H6R15393   1.399   5.426   9.749 -1.3981  0.2316  0.0626
  141SAPE   C2715394   1.572   5.546   9.824  0.1040  0.6545  0.5698
  141SAPE   H7R15395   1.637   5.473   9.771 -0.7594  1.9052 -2.4198
  141SAPE   H7S15396   1.605   5.569   9.928  0.0829 -2.5989  1.3993
  141SAPE   C2815397   1.578   5.673   9.746 -0.0519  0.2084 -0.2919
  141SAPE   H8R15398   1.592   5.772   9.791 -1.1717  0.5156 -0.5830
  141SAPE   C2915399   1.568   5.677   9.611  0.2191  0.4266 -0.3331
  141SAPE   H9R15400   1.573   5.777   9.566  0.7842  0.5176 -0.0754
  141SAPE  C21015401   1.569   5.560   9.519  0.0160  0.6975  0.5699
  141SAPE  H10R15402   1.581   5.464   9.573  0.8454  0.1595 -0.5223
  141SAPE  H10S15403   1.662   5.560   9.458  0.5763 -1.2794  1.3379
  141SAPE  C21115404   1.459   5.577   9.411 -0.0700  0.5348  0.0015
  141SAPE  H11R15405   1.370   5.618   9.461 -0.6211 -2.2048  1.4167
  141SAPE  C21215406   1.458   5.553   9.280 -0.3954  0.0814 -0.6706
  141SAPE  H12R15407   1.367   5.579   9.223  0.6179  1.8434 -1.5943
  141SAPE  C21315408   1.573   5.488   9.200  0.0116 -0.9401 -0.6206
  141SAPE  H13R15409   1.541   5.388   9.164 -1.2946 -0.6870 -0.2422
  141SAPE  H13S15410   1.660   5.485   9.268 -1.1757 -0.6181  0.9790
  141SAPE  C21415411   1.603   5.586   9.088 -0.1669 -0.0864 -0.3075
  141SAPE  H14R15412   1.670   5.668   9.120 -0.9074  0.1158  0.7624
  141SAPE  C21515413   1.564   5.574   8.964 -0.1241 -0.4485  0.1077
  141SAPE  H15R15414   1.584   5.654   8.892 -2.2593 -1.1698 -1.3750
  141SAPE  C21615415   1.477   5.456   8.909  0.0181 -0.1268 -0.1028
  141SAPE  H16R15416   1.398   5.422   8.979 -1.0553 -0.6078 -1.4902
  141SAPE  H16S15417   1.550   5.373   8.896  0.2733  0.2896 -1.4621
  141SAPE  C21715418   1.414   5.490   8.770  0.2594  0.3456  0.0992
  141SAPE  H17R15419   1.356   5.585   8.769 -0.9391 -0.3604  0.7852
  141SAPE  H17S15420   1.338   5.410   8.753 -0.7904  0.9741  1.6301
  141SAPE  C21815421   1.525   5.497   8.664  0.1571 -0.4750 -0.4622
  141SAPE  H18R15422   1.593   5.410   8.674 -1.7251 -1.8596  1.3015
  141SAPE  H18S15423   1.586   5.588   8.683  1.0439 -1.0434 -0.5466
  141SAPE  C21915424   1.478   5.511   8.525  0.2734 -0.4291  0.6037
  141SAPE  H19R15425   1.441   5.411   8.494  2.3120 -0.1575 -3.4600
  141SAPE  H19S15426   1.571   5.538   8.471  0.6109 -1.0379  0.8709
  141SAPE  C22015427   1.379   5.623   8.502 -1.0520 -0.1031 -0.3157
  141SAPE  H20R15428   1.423   5.719   8.537  2.1130 -1.6290  0.2932
  141SAPE  H20S15429   1.279   5.604   8.546 -2.2241  1.5376 -2.0993
  141SAPE  H20T15430   1.362   5.629   8.392  0.2769 -0.2429 -0.5481
  141SAPE   C3315431   1.936   5.118  10.300 -0.3545  0.8560 -0.6922
  141SAPE   H3X15432   1.850   5.049  10.284 -1.4345  2.0596 -0.2601
  141SAPE   H3Y15433   2.020   5.060  10.342 -1.0244  0.3755  0.0164
  141SAPE   C3415434   1.978   5.166  10.164 -0.7430  0.3935 -0.1085
  141SAPE   H4X15435   2.047   5.251  10.185  0.2522 -0.7365  1.4786
  141SAPE   H4Y15436   1.891   5.214  10.115 -3.2281 -2.2256  1.4588
  141SAPE   C3515437   2.053   5.061  10.074 -0.1724  0.2888  0.2231
  141SAPE   H5X15438   2.141   5.027  10.133  0.6623 -0.4332 -1.3834
  141SAPE   H5Y15439   2.083   5.096   9.973  2.3220 -0.7684  0.5346
  141SAPE   C3615440   1.966   4.928  10.059  0.0106 -0.2875  1.1329
  141SAPE   H6X15441   1.868   4.954  10.015  0.3237  0.0217  0.6050
  141SAPE   H6Y15442   1.960   4.882  10.160 -0.4997  2.3729  2.4108
  141SAPE   C3715443   2.044   4.831   9.958  0.4434 -0.4689 -0.0899
  141SAPE   H7X15444   2.146   4.811   9.998  0.7474  0.5744 -0.3008
  141SAPE   H7Y15445   2.070   4.876   9.859  5.9348 -2.2651  0.1759
  141SAPE   C3815446   1.959   4.702   9.953  0.6795  0.3709 -0.2425
  141SAPE   H8X15447   1.934   4.672  10.057  1.2244  2.0890  0.4108
  141SAPE   H8Y15448   2.034   4.633   9.907  1.0388  1.9902 -2.2262
  141SAPE   C3915449   1.829   4.705   9.867  0.0734  0.2728  0.2131
  141SAPE   H9X15450   1.774   4.800   9.879 -1.2268 -0.5385  0.9586
  141SAPE   H9Y15451   1.753   4.629   9.895 -1.8661  1.3598 -1.8713
  141SAPE  C31015452   1.859   4.683   9.717  0.3804  0.7191 -0.3497
  141SAPE  H10X15453   1.899   4.579   9.709 -1.2560  0.0542 -0.3621
  141SAPE  H10Y15454   1.943   4.750   9.689  0.4807  1.3468  1.3217
  141SAPE  C31115455   1.738   4.693   9.624 -0.5294 -0.5406 -0.2071
  141SAPE  H11X15456   1.740   4.801   9.597 -0.5418 -0.8449 -1.4770
  141SAPE  H11Y15457   1.635   4.676   9.662 -1.7566  0.8696 -2.6560
  141SAPE  C31215458   1.764   4.616   9.498  0.4744  0.4193  0.4250
  141SAPE  H12X15459   1.788   4.511   9.527 -0.9788 -0.0628 -0.0354
  141SAPE  H12Y15460   1.856   4.645   9.443  0.2607  1.3551  0.5387
  141SAPE  C31315461   1.639   4.611   9.406 -0.0338 -0.7258 -0.0554
  141SAPE  H13X15462   1.607   4.706   9.359  0.1687  0.0087  1.2315
  141SAPE  H13Y15463   1.551   4.577   9.464 -0.4712 -1.0013 -0.8615
  141SAPE  C31415464   1.672   4.517   9.285  0.3053 -0.4868  0.0502
  141SAPE  H14X15465   1.646   4.413   9.313  0.4904 -0.6130 -0.2483
  141SAPE  H14Y15466   1.783   4.521   9.278  0.2001  0.4389 -1.5913
  141SAPE  C31515467   1.621   4.554   9.141  0.0681 -0.3781 -0.2748
  141SAPE  H15X15468   1.645   4.658   9.110 -0.5615 -0.1679 -0.0715
  141SAPE  H15Y15469   1.510   4.561   9.137  0.1609  1.0397 -0.8924
  141SAPE  C31615470   1.669   4.459   9.030  0.1684  0.7783  0.7343
  141SAPE  H16X15471   1.659   4.351   9.057  0.4021  0.5782  0.0364
  141SAPE  H16Y15472   1.773   4.490   9.006  0.0811  0.4948 -0.0516
  141SAPE  C31715473   1.599   4.477   8.894  0.3370 -0.3030 -0.8462
  141SAPE  H17X15474   1.609   4.581   8.857 -0.1912 -0.5387 -1.6791
  141SAPE  H17Y15475   1.490   4.460   8.899  0.1512  1.1473  1.6749
  141SAPE  C31815476   1.665   4.392   8.785  0.3546  0.7753 -0.3367
  141SAPE  H18X15477   1.774   4.409   8.769  1.1894 -1.7349  1.9092
  141SAPE  H18Y15478   1.607   4.390   8.690  0.9410  1.3969 -0.7181
  141SAPE  H18Z15479   1.665   4.287   8.822 -0.0044  0.7125 -0.5177
  142SAPE     N15480   2.875   2.626  11.098 -0.1268 -0.0284  0.2547
  142SAPE   HN115481   2.921   2.705  11.049 -0.7528  0.6839  0.7888
  142SAPE   HN215482   2.909   2.614  11.196 -0.6855 -0.3801  0.4140
  142SAPE   HN315483   2.880   2.534  11.050 -4.3277 -1.0371  1.3175
  142SAPE   C1215484   2.729   2.658  11.104  0.0080  0.6187  0.6299
  142SAPE  H12A15485   2.717   2.752  11.160 -1.7407  1.0481 -0.3880
  142SAPE  H12B15486   2.690   2.567  11.154  2.3483 -0.8528 -0.0377
  142SAPE   C1115487   2.693   2.679  10.955  0.5136  0.6230  1.1326
  142SAPE  H11A15488   2.586   2.705  10.963  0.2712 -0.2278  0.7904
  142SAPE  H11B15489   2.692   2.583  10.899 -2.2214  0.2547  1.6867
  142SAPE     P15490   2.721   2.931  10.892  0.3254  0.1275  0.3841
  142SAPE   O1315491   2.588   2.927  10.958 -0.1074  0.5368 -0.7324
  142SAPE   O1415492   2.830   3.004  10.952 -0.3229  0.0818 -0.1549
  142SAPE   O1215493   2.775   2.781  10.889  0.1997  0.8500  0.2970
  142SAPE   O1115494   2.715   2.964  10.736 -0.1568 -0.7851 -0.1528
  142SAPE    C115495   2.827   2.932  10.649  0.4792  0.5005 -0.2822
  142SAPE    HA15496   2.915   3.000  10.648  0.6601  0.2771 -1.7394
  142SAPE    HB15497   2.854   2.826  10.666  2.8532  1.0706 -0.1928
  142SAPE    C215498   2.782   2.912  10.499  0.4254 -0.1258  0.0357
  142SAPE    HS15499   2.708   2.830  10.495  2.0339 -1.6025 -0.5071
  142SAPE   O2115500   2.899   2.902  10.417 -0.2500  0.4154 -0.7941
  142SAPE   C2115501   2.945   2.770  10.416  0.4380  0.0800  0.5399
  142SAPE   O2215502   2.902   2.675  10.477  0.0775  0.8106 -0.1902
  142SAPE   C2215503   3.068   2.763  10.325 -0.4726 -0.2326 -0.1757
  142SAPE   H2R15504   3.111   2.866  10.314 -0.3195 -0.2768 -0.0126
  142SAPE   H2S15505   3.145   2.701  10.376 -0.4944 -0.2454 -0.1585
  142SAPE    C315506   2.702   3.038  10.452 -0.0587  0.1079  0.1338
  142SAPE    HX15507   2.774   3.120  10.472  0.0049 -0.3150  1.8130
  142SAPE    HY15508   2.617   3.051  10.522  0.6111  0.7835  0.8342
  142SAPE   O3115509   2.668   3.038  10.309 -0.2449  0.0715 -0.2644
  142SAPE   C3115510   2.578   2.951  10.274  0.1580 -0.3965  0.1254
  142SAPE   O3215511   2.517   2.874  10.348 -0.1167  0.5167  0.4985
  142SAPE   C3215512   2.582   2.953  10.119  0.2086  0.6277  0.1829
  142SAPE   H2X15513   2.633   2.857  10.096 -0.4385  0.2510  0.2942
  142SAPE   H2Y15514   2.651   3.033  10.085 -0.2862  1.8013  1.7984
  142SAPE   C2315515   3.042   2.683  10.196  0.2065 -0.3159 -0.3158
  142SAPE   H3R15516   2.973   2.600  10.222 -0.3967  0.4834  0.6930
  142SAPE   H3S15517   3.133   2.633  10.156  0.3913  0.3033 -0.6734
  142SAPE   C2415518   2.961   2.769  10.101 -0.4900 -0.4965  0.0523
  142SAPE   H4R15519   2.875   2.818  10.152  0.6569  0.4432  1.1539
  142SAPE   H4S15520   2.909   2.705  10.027  0.1540 -0.9637 -0.0054
  142SAPE   C2515521   3.036   2.876  10.027 -0.4911  0.2755 -0.3875
  142SAPE   H5R15522   3.042   2.976  10.072 -0.1166 -0.8881  2.3663
  142SAPE   C2615523   3.080   2.859   9.900 -0.4735  0.3522  0.1376
  142SAPE   H6R15524   3.134   2.942   9.853  1.5228 -0.0509  1.6076
  142SAPE   C2715525   3.085   2.738   9.815 -0.0411 -0.4080 -0.1014
  142SAPE   H7R15526   3.025   2.651   9.850 -1.9151 -0.3238 -2.7377
  142SAPE   H7S15527   3.192   2.712   9.805 -0.0062 -0.4371  0.3289
  142SAPE   C2815528   3.025   2.791   9.686 -0.4435 -0.2292  0.2339
  142SAPE   H8R15529   2.917   2.805   9.669 -0.0450  2.6466 -0.3745
  142SAPE   C2915530   3.099   2.836   9.586 -0.7632  0.1171 -0.9378
  142SAPE   H9R15531   3.051   2.871   9.494 -1.1963  0.1259 -0.7082
  142SAPE  C21015532   3.251   2.843   9.582  0.0674  0.3307 -0.0541
  142SAPE  H10R15533   3.274   2.817   9.477  1.8921  0.1850  0.3551
  142SAPE  H10S15534   3.305   2.777   9.653  0.1896  0.8769  0.3665
  142SAPE  C21115535   3.296   2.988   9.579  0.0001 -0.2343 -0.4474
  142SAPE  H11R15536   3.227   3.070   9.602  1.5690  1.0731 -0.1748
  142SAPE  C21215537   3.417   3.024   9.530  0.6531  0.1803 -0.0843
  142SAPE  H12R15538   3.422   3.133   9.517 -2.5075  0.3912 -0.2408
  142SAPE  C21315539   3.527   2.927   9.485 -1.0243  0.1281  0.3978
  142SAPE  H13R15540   3.496   2.821   9.495  2.3466 -1.0162 -0.0383
  142SAPE  H13S15541   3.620   2.953   9.538  0.3314 -0.4979 -1.5713
  142SAPE  C21415542   3.552   2.949   9.340  0.1996 -0.7103  0.3626
  142SAPE  H14R15543   3.470   2.903   9.285  0.0703 -0.9986  0.7947
  142SAPE  C21515544   3.646   3.028   9.278  0.7918 -0.4778 -0.1688
  142SAPE  H15R15545   3.638   3.040   9.169 -0.3247  0.0661 -0.0392
  142SAPE  C21615546   3.750   3.113   9.347  0.2860 -0.8041 -0.2589
  142SAPE  H16R15547   3.826   3.038   9.380  0.4650 -0.3236  0.4525
  142SAPE  H16S15548   3.713   3.167   9.437  1.3435 -1.8380  0.8472
  142SAPE  C21715549   3.818   3.215   9.247 -0.2307  0.7485  0.0143
  142SAPE  H17R15550   3.734   3.269   9.197  1.1638  1.0915 -2.0907
  142SAPE  H17S15551   3.865   3.153   9.167 -0.2110  0.2181  0.4304
  142SAPE  C21815552   3.923   3.315   9.309 -0.6879  0.5439 -0.1666
  142SAPE  H18R15553   4.005   3.253   9.351  1.8611  2.2344 -2.3364
  142SAPE  H18S15554   3.878   3.369   9.395  0.4248 -0.0765  0.8330
  142SAPE  C21915555   3.973   3.398   9.191  0.2820 -0.3245 -0.0387
  142SAPE  H19R15556   4.004   3.499   9.225 -2.3657 -0.6575  4.1328
  142SAPE  H19S15557   3.892   3.430   9.122 -1.5371 -2.6853  0.8690
  142SAPE  C22015558   4.081   3.322   9.126  0.6614 -0.1474 -0.1503
  142SAPE  H20R15559   4.133   3.387   9.051  1.8077  1.8272  2.2081
  142SAPE  H20S15560   4.032   3.233   9.082  1.6590 -1.3804  1.1484
  142SAPE  H20T15561   4.154   3.277   9.197 -0.3651 -1.2442  0.2295
  142SAPE   C3315562   2.441   2.951  10.050 -0.3890  0.6313 -1.2317
  142SAPE   H3X15563   2.387   3.042  10.082  2.5821  1.6768  1.4212
  142SAPE   H3Y15564   2.395   2.859  10.093  0.5515 -0.5120 -2.5817
  142SAPE   C3415565   2.469   2.943   9.900 -0.1986 -0.5726 -0.4787
  142SAPE   H4X15566   2.552   3.010   9.871 -0.4854 -0.6497 -1.4838
  142SAPE   H4Y15567   2.374   2.978   9.855 -0.2632 -0.6944 -0.4379
  142SAPE   C3515568   2.508   2.804   9.857  0.2151 -1.2422  0.1969
  142SAPE   H5X15569   2.443   2.744   9.924 -0.5916 -0.0977  0.4735
  142SAPE   H5Y15570   2.613   2.773   9.874  0.2688 -2.4551 -1.9750
  142SAPE   C3615571   2.478   2.778   9.714  0.8037  0.3279  0.6467
  142SAPE   H6X15572   2.387   2.832   9.679  1.5179  0.4950 -1.0680
  142SAPE   H6Y15573   2.460   2.669   9.704  0.5879  0.3005  1.3227
  142SAPE   C3715574   2.596   2.813   9.624 -0.9998 -0.1555  0.0932
  142SAPE   H7X15575   2.677   2.743   9.652  0.4253 -0.6409 -4.4579
  142SAPE   H7Y15576   2.634   2.913   9.653  0.8607 -1.2168  1.5395
  142SAPE   C3815577   2.567   2.802   9.478  0.4085  0.7225  0.3387
  142SAPE   H8X15578   2.491   2.880   9.458 -0.4932  0.0574  1.0887
  142SAPE   H8Y15579   2.528   2.700   9.457 -0.5176  0.7745  1.7056
  142SAPE   C3915580   2.699   2.829   9.392  0.3330 -0.2736  0.1438
  142SAPE   H9X15581   2.774   2.888   9.449  0.0375 -0.2631  0.5203
  142SAPE   H9Y15582   2.668   2.898   9.311  2.7215  1.5031  0.5990
  142SAPE  C31015583   2.753   2.703   9.328  0.3673 -0.1627 -0.2862
  142SAPE  H10X15584   2.669   2.638   9.294 -1.4187  2.0728 -0.3506
  142SAPE  H10Y15585   2.822   2.648   9.396  0.9254  0.0162 -0.7006
  142SAPE  C31115586   2.833   2.734   9.202 -0.0993  0.3936  0.6733
  142SAPE  H11X15587   2.771   2.804   9.142 -2.0743 -0.1306  2.0213
  142SAPE  H11Y15588   2.844   2.639   9.144  0.7940  0.2598  1.0379
  142SAPE  C31215589   2.968   2.803   9.217 -0.4160  0.0797 -0.1293
  142SAPE  H12X15590   3.042   2.734   9.262 -1.3354 -0.3614  0.7305
  142SAPE  H12Y15591   2.946   2.886   9.288 -0.2574 -0.7956  0.9551
  142SAPE  C31315592   3.040   2.861   9.093 -0.0163 -0.0293  0.1460
  142SAPE  H13X15593   2.991   2.960   9.077 -0.7420 -0.6431 -1.6335
  142SAPE  H13Y15594   3.042   2.793   9.006 -0.1279  0.5452 -0.3152
  142SAPE  C31415595   3.186   2.885   9.131  0.2966 -0.3026  0.0004
  142SAPE  H14X15596   3.240   2.788   9.142  0.8351 -0.4011 -2.6869
  142SAPE  H14Y15597   3.199   2.941   9.226 -1.4456  2.6185 -1.3576
  142SAPE  C31515598   3.279   2.952   9.024  0.2445  0.3877 -0.5953
  142SAPE  H15X15599   3.314   3.054   9.050 -0.1830  0.0010  1.6708
  142SAPE  H15Y15600   3.221   2.957   8.929  1.3374  3.1046 -1.2291
  142SAPE  C31615601   3.405   2.879   8.980 -0.8518  0.2257 -0.3036
  142SAPE  H16X15602   3.382   2.770   8.974  1.7337 -0.5408  1.7489
  142SAPE  H16Y15603   3.481   2.886   9.061 -1.6613  0.5613  0.4428
  142SAPE  C31715604   3.466   2.955   8.855  0.3343  0.5103  0.0252
  142SAPE  H17X15605   3.526   3.045   8.880  0.3102  0.5786 -0.1607
  142SAPE  H17Y15606   3.378   2.972   8.790 -1.4359  0.1493  2.1990
  142SAPE  C31815607   3.572   2.864   8.789 -0.5741  0.4268 -0.1012
  142SAPE  H18X15608   3.519   2.768   8.773 -0.2400  0.2389 -0.0927
  142SAPE  H18Y15609   3.663   2.847   8.851 -0.5082 -2.1909 -0.7791
  142SAPE  H18Z15610   3.604   2.903   8.690  0.2412 -0.7906 -0.3459
  143SAPE     N15611   3.602   5.095  10.929 -0.6086 -0.1772 -0.6127
  143SAPE   HN115612   3.539   5.013  10.939  0.1635 -0.8343 -0.9544
  143SAPE   HN215613   3.616   5.139  11.023  1.1070  1.4559 -1.5589
  143SAPE   HN315614   3.556   5.167  10.869 -0.6432  1.9462  1.7608
  143SAPE   C1215615   3.730   5.046  10.873 -0.4372  0.3303 -0.1932
  143SAPE  H12A15616   3.703   5.017  10.769 -0.8433  0.3219 -0.0837
  143SAPE  H12B15617   3.763   4.961  10.936 -1.0080  0.2531  0.0049
  143SAPE   C1115618   3.834   5.151  10.846  0.1009  0.4835  0.0527
  143SAPE  H11A15619   3.786   5.227  10.781 -1.2681 -0.0054  0.4560
  143SAPE  H11B15620   3.915   5.111  10.781 -0.6467 -1.2403  0.1181
  143SAPE     P15621   3.915   5.357  10.979 -0.1342 -0.1302 -0.1226
  143SAPE   O1315622   3.783   5.428  10.993 -0.6000 -0.5749 -0.0535
  143SAPE   O1415623   4.012   5.375  11.096 -0.3223 -0.1646  0.2416
  143SAPE   O1215624   3.877   5.203  10.968 -0.1079 -0.6886 -0.2435
  143SAPE   O1115625   3.970   5.394  10.829  0.6096 -0.3776 -0.3183
  143SAPE    C115626   4.088   5.351  10.777  0.0170 -0.0986 -0.0970
  143SAPE    HA15627   4.180   5.391  10.825  0.4206 -0.6909 -0.3664
  143SAPE    HB15628   4.096   5.241  10.785 -3.1068 -0.6727 -2.6740
  143SAPE    C215629   4.110   5.397  10.629  1.0905  1.0470 -0.0409
  143SAPE    HS15630   4.024   5.358  10.570  1.1627 -0.3016  0.7139
  143SAPE   O2115631   4.235   5.341  10.587  0.1050  0.3777 -0.0598
  143SAPE   C2115632   4.234   5.249  10.489 -0.6605 -0.2105  0.5138
  143SAPE   O2215633   4.138   5.189  10.451  0.6329 -0.1831  0.2625
  143SAPE   C2215634   4.364   5.233  10.422 -0.5469 -1.2954 -0.2328
  143SAPE   H2R15635   4.444   5.267  10.491 -1.9392  0.1426  0.7337
  143SAPE   H2S15636   4.383   5.124  10.409  1.9952 -0.8824 -0.3692
  143SAPE    C315637   4.119   5.548  10.613  0.2669 -0.3427 -0.8433
  143SAPE    HX15638   4.194   5.575  10.690 -1.2803  0.8870  0.3078
  143SAPE    HY15639   4.017   5.585  10.637  0.3729 -1.1648  1.0884
  143SAPE   O3115640   4.171   5.594  10.480  0.4602  0.1257 -0.4089
  143SAPE   C3115641   4.086   5.574  10.375  0.5815 -0.6885  0.0204
  143SAPE   O3215642   3.972   5.537  10.393  0.1680 -0.4403  0.2453
  143SAPE   C3215643   4.161   5.620  10.246  0.1005  0.8139  0.4765
  143SAPE   H2X15644   4.269   5.598  10.247 -0.0793 -1.9816 -4.8534
  143SAPE   H2Y15645   4.147   5.730  10.230  0.4476  0.6920 -0.7229
  143SAPE   C2315646   4.383   5.297  10.285  0.6298 -0.2938  0.7953
  143SAPE   H3R15647   4.380   5.407  10.294  0.1345 -0.2455  0.0940
  143SAPE   H3S15648   4.293   5.277  10.222 -0.1612  1.0729  1.4439
  143SAPE   C2415649   4.521   5.263  10.223 -0.1461  0.4898  0.1725
  143SAPE   H4R15650   4.596   5.288  10.302 -1.0543 -2.4992  2.1588
  143SAPE   H4S15651   4.545   5.325  10.134 -0.3695  0.7163  0.2692
  143SAPE   C2515652   4.542   5.119  10.167  0.1800 -0.0679  0.3581
  143SAPE   H5R15653   4.583   5.041  10.233 -0.1380  0.4415  1.1735
  143SAPE   C2615654   4.499   5.077  10.044  0.5181  0.3073 -0.3306
  143SAPE   H6R15655   4.541   4.979  10.014 -3.1121 -1.9340  1.3111
  143SAPE   C2715656   4.419   5.153   9.951  0.1391 -0.0712 -0.3821
  143SAPE   H7R15657   4.357   5.233   9.996 -0.7902 -0.7845 -0.3738
  143SAPE   H7S15658   4.327   5.099   9.920  0.2751  0.2188 -1.3392
  143SAPE   C2815659   4.508   5.212   9.844  0.3832  0.5491 -0.2160
  143SAPE   H8R15660   4.610   5.234   9.881  0.3292 -0.9615  0.9185
  143SAPE   C2915661   4.480   5.227   9.711 -0.1827 -0.4466  0.0582
  143SAPE   H9R15662   4.557   5.259   9.639 -0.3538 -2.2173 -0.9607
  143SAPE  C21015663   4.353   5.182   9.644  0.0345 -0.3064  0.2633
  143SAPE  H10R15664   4.312   5.273   9.595 -0.8343 -0.0317  1.4555
  143SAPE  H10S15665   4.273   5.148   9.713 -0.6885 -2.4671 -1.5215
  143SAPE  C21115666   4.383   5.065   9.548 -0.0004 -0.0284  0.1889
  143SAPE  H11R15667   4.359   4.969   9.596  2.2458 -0.6316  0.2168
  143SAPE  C21215668   4.427   5.062   9.423  0.4793  0.3198 -0.1025
  143SAPE  H12R15669   4.449   4.962   9.384  0.0526  0.4053 -0.5573
  143SAPE  C21315670   4.454   5.183   9.335 -0.4334  0.0131  0.6743
  143SAPE  H13R15671   4.559   5.168   9.301 -1.3338 -4.2752 -0.8893
  143SAPE  H13S15672   4.460   5.280   9.389  1.8882 -0.2033  0.9135
  143SAPE  C21415673   4.359   5.195   9.214  0.5791  0.0698  0.6784
  143SAPE  H14R15674   4.252   5.208   9.234  0.1435 -0.5166 -1.1141
  143SAPE  C21515675   4.392   5.203   9.085  0.1276  0.2208  1.2364
  143SAPE  H15R15676   4.311   5.226   9.014  0.1606 -0.6739  0.9014
  143SAPE  C21615677   4.530   5.207   9.018 -0.5756  0.1920 -0.4190
  143SAPE  H16R15678   4.614   5.239   9.083  0.1770 -1.5582 -0.4645
  143SAPE  H16S15679   4.517   5.286   8.942 -0.5903 -0.2216 -0.8484
  143SAPE  C21715680   4.570   5.075   8.951 -0.3172  0.3995 -0.6648
  143SAPE  H17R15681   4.569   5.002   9.034 -2.7136 -1.5859 -2.2939
  143SAPE  H17S15682   4.673   5.080   8.912 -0.0362 -1.6123 -0.2935
  143SAPE  C21815683   4.486   5.032   8.835  0.3521  0.1370 -0.6761
  143SAPE  H18R15684   4.383   5.013   8.872  0.5753  1.1590  0.5698
  143SAPE  H18S15685   4.528   4.945   8.781 -1.0601 -1.8383  1.2221
  143SAPE  C21915686   4.479   5.132   8.715  1.1898  0.0319  0.5792
  143SAPE  H19R15687   4.583   5.169   8.702  0.8495  1.6295  2.0234
  143SAPE  H19S15688   4.435   5.229   8.748  0.3149 -0.4563  0.8779
  143SAPE  C22015689   4.408   5.082   8.589  0.2412 -0.3101  1.0386
  143SAPE  H20R15690   4.436   4.977   8.563 -2.7663 -0.4114 -2.5790
  143SAPE  H20S15691   4.441   5.135   8.497  0.4830 -1.5734  0.3660
  143SAPE  H20T15692   4.300   5.069   8.613  0.2722  0.6646  1.7373
  143SAPE   C3315693   4.105   5.559  10.112  0.0602 -0.5736 -0.4043
  143SAPE   H3X15694   4.002   5.597  10.094 -0.1684 -0.9331  0.1151
  143SAPE   H3Y15695   4.100   5.449  10.129 -1.1723 -0.6483 -1.0928
  143SAPE   C3415696   4.199   5.585   9.991  0.1173  0.1873 -0.1792
  143SAPE   H4X15697   4.295   5.533  10.014 -1.5469 -2.4859  1.2192
  143SAPE   H4Y15698   4.222   5.694   9.988 -1.1896  0.4587 -0.7635
  143SAPE   C3515699   4.147   5.538   9.861 -0.6838  0.0683  0.8385
  143SAPE   H5X15700   4.038   5.556   9.850 -1.0933 -0.7650  3.1231
  143SAPE   H5Y15701   4.158   5.428   9.861  2.7320  0.2264 -1.9639
  143SAPE   C3615702   4.220   5.592   9.735 -0.0079 -0.2039 -0.5474
  143SAPE   H6X15703   4.328   5.570   9.747 -0.0975  0.0218  0.8747
  143SAPE   H6Y15704   4.225   5.702   9.723 -2.8818  0.0699  0.0842
  143SAPE   C3715705   4.159   5.537   9.611  0.0269  0.2181  1.4599
  143SAPE   H7X15706   4.050   5.558   9.606  0.2700  1.7068 -4.1221
  143SAPE   H7Y15707   4.167   5.426   9.620  0.9115  0.3208  2.0389
  143SAPE   C3815708   4.234   5.583   9.485 -0.4829 -0.2485  0.1615
  143SAPE   H8X15709   4.335   5.540   9.472  0.0424  1.4750 -1.9224
  143SAPE   H8Y15710   4.258   5.691   9.496  2.6531 -0.6174 -2.0285
  143SAPE   C3915711   4.154   5.542   9.356 -1.1097  0.4351 -0.9471
  143SAPE   H9X15712   4.056   5.593   9.350 -1.5026 -0.4475 -2.5431
  143SAPE   H9Y15713   4.135   5.435   9.379 -0.7237  0.5462 -0.0623
  143SAPE  C31015714   4.236   5.568   9.232 -0.0513  0.2209  0.3748
  143SAPE  H10X15715   4.334   5.516   9.232  0.9876  2.1079  0.7025
  143SAPE  H10Y15716   4.251   5.677   9.221  0.4414  0.2093  0.8812
  143SAPE  C31115717   4.153   5.522   9.105  0.0348 -0.6750 -0.5452
  143SAPE  H11X15718   4.052   5.569   9.112  1.2700  1.8780  3.0211
  143SAPE  H11Y15719   4.131   5.413   9.115  3.7460 -1.5157  0.0309
  143SAPE  C31215720   4.227   5.555   8.975  0.0449 -0.2590 -0.1034
  143SAPE  H12X15721   4.321   5.495   8.965  0.3474  0.4422 -1.6827
  143SAPE  H12Y15722   4.253   5.662   8.991 -0.8345  0.0247 -0.5723
  143SAPE  C31315723   4.148   5.544   8.847 -0.1376  0.1558  0.4090
  143SAPE  H13X15724   4.067   5.619   8.846  0.8302  1.2626 -1.5738
  143SAPE  H13Y15725   4.096   5.446   8.835 -1.4282  0.8598  0.1380
  143SAPE  C31415726   4.237   5.574   8.722 -0.2864 -0.5603  0.0159
  143SAPE  H14X15727   4.333   5.518   8.725 -0.2545 -0.4937  0.2941
  143SAPE  H14Y15728   4.269   5.680   8.727  0.0957 -0.7056  0.8850
  143SAPE  C31515729   4.158   5.557   8.592  0.1935 -0.4253  0.5041
  143SAPE  H15X15730   4.134   5.449   8.583  0.5589 -0.5644  1.1472
  143SAPE  H15Y15731   4.209   5.602   8.505  1.1019  1.5949  1.9862
  143SAPE  C31615732   4.023   5.629   8.584 -0.4108  0.7368 -0.1724
  143SAPE  H16X15733   3.966   5.623   8.680 -1.2714  0.1407 -0.7110
  143SAPE  H16Y15734   3.968   5.574   8.506 -0.6525  0.5319  0.1381
  143SAPE  C31715735   4.036   5.775   8.545  0.1944  0.2743 -0.4670
  143SAPE  H17X15736   4.103   5.773   8.456  2.1046  0.5297  0.9046
  143SAPE  H17Y15737   4.093   5.827   8.625 -0.6456 -0.1314  0.4159
  143SAPE  C31815738   3.901   5.845   8.510  0.1118 -0.5211  0.3674
  143SAPE  H18X15739   3.909   5.955   8.498  1.0816 -0.7226 -1.1106
  143SAPE  H18Y15740   3.820   5.814   8.579 -0.9462 -0.3008 -0.7440
  143SAPE  H18Z15741   3.852   5.810   8.417 -0.7645 -1.6606  1.2249
  144SAPE     N15742   0.288   4.843  11.224 -0.6450  0.0758 -0.5629
  144SAPE   HN115743   0.198   4.885  11.256 -0.1162  1.3442 -0.7289
  144SAPE   HN215744   0.302   4.755  11.279  0.3118  0.1825 -0.6339
  144SAPE   HN315745   0.369   4.898  11.258 -0.2308 -0.3818 -0.7859
  144SAPE   C1215746   0.286   4.838  11.075 -0.0773  0.4105  0.0153
  144SAPE  H12A15747   0.349   4.755  11.038  0.9943  0.1318  2.2670
  144SAPE  H12B15748   0.318   4.941  11.046 -2.0685  1.3778  1.0206
  144SAPE   C1115749   0.139   4.814  11.027 -0.1554  0.3626 -0.0010
  144SAPE  H11A15750   0.112   4.716  11.070  0.8478  0.3559  0.6578
  144SAPE  H11B15751   0.128   4.802  10.917  0.3971 -1.7496  0.1248
  144SAPE     P15752   0.039   5.054  10.988 -0.3926 -0.3468  0.2300
  144SAPE   O1315753  -0.095   5.113  11.017 -0.4611 -0.0131 -0.0463
  144SAPE   O1415754   0.156   5.138  11.027  0.6181 -0.2091 -0.0359
  144SAPE   O1215755   0.048   4.915  11.067 -0.2338  0.3438 -0.6549
  144SAPE   O1115756   0.046   5.019  10.843  0.7507  0.2177  0.0099
  144SAPE    C115757   0.161   5.058  10.761  0.0483  0.5748 -0.1163
  144SAPE    HA15758   0.179   5.167  10.767 -1.0944  0.7864 -0.2817
  144SAPE    HB15759   0.261   5.026  10.797  0.3835  2.1955  0.4675
  144SAPE    C215760   0.140   5.024  10.607 -0.2868  0.7955 -0.4991
  144SAPE    HS15761   0.245   5.004  10.575  0.0975 -0.1620  1.2058
  144SAPE   O2115762   0.074   5.133  10.544  0.5694 -0.0564  0.6657
  144SAPE   C2115763   0.114   5.148  10.422 -0.1284  0.2148 -0.1704
  144SAPE   O2215764   0.185   5.071  10.361  0.4567  0.0072 -0.6296
  144SAPE   C2215765   0.037   5.263  10.355  0.0693  0.7055  0.1094
  144SAPE   H2R15766   0.031   5.247  10.245  2.2353  0.7412 -0.0447
  144SAPE   H2S15767  -0.064   5.264  10.403  0.0114  0.0903  0.0137
  144SAPE    C315768   0.065   4.895  10.594  0.6829 -0.1197 -0.1895
  144SAPE    HX15769  -0.036   4.910  10.639  0.4536 -1.3435 -0.2660
  144SAPE    HY15770   0.107   4.818  10.662 -0.5593 -1.0445 -0.4375
  144SAPE   O3115771   0.045   4.842  10.460 -0.3679  0.2800  0.2526
  144SAPE   C3115772   0.154   4.783  10.404 -0.0908  0.3534  0.2196
  144SAPE   O3215773   0.262   4.774  10.462  0.4349  0.2198 -0.1532
  144SAPE   C3215774   0.117   4.757  10.254 -0.1450  0.3213  0.0512
  144SAPE   H2X15775   0.132   4.849  10.194 -0.1334  0.3463  0.0916
  144SAPE   H2Y15776   0.008   4.739  10.243  0.1872 -0.3004 -3.2934
  144SAPE   C2315777   0.096   5.407  10.392  0.8720  0.3842 -0.6400
  144SAPE   H3R15778   0.164   5.403  10.480 -0.9918  0.8408  0.8867
  144SAPE   H3S15779   0.018   5.476  10.430  0.5295 -0.9474  1.1922
  144SAPE   C2415780   0.159   5.475  10.270 -0.3018 -0.1468  0.5530
  144SAPE   H4R15781   0.242   5.414  10.228  1.1663  1.8308  0.4444
  144SAPE   H4S15782   0.194   5.578  10.295 -1.8648  0.4123  0.5367
  144SAPE   C2515783   0.049   5.507  10.172  0.1706 -0.5670 -0.2072
  144SAPE   H5R15784  -0.041   5.556  10.212  0.6936  0.2171  0.0091
  144SAPE   C2615785   0.052   5.476  10.046  0.1166 -0.2566 -0.0704
  144SAPE   H6R15786  -0.038   5.493   9.985  0.1272 -2.0568 -0.6588
  144SAPE   C2715787   0.165   5.413   9.974  0.0761  0.1149 -0.4335
  144SAPE   H7R15788   0.207   5.330  10.035 -0.2193  0.7016  0.6012
  144SAPE   H7S15789   0.245   5.490   9.970 -0.0932  0.2759 -0.7490
  144SAPE   C2815790   0.123   5.360   9.837 -0.0376 -0.0012  0.7683
  144SAPE   H8R15791   0.117   5.445   9.768  1.1758  0.7920  1.6055
  144SAPE   C2915792   0.094   5.235   9.792  0.4319 -0.0091 -0.7951
  144SAPE   H9R15793   0.069   5.225   9.686  1.4649 -1.0520 -0.9695
  144SAPE  C21015794   0.102   5.111   9.885 -0.2683 -1.1499 -0.1223
  144SAPE  H10R15795   0.001   5.077   9.915 -0.9928 -1.1087 -2.3395
  144SAPE  H10S15796   0.162   5.136   9.976 -0.5224 -0.4721 -0.1314
  144SAPE  C21115797   0.186   4.997   9.834 -0.3173  0.7618  0.2311
  144SAPE  H11R15798   0.281   4.983   9.888  0.3346 -0.3693 -1.1517
  144SAPE  C21215799   0.157   4.906   9.743  0.3060  0.1547  0.4473
  144SAPE  H12R15800   0.233   4.835   9.706 -2.7932 -3.2819  0.1180
  144SAPE  C21315801   0.034   4.896   9.661  0.8367  0.2227 -0.8709
  144SAPE  H13R15802  -0.042   4.970   9.695 -0.8555 -1.8818  0.2032
  144SAPE  H13S15803  -0.028   4.807   9.686  1.5310  0.2597  1.1509
  144SAPE  C21415804   0.048   4.921   9.513  0.0413  0.2548  0.2632
  144SAPE  H14R15805   0.085   5.022   9.490  1.2293 -0.1134  0.4489
  144SAPE  C21515806   0.006   4.838   9.415  0.3872  0.6127 -0.0647
  144SAPE  H15R15807   0.006   4.870   9.310 -2.4619 -1.6482 -0.8853
  144SAPE  C21615808  -0.059   4.704   9.432  0.6991 -0.1023  0.4107
  144SAPE  H16R15809  -0.160   4.718   9.388  0.2668 -1.3174  0.9506
  144SAPE  H16S15810  -0.082   4.671   9.536  0.5770 -1.7778 -0.1120
  144SAPE  C21715811   0.011   4.590   9.349 -0.0081 -0.0661  0.7601
  144SAPE  H17R15812  -0.051   4.499   9.365  0.7650 -0.5565  1.0176
  144SAPE  H17S15813   0.112   4.577   9.392 -0.0760  2.4189  1.8643
  144SAPE  C21815814   0.025   4.598   9.193 -0.0841 -0.6618 -0.0152
  144SAPE  H18R15815   0.083   4.508   9.163 -1.4242 -1.6372  0.2080
  144SAPE  H18S15816   0.082   4.693   9.186 -2.6926  1.0593  0.7433
  144SAPE  C21915817  -0.097   4.608   9.118  0.4668 -0.3342  0.2484
  144SAPE  H19R15818  -0.163   4.687   9.159 -0.7537 -1.3953  0.4262
  144SAPE  H19S15819  -0.163   4.518   9.124 -0.2433  0.2781  2.7604
  144SAPE  C22015820  -0.070   4.640   8.975 -0.1480 -0.2843  0.2476
  144SAPE  H20R15821  -0.021   4.558   8.918  0.9663  0.3513  0.2676
  144SAPE  H20S15822  -0.012   4.733   8.958 -0.0835 -0.5924 -1.3657
  144SAPE  H20T15823  -0.164   4.661   8.920  0.6327  0.3720 -0.8861
  144SAPE   C3315824   0.196   4.646  10.176 -0.6253 -0.1144  0.7962
  144SAPE   H3X15825   0.189   4.543  10.215 -1.8182 -0.1192  0.6059
  144SAPE   H3Y15826   0.298   4.686  10.158 -1.0442  0.0172 -1.6436
  144SAPE   C3415827   0.137   4.634  10.032 -0.4006 -0.1318 -0.3663
  144SAPE   H4X15828   0.147   4.726   9.971 -2.8606  0.7939  0.4989
  144SAPE   H4Y15829   0.027   4.617  10.042  0.0138 -2.0523  1.8876
  144SAPE   C3515830   0.209   4.518   9.965  0.3959  0.3234  0.7078
  144SAPE   H5X15831   0.179   4.420  10.010  2.8060 -0.9953 -0.4103
  144SAPE   H5Y15832   0.317   4.539   9.980  0.7171  0.9501 -2.0366
  144SAPE   C3615833   0.178   4.505   9.818  0.1603  0.2149 -0.1431
  144SAPE   H6X15834   0.214   4.598   9.770 -2.3732  1.0519 -0.5796
  144SAPE   H6Y15835   0.068   4.494   9.802  0.2963  0.9834 -1.8559
  144SAPE   C3715836   0.251   4.380   9.751 -0.3013 -0.4722 -0.4889
  144SAPE   H7X15837   0.216   4.288   9.802 -0.8840 -1.1628 -2.0830
  144SAPE   H7Y15838   0.360   4.387   9.774 -0.5290  2.4255  0.0840
  144SAPE   C3815839   0.246   4.397   9.603  0.4133  0.3663  0.4505
  144SAPE   H8X15840   0.335   4.454   9.569 -0.3007  0.3701 -1.5625
  144SAPE   H8Y15841   0.155   4.447   9.562  1.2915  0.3595 -1.6756
  144SAPE   C3915842   0.254   4.265   9.522  0.4559  0.4948  0.6915
  144SAPE   H9X15843   0.164   4.203   9.540  1.0199 -0.6258 -0.1487
  144SAPE   H9Y15844   0.350   4.212   9.543  0.1204  0.0666  1.1552
  144SAPE  C31015845   0.252   4.280   9.369  0.0502 -0.0986 -0.9126
  144SAPE  H10X15846   0.349   4.317   9.330 -0.1546  0.2316 -1.1156
  144SAPE  H10Y15847   0.177   4.357   9.343  0.0897 -0.4481 -2.1029
  144SAPE  C31115848   0.220   4.145   9.305 -0.6712 -0.8493 -0.1539
  144SAPE  H11X15849   0.120   4.102   9.327 -0.1876 -2.2449 -0.5985
  144SAPE  H11Y15850   0.289   4.066   9.340  1.0374 -0.1611 -1.7645
  144SAPE  C31215851   0.229   4.132   9.148  0.1785 -0.3582  1.0093
  144SAPE  H12X15852   0.170   4.207   9.091  0.7127 -0.2692  0.5642
  144SAPE  H12Y15853   0.191   4.031   9.124 -0.1050 -0.0609  0.1749
  144SAPE  C31315854   0.369   4.146   9.083 -0.2691 -0.4506 -0.6444
  144SAPE  H13X15855   0.440   4.093   9.151  1.0101  2.1427  0.1616
  144SAPE  H13Y15856   0.400   4.252   9.072 -1.6072 -0.2701 -3.3732
  144SAPE  C31415857   0.375   4.066   8.950  0.3495  0.0758  1.0414
  144SAPE  H14X15858   0.300   3.984   8.950 -0.0350  0.3517 -1.2456
  144SAPE  H14Y15859   0.471   4.017   8.925 -0.2489 -0.8775  0.5366
  144SAPE  C31515860   0.350   4.146   8.822 -0.4457 -0.2670  0.1748
  144SAPE  H15X15861   0.431   4.222   8.819 -0.4364 -0.2872 -1.5829
  144SAPE  H15Y15862   0.246   4.185   8.825 -0.1516  0.5265  0.4214
  144SAPE  C31615863   0.365   4.066   8.693  0.0728 -0.4869  0.2189
  144SAPE  H16X15864   0.303   3.974   8.705 -0.1022 -0.0815  3.2097
  144SAPE  H16Y15865   0.467   4.023   8.684  0.4628  0.7334 -2.0916
  144SAPE  C31715866   0.314   4.130   8.561 -0.1914  0.2518  0.1527
  144SAPE  H17X15867   0.332   4.240   8.560 -1.2656  0.4437  0.2061
  144SAPE  H17Y15868   0.203   4.130   8.553 -0.2041 -2.6429 -0.8039
  144SAPE  C31815869   0.362   4.065   8.425  0.2877  0.1231 -0.7067
  144SAPE  H18X15870   0.370   3.954   8.435  1.0816  0.2704  0.5580
  144SAPE  H18Y15871   0.466   4.100   8.408  0.6566 -0.9817 -0.8268
  144SAPE  H18Z15872   0.294   4.092   8.342 -0.1116 -0.6979 -0.6559
  145SAPE     N15873   4.000   3.758  10.969 -0.0165 -0.4321  0.7196
  145SAPE   HN115874   3.906   3.761  10.926  1.1382 -1.5919 -2.1197
  145SAPE   HN215875   4.004   3.664  11.012  0.8890 -0.6059  0.2717
  145SAPE   HN315876   4.011   3.827  11.047  0.1431  0.8455 -0.3946
  145SAPE   C1215877   4.120   3.769  10.876 -0.4395  0.2184  0.2196
  145SAPE  H12A15878   4.117   3.872  10.837 -0.8877  0.4368  0.8147
  145SAPE  H12B15879   4.105   3.701  10.789  0.4698  1.6973 -1.1373
  145SAPE   C1115880   4.232   3.723  10.960 -0.4890 -0.3780 -0.0413
  145SAPE  H11A15881   4.319   3.716  10.892  1.4235 -2.3273  2.3678
  145SAPE  H11B15882   4.218   3.617  10.994 -4.4673 -0.7755 -2.3282
  145SAPE     P15883   4.399   3.814  11.139 -0.1939 -0.0910  0.2604
  145SAPE   O1315884   4.437   3.954  11.161  0.3746 -0.2395 -0.1889
  145SAPE   O1415885   4.405   3.723  11.253 -0.0087 -0.9069  0.5060
  145SAPE   O1215886   4.255   3.804  11.074  0.4294  0.2604  0.1235
  145SAPE   O1115887   4.497   3.753  11.031 -0.3126 -0.4299 -0.1252
  145SAPE    C115888   4.626   3.813  10.998  0.4566  0.1162  0.1257
  145SAPE    HA15889   4.688   3.847  11.084  2.3393  0.5212 -1.3223
  145SAPE    HB15890   4.688   3.732  10.953 -2.6556 -2.0306 -0.6168
  145SAPE    C215891   4.606   3.927  10.892 -0.3334 -0.3082 -0.4438
  145SAPE    HS15892   4.557   4.010  10.948  2.8264  1.0721  0.5116
  145SAPE   O2115893   4.527   3.881  10.780 -0.3332 -0.7195  0.2067
  145SAPE   C2115894   4.435   3.958  10.725  0.6463  0.5029 -0.5957
  145SAPE   O2215895   4.405   4.073  10.750  0.0781 -0.1786  0.1827
  145SAPE   C2215896   4.365   3.870  10.625  0.3325  0.4452 -0.4148
  145SAPE   H2R15897   4.446   3.828  10.562  2.1049 -2.0536  3.1824
  145SAPE   H2S15898   4.319   3.784  10.679  0.9290  1.3712  1.6827
  145SAPE    C315899   4.738   4.001  10.849  0.4013  0.0611 -0.6399
  145SAPE    HX15900   4.790   4.031  10.943  0.1746  1.9447 -1.0806
  145SAPE    HY15901   4.714   4.090  10.788  4.4033  0.4292 -1.9263
  145SAPE   O3115902   4.815   3.908  10.771 -0.0328  0.3311  0.2607
  145SAPE   C3115903   4.819   3.917  10.641  0.3240 -0.1486 -0.3285
  145SAPE   O3215904   4.765   4.000  10.572 -0.2590  0.3468  0.3944
  145SAPE   C3215905   4.902   3.801  10.587  0.0310  0.0601 -0.6749
  145SAPE   H2X15906   4.863   3.704  10.626  1.5876 -0.3132  0.0385
  145SAPE   H2Y15907   5.004   3.805  10.631  0.2797  0.4961 -1.2794
  145SAPE   C2315908   4.249   3.942  10.541  0.5144  0.2240 -0.3521
  145SAPE   H3R15909   4.182   3.990  10.616  0.5123 -1.3149  0.6907
  145SAPE   H3S15910   4.197   3.860  10.485 -1.2363  1.9354 -1.3595
  145SAPE   C2415911   4.303   4.042  10.440 -0.0738  0.0355 -0.5435
  145SAPE   H4R15912   4.376   3.997  10.369 -0.6912  0.3506 -1.3975
  145SAPE   H4S15913   4.361   4.117  10.497  1.1916 -1.6024  0.4156
  145SAPE   C2515914   4.191   4.101  10.361  0.6163 -0.1010  0.2476
  145SAPE   H5R15915   4.090   4.086  10.403 -0.8355 -1.0434 -3.2290
  145SAPE   C2615916   4.199   4.154  10.238  0.5042 -0.2459  0.0839
  145SAPE   H6R15917   4.106   4.193  10.195 -0.0932  0.9509  2.2739
  145SAPE   C2715918   4.328   4.159  10.152  0.2792 -0.1571 -0.3438
  145SAPE   H7R15919   4.307   4.083  10.073 -2.8931 -0.3578  0.5333
  145SAPE   H7S15920   4.406   4.116  10.218 -0.8288  1.6982  2.3820
  145SAPE   C2815921   4.349   4.303  10.106 -0.0990 -0.5373 -0.5471
  145SAPE   H8R15922   4.382   4.374  10.183  4.1252 -1.3483 -1.3934
  145SAPE   C2915923   4.355   4.341   9.979 -0.8339 -0.2767 -0.5137
  145SAPE   H9R15924   4.391   4.445   9.971 -0.0238 -0.4334  0.7917
  145SAPE  C21015925   4.331   4.268   9.849  0.2203 -0.4549 -0.2926
  145SAPE  H10R15926   4.327   4.158   9.865  2.6897 -0.3535  1.6242
  145SAPE  H10S15927   4.424   4.265   9.789  0.4453  0.5622 -0.0204
  145SAPE  C21115928   4.213   4.316   9.775  0.2426 -1.0360 -0.0995
  145SAPE  H11R15929   4.139   4.375   9.829  1.1910 -0.4369  0.5773
  145SAPE  C21215930   4.184   4.280   9.648  0.7810  0.0323 -0.2140
  145SAPE  H12R15931   4.105   4.340   9.599 -0.8765 -1.2726  0.7575
  145SAPE  C21315932   4.267   4.201   9.547  0.6878 -0.6488 -0.1637
  145SAPE  H13R15933   4.194   4.127   9.508  0.0735 -0.0591 -0.1418
  145SAPE  H13S15934   4.352   4.149   9.597  1.4887  0.9202  0.1749
  145SAPE  C21415935   4.320   4.295   9.447 -0.2587  0.5375  0.3148
  145SAPE  H14R15936   4.359   4.392   9.482 -1.3322  2.0610 -2.4006
  145SAPE  C21515937   4.317   4.272   9.307 -0.4361 -0.4057  0.1735
  145SAPE  H15R15938   4.356   4.353   9.243 -0.3120 -1.1758 -0.7443
  145SAPE  C21615939   4.262   4.154   9.233 -0.8047 -0.5515  0.5743
  145SAPE  H16R15940   4.239   4.080   9.313 -4.6030  0.4309  0.5425
  145SAPE  H16S15941   4.337   4.109   9.165 -1.1313  2.7876 -2.2050
  145SAPE  C21715942   4.131   4.173   9.161 -0.5009  0.3165  0.5654
  145SAPE  H17R15943   4.116   4.266   9.104  2.2284  1.3771  1.3923
  145SAPE  H17S15944   4.054   4.172   9.241 -0.0236 -1.7610  1.0611
  145SAPE  C21815945   4.092   4.048   9.075 -0.7005 -0.0395 -0.0491
  145SAPE  H18R15946   4.000   4.086   9.026  0.8975  0.0977 -3.1534
  145SAPE  H18S15947   4.077   3.960   9.142 -1.3023  0.2739  0.2293
  145SAPE  C21915948   4.191   4.030   8.961 -0.3215  0.5077  0.2686
  145SAPE  H19R15949   4.285   3.980   8.995 -1.6059 -2.0325  0.3001
  145SAPE  H19S15950   4.215   4.118   8.898 -2.8316  1.0543 -0.0082
  145SAPE  C22015951   4.122   3.930   8.855 -0.5324 -0.1771  0.1166
  145SAPE  H20R15952   4.161   3.937   8.751  1.7709 -2.5966  0.6954
  145SAPE  H20S15953   4.015   3.959   8.859 -0.7956 -1.0242 -0.5597
  145SAPE  H20T15954   4.128   3.824   8.886 -2.6464 -0.6034 -0.7890
  145SAPE   C3315955   4.912   3.790  10.432  0.2164 -0.5518 -0.0345
  145SAPE   H3X15956   4.955   3.876  10.376  0.9843  0.5505  2.1391
  145SAPE   H3Y15957   4.811   3.758  10.398 -0.2874  0.4044  0.5321
  145SAPE   C3415958   4.991   3.663  10.398  0.5307  0.6456  0.3013
  145SAPE   H4X15959   4.924   3.574  10.400 -0.2383  1.2146  0.1612
  145SAPE   H4Y15960   5.068   3.643  10.476 -1.7782 -0.2010  2.4792
  145SAPE   C3515961   5.066   3.663  10.272  0.0415 -0.5173 -0.5503
  145SAPE   H5X15962   5.134   3.576  10.263 -1.0142 -1.3053 -1.1005
  145SAPE   H5Y15963   5.126   3.756  10.283 -1.3714  0.5184 -1.1942
  145SAPE   C3615964   4.972   3.682  10.149 -0.4279 -0.2343 -0.1506
  145SAPE   H6X15965   4.900   3.766  10.155  1.5531  1.7130 -2.1415
  145SAPE   H6Y15966   4.905   3.594  10.136 -0.6476  0.0324 -0.8855
  145SAPE   C3715967   5.067   3.697  10.026  0.1754  0.2866 -0.3342
  145SAPE   H7X15968   5.131   3.608  10.008 -0.8562 -0.0419 -2.9417
  145SAPE   H7Y15969   5.133   3.784  10.044 -1.4084  1.1796  1.4567
  145SAPE   C3815970   4.988   3.732   9.898 -0.8506  0.1261 -0.6263
  145SAPE   H8X15971   5.065   3.765   9.825 -0.1817  2.9219  1.2008
  145SAPE   H8Y15972   4.917   3.817   9.907  0.8481  1.4753  0.6163
  145SAPE   C3915973   4.917   3.600   9.838  0.0702 -0.5967  0.7831
  145SAPE   H9X15974   4.855   3.544   9.911  0.9421 -0.2666  1.8036
  145SAPE   H9Y15975   4.988   3.521   9.803 -1.0930 -1.0515 -0.6371
  145SAPE  C31015976   4.831   3.631   9.714  0.4399  0.0490  0.0947
  145SAPE  H10X15977   4.770   3.720   9.739  0.9512 -0.0979  2.0176
  145SAPE  H10Y15978   4.759   3.547   9.701 -0.0409  0.5987 -1.0127
  145SAPE  C31115979   4.903   3.661   9.584 -0.3160 -0.7690 -0.4061
  145SAPE  H11X15980   4.980   3.581   9.579  0.4984 -0.1535  1.2835
  145SAPE  H11Y15981   4.949   3.762   9.597  1.1649 -1.5142  0.4893
  145SAPE  C31215982   4.811   3.657   9.462  0.5078 -0.1706  0.4426
  145SAPE  H12X15983   4.736   3.739   9.466  1.5543  0.8592 -0.1276
  145SAPE  H12Y15984   4.772   3.554   9.455  1.4107 -0.4532 -0.6993
  145SAPE  C31315985   4.892   3.673   9.334  0.0692  0.0413 -0.0484
  145SAPE  H13X15986   4.980   3.604   9.332  1.0059  1.1998  0.1709
  145SAPE  H13Y15987   4.926   3.778   9.325 -1.1001  0.4131 -0.2408
  145SAPE  C31415988   4.809   3.650   9.206 -0.2716 -1.1039 -0.2674
  145SAPE  H14X15989   4.714   3.708   9.204  0.3518 -0.0704 -2.1766
  145SAPE  H14Y15990   4.772   3.545   9.214 -1.9422 -0.5321 -0.0641
  145SAPE  C31515991   4.886   3.684   9.072  0.6307 -0.4162 -0.2016
  145SAPE  H15X15992   4.996   3.665   9.075  0.9893  1.5015  0.0562
  145SAPE  H15Y15993   4.870   3.791   9.048 -3.4043 -0.8290  0.0607
  145SAPE  C31615994   4.842   3.590   8.961 -0.0315  0.2007  0.4373
  145SAPE  H16X15995   4.738   3.574   8.925  0.7752 -1.4484 -1.3384
  145SAPE  H16Y15996   4.869   3.494   9.010  1.5187  0.3759 -0.0167
  145SAPE  C31715997   4.938   3.594   8.841 -0.6601  0.4043  0.4479
  145SAPE  H17X15998   4.909   3.510   8.775 -0.8688  1.6941 -1.1591
  145SAPE  H17Y15999   5.040   3.578   8.883 -1.0813  1.0577  1.7565
  145SAPE  C31816000   4.923   3.718   8.750  0.1390  0.3401  0.0771
  145SAPE  H18X16001   4.821   3.718   8.705  0.1425  2.2987 -0.0065
  145SAPE  H18Y16002   4.988   3.720   8.661 -0.3974 -0.6211 -0.3558
  145SAPE  H18Z16003   4.927   3.812   8.808 -1.9268  0.7630 -0.3561
  146SAPE     N16004   2.246   3.617  10.951 -0.5535  0.2424  0.2392
  146SAPE   HN116005   2.219   3.647  11.047 -0.0893 -0.8130  0.7184
  146SAPE   HN216006   2.243   3.514  10.935 -1.0527  0.4697 -1.2751
  146SAPE   HN316007   2.346   3.642  10.933  0.0793 -0.8757  1.8616
  146SAPE   C1216008   2.151   3.681  10.857  0.6124 -0.1802 -0.4961
  146SAPE  H12A16009   2.045   3.650  10.862 -0.1403  2.3425  2.0136
  146SAPE  H12B16010   2.183   3.643  10.758 -1.2525 -0.7207 -0.9158
  146SAPE   C1116011   2.150   3.829  10.869  0.7173 -0.1919 -0.2542
  146SAPE  H11A16012   2.130   3.852  10.975 -2.1379  0.6686 -0.8978
  146SAPE  H11B16013   2.070   3.872  10.804 -0.8001 -2.3688  0.0551
  146SAPE     P16014   2.336   3.940  10.711  0.4330  0.5027  0.2635
  146SAPE   O1316015   2.295   4.086  10.693 -0.4093 -0.4862 -0.1834
  146SAPE   O1416016   2.481   3.912  10.716  0.3124  0.0053  0.0600
  146SAPE   O1216017   2.280   3.879  10.846  0.5287 -0.4068  0.1442
  146SAPE   O1116018   2.268   3.852  10.601 -0.1571 -0.5256  0.1576
  146SAPE    C116019   2.333   3.776  10.506  0.2545  0.0551  0.3611
  146SAPE    HA16020   2.436   3.742  10.531  0.2499 -1.4532 -1.4590
  146SAPE    HB16021   2.271   3.685  10.490  1.5476 -0.4823 -2.0304
  146SAPE    C216022   2.325   3.835  10.364  0.3463 -0.2922  1.0171
  146SAPE    HS16023   2.365   3.757  10.297  1.0997  1.0543 -0.1503
  146SAPE   O2116024   2.393   3.958  10.354 -0.8615  0.6830 -0.0186
  146SAPE   C2116025   2.520   3.947  10.316 -0.0907 -0.4325 -0.2959
  146SAPE   O2216026   2.579   3.846  10.285 -0.2519 -0.5251  0.3244
  146SAPE   C2216027   2.581   4.088  10.315 -0.5907  0.8394  0.1597
  146SAPE   H2R16028   2.578   4.127  10.419  3.3349 -2.1220  1.6260
  146SAPE   H2S16029   2.686   4.080  10.279 -0.8102  1.4142 -0.6367
  146SAPE    C316030   2.176   3.864  10.323  0.0812  0.3403 -0.4988
  146SAPE    HX16031   2.131   3.940  10.390  2.6760 -0.9605  3.1246
  146SAPE    HY16032   2.125   3.771  10.355  0.5212  1.1706  3.0997
  146SAPE   O3116033   2.156   3.873  10.182 -0.4200  0.2840  0.4303
  146SAPE   C3116034   2.165   3.998  10.135 -0.1816 -0.0554  0.5393
  146SAPE   O3216035   2.193   4.097  10.198 -0.1565  0.2648 -0.1706
  146SAPE   C3216036   2.144   4.004   9.984  0.0206 -0.2406  0.3316
  146SAPE   H2X16037   2.200   4.092   9.945  0.1411 -0.5396 -0.1752
  146SAPE   H2Y16038   2.035   4.023   9.971 -0.1724 -0.3506  1.6911
  146SAPE   C2316039   2.506   4.189  10.226 -0.4932 -0.7349  0.0807
  146SAPE   H3R16040   2.561   4.286  10.227 -1.1385 -0.3434 -0.8456
  146SAPE   H3S16041   2.411   4.209  10.280  1.0124 -0.4761  2.8305
  146SAPE   C2416042   2.472   4.140  10.087 -0.7309  0.0974  0.1621
  146SAPE   H4R16043   2.408   4.216  10.038 -0.2688 -1.3586 -3.0030
  146SAPE   H4S16044   2.410   4.048  10.085 -1.1214  0.2405 -4.3443
  146SAPE   C2516045   2.599   4.118  10.003 -0.0970 -0.5809 -0.5081
  146SAPE   H5R16046   2.639   4.016  10.014  0.8769 -0.0356  1.5582
  146SAPE   C2616047   2.667   4.206   9.923  0.9318  0.2391 -0.0235
  146SAPE   H6R16048   2.756   4.173   9.869 -0.3496 -2.3588 -0.7330
  146SAPE   C2716049   2.639   4.354   9.906 -0.1451  0.0882 -0.6127
  146SAPE   H7R16050   2.529   4.368   9.910 -0.1613  0.4724 -2.0657
  146SAPE   H7S16051   2.669   4.375   9.801 -1.7665 -1.6435 -1.4834
  146SAPE   C2816052   2.698   4.446  10.010 -0.2674  0.1566 -0.5174
  146SAPE   H8R16053   2.725   4.401  10.107 -0.8112 -1.2263 -0.9821
  146SAPE   C2916054   2.736   4.571   9.987  0.7425 -0.0566  0.8992
  146SAPE   H9R16055   2.783   4.629  10.068  2.1470  0.3150 -0.1352
  146SAPE  C21016056   2.721   4.649   9.861 -0.0200  0.0549  0.1850
  146SAPE  H10R16057   2.672   4.747   9.882  2.9481  1.6533  0.1512
  146SAPE  H10S16058   2.651   4.596   9.792  1.0224 -1.1729  0.0272
  146SAPE  C21116059   2.857   4.666   9.788  0.9558 -0.2805 -1.1276
  146SAPE  H11R16060   2.949   4.644   9.844  1.8320  4.0996 -0.4982
  146SAPE  C21216061   2.862   4.697   9.658  0.5922  0.4366 -0.5956
  146SAPE  H12R16062   2.964   4.714   9.622  0.9987 -0.0878  0.2832
  146SAPE  C21316063   2.746   4.722   9.566  0.4630 -0.5507  0.5533
  146SAPE  H13R16064   2.703   4.820   9.593  0.6657 -1.0899  3.1013
  146SAPE  H13S16065   2.660   4.653   9.577 -1.6993  2.2631  2.4244
  146SAPE  C21416066   2.795   4.727   9.421 -0.0575  0.4940 -0.4012
  146SAPE  H14R16067   2.850   4.640   9.381 -0.4548 -0.3183  0.7606
  146SAPE  C21516068   2.784   4.831   9.335 -0.1157 -0.0542 -0.6106
  146SAPE  H15R16069   2.808   4.811   9.230  1.8592  2.5944 -0.7513
  146SAPE  C21616070   2.705   4.956   9.362  0.2949 -0.2821  0.3053
  146SAPE  H16R16071   2.776   5.030   9.404  0.3832 -0.3299  0.2398
  146SAPE  H16S16072   2.622   4.949   9.436  0.3924  0.8837  0.5395
  146SAPE  C21716073   2.639   5.020   9.232  0.4387  0.8805  0.4279
  146SAPE  H17R16074   2.596   4.938   9.170  0.6563  1.1549 -0.0919
  146SAPE  H17S16075   2.717   5.070   9.171  1.2103 -1.9456 -1.0848
  146SAPE  C21816076   2.520   5.108   9.261 -0.3673 -0.2277 -0.2941
  146SAPE  H18R16077   2.541   5.198   9.322 -2.9284  1.8670 -2.2565
  146SAPE  H18S16078   2.440   5.052   9.315 -0.5308  1.0445  0.8286
  146SAPE  C21916079   2.458   5.166   9.131  0.0012 -0.5922 -0.3986
  146SAPE  H19R16080   2.399   5.089   9.077 -0.2692 -0.5715 -0.1391
  146SAPE  H19S16081   2.540   5.201   9.065 -0.6700 -0.6104 -1.2622
  146SAPE  C22016082   2.366   5.285   9.157  0.4102 -0.3166 -0.1341
  146SAPE  H20R16083   2.329   5.332   9.063 -0.8954  1.9064  1.4068
  146SAPE  H20S16084   2.418   5.364   9.215  1.4861 -1.6338  0.7573
  146SAPE  H20T16085   2.277   5.259   9.219 -0.2773  0.0763 -0.9346
  146SAPE   C3316086   2.178   3.878   9.895 -0.1032 -0.0148 -0.0658
  146SAPE   H3X16087   2.107   3.802   9.934  1.2356  0.4344  3.7160
  146SAPE   H3Y16088   2.279   3.845   9.927  0.8638  0.1713 -2.7194
  146SAPE   C3416089   2.193   3.902   9.743  0.4669  0.0539 -1.0004
  146SAPE   H4X16090   2.263   3.986   9.729  0.6717 -0.2796 -2.0998
  146SAPE   H4Y16091   2.091   3.934   9.713  0.1126  0.7446  0.8291
  146SAPE   C3516092   2.244   3.775   9.678 -0.2059 -0.4550 -0.1131
  146SAPE   H5X16093   2.176   3.689   9.691  0.2514 -1.1337 -1.9394
  146SAPE   H5Y16094   2.330   3.737   9.738 -1.5191 -0.7207  1.6794
  146SAPE   C3616095   2.290   3.794   9.536 -0.0264 -0.3014 -0.2698
  146SAPE   H6X16096   2.370   3.871   9.532  0.3911 -0.5082  2.2031
  146SAPE   H6Y16097   2.204   3.819   9.470  0.1534 -0.8557 -0.7219
  146SAPE   C3716098   2.343   3.659   9.482 -0.0282  0.4056  0.1220
  146SAPE   H7X16099   2.270   3.578   9.502 -0.9544  1.4624  1.1082
  146SAPE   H7Y16100   2.440   3.628   9.527  0.0212  2.1087  1.2794
  146SAPE   C3816101   2.365   3.668   9.334  0.0294 -0.0538 -0.3443
  146SAPE   H8X16102   2.384   3.771   9.296 -0.7503  0.0306 -0.5137
  146SAPE   H8Y16103   2.273   3.651   9.274 -1.1216  0.3409  1.2495
  146SAPE   C3916104   2.456   3.565   9.286  0.2767 -0.0974  0.5422
  146SAPE   H9X16105   2.418   3.466   9.319 -2.0295  0.1107 -1.2414
  146SAPE   H9Y16106   2.556   3.584   9.330 -0.4952  0.0079  2.3228
  146SAPE  C31016107   2.456   3.554   9.131 -0.3674  0.0181 -0.2081
  146SAPE  H10X16108   2.418   3.650   9.089 -1.7313  0.9151  2.7635
  146SAPE  H10Y16109   2.391   3.472   9.094 -0.1142  0.7093 -2.3722
  146SAPE  C31116110   2.586   3.521   9.067 -0.7538 -0.1699  0.0456
  146SAPE  H11X16111   2.627   3.427   9.109  1.4515  0.7480  0.1091
  146SAPE  H11Y16112   2.656   3.604   9.088  0.4715 -0.6624 -1.7940
  146SAPE  C31216113   2.582   3.514   8.912 -0.3854 -0.1788  0.1253
  146SAPE  H12X16114   2.681   3.495   8.867 -0.4655 -0.8298  0.2118
  146SAPE  H12Y16115   2.555   3.617   8.881  0.7821  0.0678 -0.1135
  146SAPE  C31316116   2.490   3.408   8.856  0.2175 -0.5868 -0.1639
  146SAPE  H13X16117   2.382   3.434   8.865 -0.5624 -4.0394  4.1338
  146SAPE  H13Y16118   2.504   3.313   8.912  1.1380  0.8790  2.2206
  146SAPE  C31416119   2.516   3.375   8.704 -0.2088  0.1219 -0.0750
  146SAPE  H14X16120   2.625   3.365   8.685  0.0692  1.9007  0.3821
  146SAPE  H14Y16121   2.487   3.469   8.651 -0.7438  0.0208  0.0317
  146SAPE  C31516122   2.417   3.267   8.647 -0.0161 -1.1602 -0.5636
  146SAPE  H15X16123   2.313   3.307   8.648 -1.1911 -3.9556 -1.2494
  146SAPE  H15Y16124   2.425   3.188   8.724 -0.5099  0.1898  0.9208
  146SAPE  C31616125   2.436   3.208   8.514 -0.9245  0.0776 -0.0755
  146SAPE  H16X16126   2.443   3.295   8.446 -1.6034  0.5222  0.4108
  146SAPE  H16Y16127   2.343   3.155   8.484 -0.8392  1.2928 -2.7105
  146SAPE  C31716128   2.576   3.137   8.505  0.2036  0.0230  0.2131
  146SAPE  H17X16129   2.587   3.068   8.591  1.9190  0.9201  0.7819
  146SAPE  H17Y16130   2.663   3.205   8.522 -0.7407  0.9027  1.7860
  146SAPE  C31816131   2.584   3.075   8.370 -0.0196  0.3150  1.0545
  146SAPE  H18X16132   2.682   3.022   8.371  0.7289  1.5440 -1.1661
  146SAPE  H18Y16133   2.591   3.145   8.284  0.9351 -0.1402  0.7451
  146SAPE  H18Z16134   2.495   3.012   8.349  0.2018 -0.6416  2.7758
  147SAPE     N16135   6.577   1.291   5.999 -0.1754  0.5533  0.8311
  147SAPE   HN116136   6.481   1.254   6.016 -1.4898  3.4897  0.5097
  147SAPE   HN216137   6.569   1.395   5.996 -0.8331  0.5147  1.1268
  147SAPE   HN316138   6.616   1.251   5.911 -1.9981  0.3667  0.0660
  147SAPE   C1216139   6.671   1.246   6.109  0.0420  0.9616 -0.1554
  147SAPE  H12A16140   6.639   1.294   6.204 -0.7699  0.1933 -0.0259
  147SAPE  H12B16141   6.771   1.280   6.075  0.4638 -2.0008 -2.3013
  147SAPE   C1116142   6.664   1.095   6.130 -0.8407 -0.9245  0.3199
  147SAPE  H11A16143   6.712   1.063   6.035 -1.2136 -0.5119 -0.0119
  147SAPE  H11B16144   6.556   1.068   6.126 -0.9934 -0.2441 -0.4107
  147SAPE     P16145   6.890   1.006   6.237  0.1007  0.2755  0.0120
  147SAPE   O1316146   6.906   0.883   6.160  0.1058 -0.3792  0.0015
  147SAPE   O1416147   6.952   1.128   6.192  0.1575  0.3406  0.1742
  147SAPE   O1216148   6.736   1.042   6.247 -0.3509 -0.8326  0.1671
  147SAPE   O1116149   6.930   0.968   6.378  0.7239 -0.2901 -0.2292
  147SAPE    C116150   6.845   0.997   6.488  0.0393 -0.2377 -0.2070
  147SAPE    HA16151   6.807   1.101   6.482  1.0347  0.0732 -2.3852
  147SAPE    HB16152   6.764   0.926   6.511 -1.3553  1.7299  1.2878
  147SAPE    C216153   6.941   0.997   6.615  1.0322 -0.3798  0.4602
  147SAPE    HS16154   7.029   1.057   6.585 -0.1473  1.0876 -0.2253
  147SAPE   O2116155   6.960   0.861   6.652  0.0100 -0.0633  0.3525
  147SAPE   C2116156   7.065   0.841   6.731 -0.0024 -0.0965  0.7510
  147SAPE   O2216157   7.153   0.925   6.745  0.3179  0.4828  0.1475
  147SAPE   C2216158   7.069   0.695   6.784  0.1372 -0.0231  0.6211
  147SAPE   H2R16159   6.968   0.654   6.768 -0.0838  0.1881  1.4580
  147SAPE   H2S16160   7.149   0.641   6.729  0.2242 -0.3277  1.0381
  147SAPE    C316161   6.860   1.076   6.732 -0.2133 -0.0289  0.6266
  147SAPE    HX16162   6.765   1.019   6.738 -0.5076  0.3261 -0.3993
  147SAPE    HY16163   6.849   1.179   6.690  2.5072  0.5528  1.1127
  147SAPE   O3116164   6.934   1.079   6.857  0.4596 -0.2917 -0.1662
  147SAPE   C3116165   7.019   1.183   6.862  0.1294  0.2560 -1.0715
  147SAPE   O3216166   7.034   1.268   6.776  0.6581  0.0916 -0.9951
  147SAPE   C3216167   7.116   1.169   6.978 -0.2426  0.3883 -0.1381
  147SAPE   H2X16168   7.100   1.075   7.035 -3.8682  0.1808 -1.2513
  147SAPE   H2Y16169   7.095   1.252   7.050  2.2439 -1.1462  2.5711
  147SAPE   C2316170   7.107   0.693   6.933  0.0077 -0.4788 -0.2883
  147SAPE   H3R16171   7.186   0.764   6.964 -1.3206  0.4773  0.9823
  147SAPE   H3S16172   7.149   0.591   6.946  1.2037  0.0725  0.3232
  147SAPE   C2416173   6.987   0.727   7.027  0.1499  0.1837  1.1637
  147SAPE   H4R16174   6.904   0.678   6.972  0.9978  2.3391 -2.3269
  147SAPE   H4S16175   6.959   0.834   7.026 -2.2517 -0.3503  3.0177
  147SAPE   C2516176   6.996   0.665   7.166  1.5351  0.4286 -0.2588
  147SAPE   H5R16177   6.970   0.558   7.175  2.2199  0.4297  2.7467
  147SAPE   C2616178   7.027   0.727   7.281  0.0509  0.2492  0.2077
  147SAPE   H6R16179   7.039   0.663   7.370 -1.4222 -0.1784  0.1285
  147SAPE   C2716180   7.072   0.869   7.310  0.0184 -0.7182  0.1465
  147SAPE   H7R16181   7.038   0.898   7.412  0.4206  0.1631  0.0388
  147SAPE   H7S16182   7.014   0.929   7.236 -1.6017  0.3889  2.2096
  147SAPE   C2816183   7.214   0.900   7.303  0.3908 -0.0033  0.1451
  147SAPE   H8R16184   7.250   0.898   7.198 -2.1536 -1.5386 -0.7857
  147SAPE   C2916185   7.298   0.933   7.405  0.0661  0.1856 -0.1493
  147SAPE   H9R16186   7.403   0.953   7.378  0.8994 -5.5561 -2.6009
  147SAPE  C21016187   7.266   0.935   7.552  0.3261  0.5089  0.4242
  147SAPE  H10R16188   7.208   0.844   7.579  0.8485 -0.5109 -1.7371
  147SAPE  H10S16189   7.203   1.025   7.569 -1.8464 -0.8954  0.1583
  147SAPE  C21116190   7.388   0.951   7.636  0.1679  0.3382  0.6936
  147SAPE  H11R16191   7.478   0.995   7.591 -0.5696  0.0029 -1.2358
  147SAPE  C21216192   7.389   0.918   7.766 -0.0926  0.3951 -0.3293
  147SAPE  H12R16193   7.483   0.921   7.822 -0.5275  0.1389  0.4217
  147SAPE  C21316194   7.266   0.865   7.846 -0.2532 -0.5126  0.4242
  147SAPE  H13R16195   7.238   0.764   7.809 -2.9181 -0.5321  2.2718
  147SAPE  H13S16196   7.178   0.930   7.825  0.6649  0.9352  0.9251
  147SAPE  C21416197   7.297   0.835   7.990  0.2043 -0.2357 -0.2693
  147SAPE  H14R16198   7.392   0.783   8.007  0.9117  1.4606  1.2856
  147SAPE  C21516199   7.226   0.876   8.096  0.0757  0.0007 -0.6300
  147SAPE  H15R16200   7.254   0.849   8.199 -2.3160  2.1346  0.6960
  147SAPE  C21616201   7.111   0.972   8.094 -0.0813  0.2420 -0.0912
  147SAPE  H16R16202   7.009   0.928   8.083 -0.3964  0.0803  2.8002
  147SAPE  H16S16203   7.128   1.055   8.022 -0.7794  0.7038  0.2669
  147SAPE  C21716204   7.111   1.040   8.228 -0.7211  0.2429 -0.7815
  147SAPE  H17R16205   7.208   1.093   8.236  0.3092 -1.4131 -1.7352
  147SAPE  H17S16206   7.108   0.965   8.310 -1.7359  1.4560  0.3320
  147SAPE  C21816207   6.998   1.136   8.258 -0.0440  0.4481  0.0539
  147SAPE  H18R16208   6.896   1.093   8.244 -0.0575  0.8383 -1.1497
  147SAPE  H18S16209   7.006   1.228   8.196  0.2817 -0.6913 -1.6894
  147SAPE  C21916210   6.996   1.177   8.406  0.3565  0.1324 -0.0096
  147SAPE  H19R16211   6.930   1.267   8.413  0.2505 -0.0163  1.0756
  147SAPE  H19S16212   7.098   1.214   8.434  0.1233 -0.5784  1.9653
  147SAPE  C22016213   6.955   1.066   8.507  0.2579  0.1853 -0.3468
  147SAPE  H20R16214   6.953   1.114   8.608  1.4284 -0.7813  0.1536
  147SAPE  H20S16215   7.034   0.990   8.523  0.8647  0.7708 -0.5428
  147SAPE  H20T16216   6.859   1.017   8.480 -0.7572 -0.1435  3.2647
  147SAPE   C3316217   7.268   1.182   6.941  1.1290 -0.1242  0.2726
  147SAPE   H3X16218   7.283   1.226   6.840 -0.4868 -0.2261 -0.0370
  147SAPE   H3Y16219   7.292   1.075   6.923  0.9043 -0.2099  0.4744
  147SAPE   C3416220   7.350   1.246   7.052  0.3177  0.5552 -0.0004
  147SAPE   H4X16221   7.288   1.251   7.145  0.9785 -2.4949  0.7205
  147SAPE   H4Y16222   7.383   1.345   7.013  0.3960  0.4536 -0.1873
  147SAPE   C3516223   7.481   1.177   7.098 -0.8182  0.0710 -0.2029
  147SAPE   H5X16224   7.545   1.155   7.010  0.2847  1.5236  0.1839
  147SAPE   H5Y16225   7.453   1.080   7.143  0.2044 -0.1306  0.0154
  147SAPE   C3616226   7.559   1.260   7.196 -0.5834  0.2820 -0.0265
  147SAPE   H6X16227   7.586   1.354   7.142 -1.2074  0.2357 -0.4265
  147SAPE   H6Y16228   7.650   1.202   7.223 -0.5357 -0.4535 -1.6833
  147SAPE   C3716229   7.483   1.287   7.324  0.1454 -0.0315 -0.5203
  147SAPE   H7X16230   7.414   1.205   7.353  0.1843  1.0403  3.0875
  147SAPE   H7Y16231   7.419   1.373   7.297  2.9743  2.2267 -0.5007
  147SAPE   C3816232   7.559   1.338   7.446 -0.4553 -0.6115  0.0399
  147SAPE   H8X16233   7.609   1.426   7.401 -2.1465 -0.4538 -1.6689
  147SAPE   H8Y16234   7.643   1.281   7.491  1.4588  0.9855 -1.3407
  147SAPE   C3916235   7.466   1.382   7.559 -1.0677 -0.2311 -0.3149
  147SAPE   H9X16236   7.430   1.286   7.601 -2.8789 -0.0167 -1.2704
  147SAPE   H9Y16237   7.378   1.445   7.533 -1.5222 -0.4288  0.6879
  147SAPE  C31016238   7.547   1.451   7.674  0.7866 -0.3024 -0.4345
  147SAPE  H10X16239   7.571   1.556   7.647 -1.5891  0.3920 -0.0349
  147SAPE  H10Y16240   7.643   1.398   7.696 -0.3202 -1.6596  1.4377
  147SAPE  C31116241   7.459   1.474   7.804 -0.0900  1.0923  0.6152
  147SAPE  H11X16242   7.359   1.508   7.770 -1.5065 -0.7564  2.6556
  147SAPE  H11Y16243   7.514   1.556   7.854 -0.4419  2.3497 -0.9553
  147SAPE  C31216244   7.432   1.341   7.880 -0.7320 -0.2721 -0.2186
  147SAPE  H12X16245   7.524   1.300   7.926  0.9962 -0.7021 -3.7441
  147SAPE  H12Y16246   7.393   1.267   7.806 -3.2048  0.1573  0.5625
  147SAPE  C31316247   7.334   1.358   7.989 -0.7528  0.0414  0.2090
  147SAPE  H13X16248   7.296   1.257   8.014  0.4076 -0.2697  0.7858
  147SAPE  H13Y16249   7.245   1.418   7.961 -0.9410 -0.3266  0.0146
  147SAPE  C31416250   7.400   1.413   8.115 -0.4585 -0.5454 -0.2022
  147SAPE  H14X16251   7.427   1.517   8.086  0.1351 -0.6031  0.1270
  147SAPE  H14Y16252   7.493   1.360   8.144 -0.5364 -0.2749  0.5531
  147SAPE  C31516253   7.303   1.427   8.228 -0.0750 -0.1623 -0.2931
  147SAPE  H15X16254   7.287   1.321   8.257 -0.7633 -0.6576 -2.2919
  147SAPE  H15Y16255   7.205   1.459   8.187 -0.6570 -2.3346 -0.7456
  147SAPE  C31616256   7.358   1.514   8.338  0.3471  0.3854  0.1548
  147SAPE  H16X16257   7.412   1.597   8.289  3.8144 -2.3371 -1.0988
  147SAPE  H16Y16258   7.438   1.457   8.390  0.7988  0.6961 -0.1952
  147SAPE  C31716259   7.259   1.561   8.448 -0.3625 -0.0836 -0.3793
  147SAPE  H17X16260   7.316   1.582   8.541 -0.1077 -0.1954 -0.5072
  147SAPE  H17Y16261   7.204   1.468   8.472 -0.6802  0.5807  1.6776
  147SAPE  C31816262   7.161   1.678   8.422  0.3186  0.1635  0.6177
  147SAPE  H18X16263   7.104   1.659   8.329  1.9846  0.0475 -0.4255
  147SAPE  H18Y16264   7.204   1.778   8.397 -2.9925  1.1136 -2.0130
  147SAPE  H18Z16265   7.095   1.681   8.511  0.5178 -2.7112  0.9444
  148SAPE     N16266   5.232   6.371   6.383 -0.1349 -0.6137 -0.4602
  148SAPE   HN116267   5.165   6.323   6.320 -1.4374 -1.3502  1.4137
  148SAPE   HN216268   5.226   6.321   6.474  0.5560  1.9330  1.1039
  148SAPE   HN316269   5.209   6.472   6.393  0.3871 -0.6369  1.3708
  148SAPE   C1216270   5.364   6.374   6.316 -0.6182  0.3848 -0.0706
  148SAPE  H12A16271   5.446   6.399   6.386  1.1317 -0.3588 -1.7712
  148SAPE  H12B16272   5.356   6.440   6.227  1.9969  1.6405  0.5310
  148SAPE   C1116273   5.397   6.235   6.270 -0.2375  0.3722  0.0739
  148SAPE  H11A16274   5.491   6.236   6.211  0.8987 -1.3619  1.7112
  148SAPE  H11B16275   5.309   6.199   6.213 -0.5582  0.1062  0.7234
  148SAPE     P16276   5.429   5.990   6.349 -0.0508  0.5154 -0.2285
  148SAPE   O1316277   5.304   5.940   6.292  0.2912  0.4511 -0.2461
  148SAPE   O1416278   5.552   5.965   6.268  0.3657 -0.3008 -0.4854
  148SAPE   O1216279   5.419   6.142   6.382  0.8452 -0.1007 -0.1636
  148SAPE   O1116280   5.451   5.948   6.496 -0.2105 -0.2456  0.0171
  148SAPE    C116281   5.382   5.848   6.573 -0.0389  0.2732  0.9605
  148SAPE    HA16282   5.324   5.780   6.507  0.6386  0.4706  0.1452
  148SAPE    HB16283   5.451   5.774   6.619 -0.0762  1.3611  2.8710
  148SAPE    C216284   5.292   5.902   6.694 -1.0799  0.7374  0.1013
  148SAPE    HS16285   5.226   5.978   6.647 -0.4471  0.2507 -1.6854
  148SAPE   O2116286   5.373   5.949   6.806  0.0845 -0.0945 -0.2157
  148SAPE   C2116287   5.309   6.033   6.887 -0.4341  0.3999  0.2853
  148SAPE   O2216288   5.212   6.095   6.853 -0.1162 -0.0389 -0.2109
  148SAPE   C2216289   5.381   6.038   7.022 -0.2143  0.3604  0.4448
  148SAPE   H2R16290   5.440   5.946   7.040 -1.4983 -0.4783  0.4622
  148SAPE   H2S16291   5.449   6.126   7.025  1.0741 -0.4650 -1.9273
  148SAPE    C316292   5.189   5.790   6.740 -0.2436  0.1736 -0.6371
  148SAPE    HX16293   5.120   5.763   6.657  1.0315  0.0182 -1.6645
  148SAPE    HY16294   5.123   5.829   6.820 -0.6589 -0.3416 -0.7230
  148SAPE   O3116295   5.253   5.666   6.776 -0.3865  0.4490  0.1237
  148SAPE   C3116296   5.302   5.676   6.905  0.3313  0.3998  0.2359
  148SAPE   O3216297   5.264   5.758   6.991  0.1138 -0.5537  0.5405
  148SAPE   C3216298   5.389   5.554   6.931 -0.2601  0.3692 -0.0248
  148SAPE   H2X16299   5.481   5.565   6.870  0.3122  3.4107  1.1757
  148SAPE   H2Y16300   5.337   5.461   6.901 -1.2882  0.2330  1.9656
  148SAPE   C2316301   5.272   6.055   7.126 -0.1406 -0.6359  0.2759
  148SAPE   H3R16302   5.191   5.980   7.123 -0.4006 -0.4620  1.8601
  148SAPE   H3S16303   5.223   6.154   7.110  2.0365  0.2510 -1.5165
  148SAPE   C2416304   5.326   6.048   7.272  0.1874 -0.3775  0.5403
  148SAPE   H4R16305   5.235   6.051   7.336 -0.6010 -2.3743 -0.3943
  148SAPE   H4S16306   5.401   6.128   7.290  1.3940 -0.5870 -2.9348
  148SAPE   C2516307   5.383   5.913   7.307 -0.4610 -0.4073 -0.3467
  148SAPE   H5R16308   5.459   5.869   7.240 -0.0855 -1.8524  0.9753
  148SAPE   C2616309   5.370   5.844   7.423 -0.1407 -0.5044 -0.3968
  148SAPE   H6R16310   5.434   5.757   7.443  0.4500  0.6832  3.8251
  148SAPE   C2716311   5.292   5.898   7.541 -0.2616 -0.5504 -0.9547
  148SAPE   H7R16312   5.268   5.817   7.613  0.3226 -0.2045 -0.3598
  148SAPE   H7S16313   5.195   5.943   7.511 -0.5049  1.4273  2.3195
  148SAPE   C2816314   5.358   6.015   7.614  0.4015  1.0780  0.0484
  148SAPE   H8R16315   5.422   6.083   7.556  0.3682 -0.0395 -1.3385
  148SAPE   C2916316   5.345   6.047   7.743 -0.6312  0.2258 -0.4840
  148SAPE   H9R16317   5.395   6.137   7.781 -0.7058 -0.5122  1.5360
  148SAPE  C21016318   5.263   5.982   7.858 -0.0609  0.3868 -0.4787
  148SAPE  H10R16319   5.180   5.915   7.827  1.7488 -2.1291 -0.1787
  148SAPE  H10S16320   5.218   6.063   7.920 -2.3577 -0.4343 -0.9503
  148SAPE  C21116321   5.341   5.906   7.960 -0.1667  0.8254 -0.3029
  148SAPE  H11R16322   5.446   5.936   7.972  0.5645 -1.3683 -0.8596
  148SAPE  C21216323   5.303   5.799   8.037 -0.1250  0.0543  0.0601
  148SAPE  H12R16324   5.382   5.759   8.102 -0.3893 -0.1698  0.2474
  148SAPE  C21316325   5.169   5.728   8.039 -0.3453 -0.3793  0.6694
  148SAPE  H13R16326   5.177   5.631   8.093  0.7205 -1.0718 -0.6718
  148SAPE  H13S16327   5.137   5.712   7.934  2.4144  0.5234 -0.4053
  148SAPE  C21416328   5.072   5.813   8.118 -0.6997  0.1429  0.5224
  148SAPE  H14R16329   5.109   5.916   8.126 -0.4506 -0.0058  1.3730
  148SAPE  C21516330   4.959   5.768   8.179  0.1706 -0.1128 -0.0003
  148SAPE  H15R16331   4.908   5.852   8.229  3.7226  1.1010  1.9542
  148SAPE  C21616332   4.889   5.637   8.171  0.1752 -0.6978  0.5636
  148SAPE  H16R16333   4.966   5.567   8.211 -1.3205 -1.0822  2.9271
  148SAPE  H16S16334   4.867   5.605   8.067 -0.3747 -0.7349  0.6895
  148SAPE  C21716335   4.753   5.626   8.245  0.0971  0.1525  1.0715
  148SAPE  H17R16336   4.717   5.521   8.255 -0.8615  0.2161 -1.1691
  148SAPE  H17S16337   4.675   5.681   8.187  0.2018  0.2281  1.0016
  148SAPE  C21816338   4.746   5.696   8.383  0.4903  0.0084  0.4568
  148SAPE  H18R16339   4.770   5.803   8.369  1.3497 -0.0905  1.0813
  148SAPE  H18S16340   4.822   5.650   8.449  2.4552  1.8338 -0.4036
  148SAPE  C21916341   4.609   5.695   8.438 -0.1273  0.1318  0.0690
  148SAPE  H19R16342   4.528   5.728   8.369 -0.9120  1.3854  1.5300
  148SAPE  H19S16343   4.603   5.771   8.518 -2.5280 -0.6416  0.7322
  148SAPE  C22016344   4.566   5.563   8.514  0.6573  0.2600  0.5136
  148SAPE  H20R16345   4.458   5.572   8.541  0.1170 -0.4742 -1.2093
  148SAPE  H20S16346   4.627   5.550   8.606  2.0782 -1.3135 -0.6066
  148SAPE  H20T16347   4.591   5.479   8.446  2.3848  1.1754 -0.0409
  148SAPE   C3316348   5.422   5.543   7.080 -0.1000  0.0028  0.7856
  148SAPE   H3X16349   5.429   5.641   7.132 -2.2460  0.3555  0.5215
  148SAPE   H3Y16350   5.528   5.511   7.086  0.4569  1.3194 -0.8540
  148SAPE   C3416351   5.317   5.460   7.152  0.2832  0.3856 -0.2369
  148SAPE   H4X16352   5.322   5.353   7.125  0.0751  0.8558 -2.3504
  148SAPE   H4Y16353   5.218   5.502   7.126  1.3741  1.7040 -2.6632
  148SAPE   C3516354   5.337   5.472   7.306  0.4579  0.3426 -0.0738
  148SAPE   H5X16355   5.240   5.453   7.357 -0.0820  2.9508 -0.0142
  148SAPE   H5Y16356   5.354   5.578   7.334 -0.6040  0.1207  1.5514
  148SAPE   C3616357   5.449   5.378   7.351  0.0615  0.3200  0.8310
  148SAPE   H6X16358   5.548   5.397   7.303  0.2801 -0.7528  0.8300
  148SAPE   H6Y16359   5.420   5.274   7.324 -2.2366  1.1733 -0.2188
  148SAPE   C3716360   5.450   5.354   7.505  0.3442  0.4343  0.3825
  148SAPE   H7X16361   5.517   5.269   7.529  0.2023  0.0829 -0.4393
  148SAPE   H7Y16362   5.346   5.319   7.520  0.2709 -0.6026 -2.1400
  148SAPE   C3816363   5.492   5.478   7.585  0.2380 -0.7987 -0.0578
  148SAPE   H8X16364   5.433   5.569   7.558  1.2501 -0.8255 -2.5614
  148SAPE   H8Y16365   5.592   5.517   7.556 -1.2663  3.3939 -0.3768
  148SAPE   C3916366   5.473   5.462   7.738 -0.1730 -0.1996  0.4870
  148SAPE   H9X16367   5.520   5.366   7.766  1.5767  0.8817  1.4589
  148SAPE   H9Y16368   5.366   5.460   7.769  0.6305  1.4301  3.8698
  148SAPE  C31016369   5.543   5.573   7.814 -0.8598 -0.1056 -0.3803
  148SAPE  H10X16370   5.503   5.673   7.786 -0.3652  0.2411  0.1315
  148SAPE  H10Y16371   5.650   5.571   7.784 -0.9784 -2.9143 -0.8949
  148SAPE  C31116372   5.530   5.547   7.963  0.5246  0.0448 -0.8061
  148SAPE  H11X16373   5.559   5.441   7.977  1.4475  0.4018  0.0813
  148SAPE  H11Y16374   5.436   5.567   8.018  1.9437 -1.4705  2.3986
  148SAPE  C31216375   5.641   5.620   8.044  0.2385  0.3371 -0.1385
  148SAPE  H12X16376   5.638   5.728   8.017  0.4876  0.1164 -1.0853
  148SAPE  H12Y16377   5.741   5.591   8.003  0.2470  0.4795 -0.2191
  148SAPE  C31316378   5.626   5.580   8.189 -0.3324 -0.1981  0.0747
  148SAPE  H13X16379   5.597   5.474   8.202  0.4867 -0.5901 -1.1608
  148SAPE  H13Y16380   5.548   5.650   8.226 -0.3869 -0.4182  0.3846
  148SAPE  C31416381   5.742   5.618   8.285  0.2614 -0.1200 -0.6251
  148SAPE  H14X16382   5.835   5.578   8.239  0.1664  1.0001 -1.8546
  148SAPE  H14Y16383   5.723   5.579   8.388  0.6371 -1.0634 -0.9095
  148SAPE  C31516384   5.767   5.773   8.281 -0.2324 -0.0245  0.3326
  148SAPE  H15X16385   5.674   5.832   8.267  0.1210 -0.0530 -3.0500
  148SAPE  H15Y16386   5.810   5.782   8.179  1.5691 -1.2701  0.9251
  148SAPE  C31616387   5.876   5.843   8.371 -0.4406  0.3991  0.5724
  148SAPE  H16X16388   5.928   5.918   8.308 -0.2864  2.2171  2.7608
  148SAPE  H16Y16389   5.947   5.770   8.417  1.2743  2.0049  0.5695
  148SAPE  C31716390   5.815   5.917   8.489 -0.3495 -0.4177  0.6147
  148SAPE  H17X16391   5.754   5.845   8.547  1.2590 -0.8250  1.8577
  148SAPE  H17Y16392   5.761   6.009   8.460 -1.4268 -1.5206 -1.0900
  148SAPE  C31816393   5.925   5.970   8.590  0.4571  0.3645  0.4738
  148SAPE  H18X16394   5.877   6.055   8.644 -0.6745  2.0689 -2.9210
  148SAPE  H18Y16395   6.008   6.007   8.527 -1.3173  0.8219 -1.7283
  148SAPE  H18Z16396   5.963   5.899   8.667  0.4949  1.8803  1.9092
  149SAPE     N16397   5.660   0.207   6.522  0.3688 -0.4839 -0.1425
  149SAPE   HN116398   5.568   0.170   6.551 -0.2016  0.6817 -0.4031
  149SAPE   HN216399   5.738   0.154   6.566  1.4436 -1.2166 -2.7366
  149SAPE   HN316400   5.652   0.304   6.560  2.3031 -0.6514  0.8268
  149SAPE   C1216401   5.681   0.219   6.374  0.2189 -0.1940 -0.8630
  149SAPE  H12A16402   5.597   0.283   6.338  0.0968  0.4607  0.5000
  149SAPE  H12B16403   5.680   0.119   6.327 -0.3125 -1.8819  2.4207
  149SAPE   C1116404   5.822   0.298   6.352  0.1151 -0.6261 -0.7063
  149SAPE  H11A16405   5.854   0.280   6.247 -0.7573  2.8272 -1.7166
  149SAPE  H11B16406   5.901   0.247   6.411 -1.1723 -0.2730  1.4204
  149SAPE     P16407   5.926   0.532   6.340 -0.5265 -0.1618  0.2076
  149SAPE   O1316408   5.991   0.494   6.212  0.4641 -0.0023 -0.4215
  149SAPE   O1416409   5.892   0.676   6.352  0.1638  0.0581  0.6257
  149SAPE   O1216410   5.799   0.442   6.369  0.2021  0.6156  0.5939
  149SAPE   O1116411   6.025   0.498   6.459  0.0479  0.0641  0.1570
  149SAPE    C116412   6.064   0.589   6.566 -0.1684  0.4636 -0.2264
  149SAPE    HA16413   6.169   0.570   6.599 -0.3028 -1.5796 -0.7950
  149SAPE    HB16414   6.066   0.691   6.524  0.6769  0.4978 -0.1333
  149SAPE    C216415   5.982   0.551   6.693 -0.3670 -0.0648 -0.9409
  149SAPE    HS16416   5.874   0.566   6.674 -0.5499  1.6741  1.1730
  149SAPE   O2116417   6.027   0.622   6.806 -0.4840 -0.1865  0.1140
  149SAPE   C2116418   5.985   0.743   6.815  0.5772  0.5420 -0.2147
  149SAPE   O2216419   5.903   0.794   6.737  0.8071  0.2974  0.0155
  149SAPE   C2216420   6.056   0.821   6.923  0.2335 -0.2277  0.2484
  149SAPE   H2R16421   6.097   0.750   6.997  0.4844 -0.0879  0.2441
  149SAPE   H2S16422   6.147   0.865   6.877 -0.4218  2.7414  1.4991
  149SAPE    C316423   6.019   0.405   6.719  0.0270 -0.1380  0.4472
  149SAPE    HX16424   6.129   0.393   6.719  0.0145 -0.5551 -1.0397
  149SAPE    HY16425   5.989   0.348   6.628  0.1374 -1.9762  1.5070
  149SAPE   O3116426   5.975   0.359   6.846 -0.0934  0.0284  0.0400
  149SAPE   C3116427   5.854   0.313   6.843  0.3511  0.1738 -0.0364
  149SAPE   O3216428   5.776   0.310   6.749  0.1532  0.0663 -0.2215
  149SAPE   C3216429   5.817   0.268   6.983 -0.8684 -0.2347 -0.2688
  149SAPE   H2X16430   5.915   0.260   7.035 -1.5571  2.9126  1.8461
  149SAPE   H2Y16431   5.773   0.167   6.979  1.6041 -1.5145  1.8291
  149SAPE   C2316432   5.967   0.934   6.981 -0.4396 -0.4667  0.1663
  149SAPE   H3R16433   5.894   0.881   7.046 -0.7419  1.9047  1.9128
  149SAPE   H3S16434   5.918   0.997   6.904  0.2757  0.9058  0.7987
  149SAPE   C2416435   6.036   1.029   7.086  0.0320 -0.3438  0.2978
  149SAPE   H4R16436   6.145   1.030   7.065  0.3062 -1.1416  1.5588
  149SAPE   H4S16437   6.026   0.982   7.186  0.3963 -1.8877 -0.3677
  149SAPE   C2516438   5.999   1.175   7.080  0.3184  0.2453  0.3437
  149SAPE   H5R16439   5.977   1.211   6.978  0.4168 -2.7251 -0.8386
  149SAPE   C2616440   5.997   1.265   7.178 -0.1563  0.6248  0.4771
  149SAPE   H6R16441   5.959   1.367   7.158  0.4804  1.0231  1.2552
  149SAPE   C2716442   6.039   1.236   7.320  0.1439 -0.0251  0.0659
  149SAPE   H7R16443   6.041   1.330   7.380  1.8318 -0.9628  1.5813
  149SAPE   H7S16444   6.138   1.189   7.334 -0.2028 -0.2138  2.1494
  149SAPE   C2816445   5.933   1.149   7.386  0.4665  0.0820 -0.0399
  149SAPE   H8R16446   5.874   1.085   7.319 -0.9619  0.6715  0.6235
  149SAPE   C2916447   5.914   1.142   7.522  0.0501 -0.2621  0.0907
  149SAPE   H9R16448   5.835   1.080   7.566 -2.6282  3.6035  1.2662
  149SAPE  C21016449   5.992   1.226   7.623 -0.6813  0.1617 -0.2095
  149SAPE  H10R16450   5.975   1.336   7.623 -1.5680  0.0410  1.0842
  149SAPE  H10S16451   6.099   1.218   7.593  0.0259  1.1092  1.8820
  149SAPE  C21116452   5.985   1.185   7.761  0.3930  0.0639 -1.1889
  149SAPE  H11R16453   5.880   1.175   7.792  0.8418 -1.9083 -0.1437
  149SAPE  C21216454   6.077   1.146   7.852  0.4784  0.2402  0.2038
  149SAPE  H12R16455   6.031   1.099   7.940  1.4746  0.5889  0.9221
  149SAPE  C21316456   6.224   1.133   7.832 -0.1613 -0.2979  0.4624
  149SAPE  H13R16457   6.255   1.239   7.821 -0.6808 -0.0586  1.1351
  149SAPE  H13S16458   6.256   1.074   7.744  0.4316 -0.4545  0.7777
  149SAPE  C21416459   6.290   1.073   7.955  0.0707  0.1467  0.1791
  149SAPE  H14R16460   6.233   1.089   8.048 -0.6003  1.5897 -0.4436
  149SAPE  C21516461   6.400   0.996   7.958 -0.7147 -0.0370 -0.1088
  149SAPE  H15R16462   6.433   0.960   8.057  0.4493  1.5501  0.1112
  149SAPE  C21616463   6.479   0.948   7.836  0.3793 -0.5157  1.0071
  149SAPE  H16R16464   6.546   1.024   7.789  1.9804 -2.4177  0.0303
  149SAPE  H16S16465   6.410   0.918   7.754  1.8896 -1.5843  0.0758
  149SAPE  C21716466   6.574   0.824   7.848 -1.1065 -0.1632 -0.1944
  149SAPE  H17R16467   6.597   0.768   7.755  1.9539  0.3588  0.1366
  149SAPE  H17S16468   6.521   0.757   7.918 -0.4509 -2.1504 -1.5369
  149SAPE  C21816469   6.706   0.863   7.919  0.5175  0.3634 -0.0182
  149SAPE  H18R16470   6.749   0.781   7.981 -1.1253 -0.8945 -0.4949
  149SAPE  H18S16471   6.675   0.934   7.999 -0.6291  1.2467 -1.2038
  149SAPE  C21916472   6.817   0.924   7.833  0.0830  0.1655 -0.0083
  149SAPE  H19R16473   6.915   0.951   7.878  1.1817  1.1089 -2.7175
  149SAPE  H19S16474   6.785   1.022   7.790  0.5822  1.2372  1.9446
  149SAPE  C22016475   6.855   0.841   7.717 -0.1845  0.2326  0.7732
  149SAPE  H20R16476   6.934   0.768   7.742  0.2217  0.2576 -0.3972
  149SAPE  H20S16477   6.895   0.903   7.634 -0.0106 -0.1772  0.5519
  149SAPE  H20T16478   6.771   0.790   7.665  0.2814  0.3898 -0.1494
  149SAPE   C3316479   5.721   0.360   7.058 -0.2844 -0.2949  0.1332
  149SAPE   H3X16480   5.642   0.288   7.088  0.4817 -1.6973 -1.0841
  149SAPE   H3Y16481   5.675   0.424   6.980 -0.1807 -0.5816 -0.1666
  149SAPE   C3416482   5.780   0.438   7.175  0.0809  0.7169 -0.4611
  149SAPE   H4X16483   5.877   0.491   7.163  0.4851  0.4529  1.3094
  149SAPE   H4Y16484   5.796   0.364   7.256 -3.1403  1.7952  1.3386
  149SAPE   C3516485   5.663   0.523   7.236 -0.3306 -0.1797  0.5833
  149SAPE   H5X16486   5.589   0.456   7.285  2.5631 -2.5590  2.0346
  149SAPE   H5Y16487   5.622   0.587   7.155  1.7244  0.1465 -0.2429
  149SAPE   C3616488   5.730   0.614   7.339 -0.1147  0.6029 -0.4023
  149SAPE   H6X16489   5.805   0.678   7.287  1.4497  0.0205  1.0242
  149SAPE   H6Y16490   5.793   0.553   7.407  0.6967  0.5418 -1.1875
  149SAPE   C3716491   5.637   0.696   7.428 -0.2431  0.6777 -0.2782
  149SAPE   H7X16492   5.568   0.757   7.366 -1.1849  2.9214  2.7461
  149SAPE   H7Y16493   5.700   0.771   7.481  0.9896  1.1854 -2.3752
  149SAPE   C3816494   5.558   0.603   7.521  0.7379  0.1709 -0.0769
  149SAPE   H8X16495   5.546   0.504   7.472  2.6793  0.0559 -0.4186
  149SAPE   H8Y16496   5.456   0.644   7.535  0.4790 -1.2638  3.0277
  149SAPE   C3916497   5.620   0.584   7.660 -0.2345  0.3587  0.6556
  149SAPE   H9X16498   5.726   0.572   7.631 -0.6477 -0.0174 -0.7778
  149SAPE   H9Y16499   5.574   0.500   7.716  0.7343 -0.8801 -0.3596
  149SAPE  C31016500   5.629   0.704   7.751 -0.1688 -0.1153 -0.2250
  149SAPE  H10X16501   5.529   0.725   7.796  1.4499  0.8054  3.2866
  149SAPE  H10Y16502   5.665   0.786   7.686  0.3600  0.0525  0.2771
  149SAPE  C31116503   5.726   0.685   7.874  0.2610  0.0297  0.8385
  149SAPE  H11X16504   5.826   0.641   7.856 -1.0461 -2.8607  0.0465
  149SAPE  H11Y16505   5.676   0.611   7.940 -0.6581  0.4354  0.6202
  149SAPE  C31216506   5.733   0.810   7.949 -0.2293 -0.9329 -0.3530
  149SAPE  H12X16507   5.633   0.854   7.969 -0.6664 -2.0044 -0.1156
  149SAPE  H12Y16508   5.792   0.883   7.889 -1.3130 -0.3778 -0.7616
  149SAPE  C31316509   5.808   0.791   8.084 -0.1564 -0.3008 -0.4682
  149SAPE  H13X16510   5.906   0.748   8.056  0.7469  1.0477  0.4855
  149SAPE  H13Y16511   5.749   0.719   8.145 -2.1578  0.7658 -1.0359
  149SAPE  C31416512   5.812   0.926   8.160  0.1095 -0.1066 -0.8274
  149SAPE  H14X16513   5.706   0.930   8.194  0.8909  0.1913  1.7697
  149SAPE  H14Y16514   5.835   1.016   8.100  1.2162  1.1094  1.3345
  149SAPE  C31516515   5.884   0.926   8.291 -0.2150  0.3207  0.1555
  149SAPE  H15X16516   5.995   0.924   8.296 -0.2869 -0.4799  1.9774
  149SAPE  H15Y16517   5.857   0.837   8.352  0.7165 -0.3050 -0.3164
  149SAPE  C31616518   5.836   1.052   8.374 -0.0434 -0.2469 -0.2419
  149SAPE  H16X16519   5.726   1.068   8.377 -0.0532 -0.4882  1.1924
  149SAPE  H16Y16520   5.883   1.142   8.328 -0.4141  1.2528  2.1558
  149SAPE  C31716521   5.894   1.051   8.515 -0.4319 -0.9083 -0.1797
  149SAPE  H17X16522   6.003   1.049   8.497 -0.6631  0.9339 -2.0681
  149SAPE  H17Y16523   5.859   0.960   8.569 -2.2059 -0.2818 -0.2128
  149SAPE  C31816524   5.871   1.181   8.591  0.0768  0.4795  0.0543
  149SAPE  H18X16525   5.960   1.197   8.655  0.5295  0.0974 -0.4728
  149SAPE  H18Y16526   5.773   1.177   8.644 -0.4630  0.0582 -0.9513
  149SAPE  H18Z16527   5.859   1.270   8.525 -0.3899 -0.3413 -1.0044
  150SAPE     N16528   2.581   1.271   6.109 -0.0420 -0.3088 -0.6082
  150SAPE   HN116529   2.541   1.342   6.045 -0.9259 -0.7110 -0.5185
  150SAPE   HN216530   2.510   1.201   6.140  0.2299 -1.4269 -2.3668
  150SAPE   HN316531   2.618   1.320   6.192 -1.9732  0.3040 -0.0517
  150SAPE   C1216532   2.690   1.206   6.035 -0.4285 -0.2422  0.3313
  150SAPE  H12A16533   2.748   1.287   5.986 -0.4044 -0.2264  0.3866
  150SAPE  H12B16534   2.638   1.155   5.950 -0.7400  0.5767  0.0203
  150SAPE   C1116535   2.775   1.110   6.125 -0.1180  0.5562 -0.4511
  150SAPE  H11A16536   2.875   1.108   6.076 -0.2007 -2.6343 -0.6642
  150SAPE  H11B16537   2.735   1.007   6.129  0.5387  0.1465 -2.8679
  150SAPE     P16538   2.931   1.185   6.323  0.2501  0.3025  0.6842
  150SAPE   O1316539   2.987   1.061   6.369  0.1063  0.7458  0.1384
  150SAPE   O1416540   3.010   1.258   6.224 -0.2538 -0.3686  0.2872
  150SAPE   O1216541   2.790   1.163   6.260 -0.0260 -0.1405 -0.3994
  150SAPE   O1116542   2.903   1.277   6.441  0.4628 -0.5981 -0.7826
  150SAPE    C116543   2.811   1.252   6.549  0.4651 -0.2340 -0.1847
  150SAPE    HA16544   2.729   1.182   6.521 -1.9122  1.9939  0.8072
  150SAPE    HB16545   2.867   1.213   6.637  0.1916 -2.7116 -1.0280
  150SAPE    C216546   2.729   1.379   6.592 -0.7103 -0.9778 -0.3519
  150SAPE    HS16547   2.721   1.442   6.501  0.4988  1.3156  1.0633
  150SAPE   O2116548   2.800   1.436   6.707  0.1575 -0.1890 -0.1140
  150SAPE   C2116549   2.742   1.544   6.750 -0.6198 -0.4161  0.1296
  150SAPE   O2216550   2.672   1.621   6.695 -0.0288  0.3407  0.0951
  150SAPE   C2216551   2.783   1.569   6.898 -0.6111  0.1235 -0.2502
  150SAPE   H2R16552   2.699   1.628   6.941 -0.4068  1.5300 -1.6573
  150SAPE   H2S16553   2.791   1.469   6.944 -0.0211  0.7419  1.0438
  150SAPE    C316554   2.582   1.343   6.644  0.5177 -0.0394  0.0800
  150SAPE    HX16555   2.526   1.291   6.564 -0.4835  0.6563  0.3146
  150SAPE    HY16556   2.523   1.435   6.663 -0.9299 -0.2745 -2.7738
  150SAPE   O3116557   2.589   1.266   6.769 -0.0642  0.0401 -0.1450
  150SAPE   C3116558   2.470   1.208   6.801 -0.3524 -0.3605  0.2639
  150SAPE   O3216559   2.373   1.197   6.732 -0.1197 -0.4421  0.0169
  150SAPE   C3216560   2.493   1.134   6.927 -0.1893  0.3209 -0.3485
  150SAPE   H2X16561   2.587   1.076   6.915  0.2875  1.0961 -0.4452
  150SAPE   H2Y16562   2.418   1.052   6.923  0.0606  0.1136 -0.9143
  150SAPE   C2316563   2.913   1.663   6.901 -0.0581 -0.1698 -1.3930
  150SAPE   H3R16564   2.882   1.760   6.855 -1.1955 -0.1167 -0.5649
  150SAPE   H3S16565   2.995   1.615   6.844  0.3808 -1.0879 -0.0332
  150SAPE   C2416566   2.957   1.690   7.045  0.0643 -0.1217 -0.9180
  150SAPE   H4R16567   2.917   1.788   7.078 -0.1720 -0.6964  0.5776
  150SAPE   H4S16568   3.065   1.717   7.042 -0.1445  0.6770 -1.7977
  150SAPE   C2516569   2.943   1.568   7.137  0.0492  0.8004  0.0203
  150SAPE   H5R16570   2.952   1.469   7.089 -0.7674 -0.3230  2.0873
  150SAPE   C2616571   2.930   1.583   7.267  0.6830  0.7015 -0.3634
  150SAPE   H6R16572   2.921   1.482   7.309 -2.4127  0.5168 -1.2519
  150SAPE   C2716573   2.898   1.710   7.346  0.0062 -0.3491  0.1790
  150SAPE   H7R16574   2.861   1.789   7.278  0.4684 -1.9011 -1.9702
  150SAPE   H7S16575   2.986   1.750   7.403 -1.3237 -0.6315  2.5831
  150SAPE   C2816576   2.783   1.681   7.444 -0.3934 -0.0414  0.0145
  150SAPE   H8R16577   2.705   1.614   7.407 -0.6922  1.1640 -1.6558
  150SAPE   C2916578   2.764   1.733   7.570  0.1814  0.1699  0.2450
  150SAPE   H9R16579   2.664   1.716   7.613 -0.1928  0.8995 -0.3204
  150SAPE  C21016580   2.861   1.821   7.654 -0.0892 -0.3130  0.2843
  150SAPE  H10R16581   2.802   1.896   7.712  0.7244  0.1477  0.5295
  150SAPE  H10S16582   2.930   1.876   7.587 -2.0304  0.5267 -1.1034
  150SAPE  C21116583   2.934   1.738   7.754 -1.3074 -0.9094  0.4856
  150SAPE  H11R16584   3.019   1.687   7.707  0.3091  0.9245  1.2578
  150SAPE  C21216585   2.918   1.727   7.892 -0.5191  0.0186 -0.2326
  150SAPE  H12R16586   2.992   1.670   7.950 -0.0736 -1.3595 -2.0513
  150SAPE  C21316587   2.803   1.789   7.970 -0.0661 -0.1535 -0.3077
  150SAPE  H13R16588   2.740   1.856   7.907  1.4432  2.1780  0.4894
  150SAPE  H13S16589   2.860   1.860   8.034  2.5336 -0.9677 -1.5865
  150SAPE  C21416590   2.719   1.703   8.054  0.2985  0.6766 -0.3688
  150SAPE  H14R16591   2.702   1.605   8.006 -0.5609  0.7038 -0.1457
  150SAPE  C21516592   2.660   1.720   8.173 -0.5953 -0.1173  0.2093
  150SAPE  H15R16593   2.592   1.641   8.209  1.3822 -2.4395 -0.8529
  150SAPE  C21616594   2.667   1.849   8.251 -0.2883 -1.1328  0.1256
  150SAPE  H16R16595   2.564   1.879   8.283 -0.3066 -0.0797 -0.8613
  150SAPE  H16S16596   2.719   1.933   8.201  0.2467  0.7173  3.4788
  150SAPE  C21716597   2.750   1.818   8.373 -0.3206 -0.0936  0.9260
  150SAPE  H17R16598   2.748   1.912   8.433 -1.3221 -0.5425  1.6360
  150SAPE  H17S16599   2.857   1.801   8.350 -0.0256  0.3130  1.9400
  150SAPE  C21816600   2.708   1.704   8.467 -0.2950 -0.2261 -0.2238
  150SAPE  H18R16601   2.787   1.701   8.546 -0.6534  0.7164  0.1823
  150SAPE  H18S16602   2.720   1.603   8.422  0.1014 -0.5894  0.6678
  150SAPE  C21916603   2.567   1.710   8.528 -0.2917 -0.6228  0.2086
  150SAPE  H19R16604   2.496   1.716   8.443  0.8131  1.1263 -0.6601
  150SAPE  H19S16605   2.551   1.808   8.577 -2.5359 -0.0131 -1.5879
  150SAPE  C22016606   2.529   1.598   8.625 -0.1605  0.0844  0.2009
  150SAPE  H20R16607   2.508   1.499   8.580 -1.6844 -0.0549  1.1326
  150SAPE  H20S16608   2.449   1.636   8.692 -1.8330 -0.7476 -1.2321
  150SAPE  H20T16609   2.611   1.572   8.695  0.2882 -2.1041 -1.0581
  150SAPE   C3316610   2.487   1.212   7.063 -0.0736  0.1095  0.3749
  150SAPE   H3X16611   2.516   1.138   7.141 -1.7644  1.2116  2.1565
  150SAPE   H3Y16612   2.377   1.228   7.072  0.1326  0.8049  2.0123
  150SAPE   C3416613   2.562   1.339   7.079 -0.4376 -0.0351  0.0624
  150SAPE   H4X16614   2.508   1.433   7.054 -0.4361  0.8370  2.9915
  150SAPE   H4Y16615   2.656   1.341   7.020 -0.8002  2.2612 -0.5366
  150SAPE   C3516616   2.599   1.348   7.235 -1.0171 -0.4925  0.6298
  150SAPE   H5X16617   2.661   1.439   7.246  0.1336 -1.3012  1.0159
  150SAPE   H5Y16618   2.667   1.264   7.262  0.1701  0.7457  1.6154
  150SAPE   C3616619   2.475   1.356   7.324  0.1385  0.2490  0.4388
  150SAPE   H6X16620   2.412   1.264   7.325  2.2499 -1.3039 -0.8804
  150SAPE   H6Y16621   2.420   1.444   7.284 -0.4227 -0.3167 -0.0685
  150SAPE   C3716622   2.512   1.376   7.470  0.4948 -0.0468 -0.1714
  150SAPE   H7X16623   2.601   1.442   7.481  2.0305 -1.8963 -0.9931
  150SAPE   H7Y16624   2.529   1.272   7.505  0.3932 -0.2773 -0.8074
  150SAPE   C3816625   2.397   1.438   7.549 -0.7597  0.3477 -0.3738
  150SAPE   H8X16626   2.299   1.387   7.536  0.1266 -1.3230 -0.8192
  150SAPE   H8Y16627   2.378   1.538   7.505  0.5256  0.6810 -0.2144
  150SAPE   C3916628   2.428   1.455   7.692  0.3959  0.0901 -0.0090
  150SAPE   H9X16629   2.519   1.519   7.694  1.8877 -1.7843 -2.2092
  150SAPE   H9Y16630   2.457   1.360   7.742  0.8091  0.0753 -0.2710
  150SAPE  C31016631   2.317   1.514   7.780 -0.3129 -0.5614  0.0296
  150SAPE  H10X16632   2.235   1.439   7.774 -2.2353  1.3333  1.2549
  150SAPE  H10Y16633   2.279   1.610   7.740 -0.7261 -1.1006 -0.9098
  150SAPE  C31116634   2.361   1.513   7.933 -0.3650  0.3370  0.2780
  150SAPE  H11X16635   2.456   1.568   7.946 -0.8941  1.1059  0.9887
  150SAPE  H11Y16636   2.390   1.411   7.964  0.8997  0.0320 -1.7426
  150SAPE  C31216637   2.256   1.566   8.026 -0.5512  0.2366  0.0587
  150SAPE  H12X16638   2.172   1.493   8.029  1.7110 -2.5078  0.6501
  150SAPE  H12Y16639   2.203   1.662   8.005 -2.5643 -0.7136  0.5728
  150SAPE  C31316640   2.312   1.584   8.167 -0.4527 -0.3739 -0.6859
  150SAPE  H13X16641   2.392   1.659   8.149 -0.2474 -0.6823 -1.0737
  150SAPE  H13Y16642   2.355   1.491   8.211 -0.3202 -0.2459 -0.5443
  150SAPE  C31416643   2.205   1.626   8.263 -0.0585 -0.4045 -0.0247
  150SAPE  H14X16644   2.252   1.621   8.363 -0.3057  1.9854  0.2643
  150SAPE  H14Y16645   2.115   1.561   8.267  0.2227 -0.9764 -1.8853
  150SAPE  C31516646   2.139   1.761   8.227  0.4729  0.2379  0.0673
  150SAPE  H15X16647   2.063   1.741   8.148 -0.1724  0.2820  0.6609
  150SAPE  H15Y16648   2.220   1.823   8.184  1.9890 -1.7762 -0.0579
  150SAPE  C31616649   2.076   1.820   8.357  0.3006 -0.0536  0.1881
  150SAPE  H16X16650   2.087   1.759   8.449 -0.6272 -0.4475  0.0404
  150SAPE  H16Y16651   1.969   1.845   8.342  0.1277  0.2936  1.7669
  150SAPE  C31716652   2.151   1.947   8.394 -0.0547  0.3339  0.8389
  150SAPE  H17X16653   2.107   2.002   8.480 -0.1083  1.5555  0.0549
  150SAPE  H17Y16654   2.154   2.012   8.305 -1.5632 -1.4682 -0.6205
  150SAPE  C31816655   2.303   1.927   8.439  0.3417 -0.2133  0.0178
  150SAPE  H18X16656   2.318   1.860   8.527  1.1968  0.1220  0.1277
  150SAPE  H18Y16657   2.340   2.025   8.475  0.1356 -0.6222  1.4188
  150SAPE  H18Z16658   2.370   1.893   8.357  3.3660  0.4519  2.0683
  151SAPE     N16659   0.173   0.331   6.038 -0.2458  0.1962  0.0339
  151SAPE   HN116660   0.272   0.339   6.069  0.5515  1.3883 -2.5415
  151SAPE   HN216661   0.171   0.386   5.950  0.8224  2.7162  1.4835
  151SAPE   HN316662   0.117   0.380   6.111  1.9993  1.3519  1.0942
  151SAPE   C1216663   0.151   0.183   6.033  0.1472 -0.0106  0.3659
  151SAPE  H12A16664   0.200   0.144   5.941  0.2125  0.7197  0.0860
  151SAPE  H12B16665   0.042   0.165   6.018  0.4666 -0.7614 -1.3637
  151SAPE   C1116666   0.197   0.105   6.164 -0.5065 -0.6626 -0.6087
  151SAPE  H11A16667   0.308   0.115   6.163 -0.5463  0.2538  0.9096
  151SAPE  H11B16668   0.166  -0.001   6.151  0.5533 -0.8927 -1.3559
  151SAPE     P16669   0.026   0.127   6.351  0.1269 -0.3840 -0.0908
  151SAPE   O1316670  -0.097   0.167   6.277  0.8129 -0.2694 -0.0137
  151SAPE   O1416671   0.053  -0.013   6.385 -0.5382 -0.0701 -0.3962
  151SAPE   O1216672   0.152   0.180   6.275  0.1299 -0.0801 -0.4690
  151SAPE   O1116673   0.031   0.216   6.479 -0.9084  0.0615 -0.0213
  151SAPE    C116674   0.101   0.342   6.468 -0.3365  0.1831  0.2886
  151SAPE    HA16675   0.208   0.317   6.487 -0.9031 -2.3694  0.4822
  151SAPE    HB16676   0.104   0.402   6.375 -0.0682  0.7752  0.6699
  151SAPE    C216677   0.051   0.436   6.584 -0.2516 -0.3205 -0.1836
  151SAPE    HS16678   0.138   0.506   6.592 -0.3790 -0.0360 -1.0965
  151SAPE   O2116679   0.018   0.372   6.709 -0.2916  0.0208  0.5188
  151SAPE   C2116680   0.129   0.305   6.754 -0.3233 -0.5944  0.6660
  151SAPE   O2216681   0.243   0.331   6.716  0.4096 -0.3896 -0.5130
  151SAPE   C2216682   0.092   0.195   6.849 -0.5555 -1.1287  0.5529
  151SAPE   H2R16683  -0.014   0.205   6.882 -0.3573 -0.1648  0.9086
  151SAPE   H2S16684   0.105   0.103   6.787 -0.4283 -1.5085  1.1282
  151SAPE    C316685  -0.079   0.509   6.548 -0.5863  0.4344  0.5732
  151SAPE    HX16686  -0.146   0.422   6.530 -1.6683  1.4347 -0.5077
  151SAPE    HY16687  -0.076   0.570   6.455 -2.0171 -0.0060  0.2193
  151SAPE   O3116688  -0.129   0.592   6.656  0.3228  0.0270 -0.1286
  151SAPE   C3116689  -0.237   0.663   6.616  0.0815  0.0380 -0.6168
  151SAPE   O3216690  -0.288   0.663   6.506  0.1249 -0.0204  0.4730
  151SAPE   C3216691  -0.278   0.759   6.729 -0.3053 -0.0967  0.2288
  151SAPE   H2X16692  -0.384   0.731   6.742 -0.7311  1.1913 -0.3125
  151SAPE   H2Y16693  -0.278   0.866   6.700  1.8942  0.0562  0.6329
  151SAPE   C2316694   0.197   0.177   6.951 -0.1026  0.7417  0.3486
  151SAPE   H3R16695   0.300   0.174   6.909  0.3488  1.7919  1.3413
  151SAPE   H3S16696   0.189   0.073   6.990  0.6659  0.6865  0.3753
  151SAPE   C2416697   0.190   0.270   7.072  0.5012  0.1835  0.2461
  151SAPE   H4R16698   0.216   0.369   7.030 -2.4771  0.1102 -2.0963
  151SAPE   H4S16699   0.253   0.227   7.153  0.7607 -2.3026 -1.1595
  151SAPE   C2516700   0.049   0.286   7.125  0.1890  0.1910  0.5593
  151SAPE   H5R16701  -0.026   0.329   7.057  1.9886  0.9213 -1.0441
  151SAPE   C2616702   0.010   0.284   7.253 -0.4424 -0.5753 -0.0049
  151SAPE   H6R16703  -0.096   0.284   7.282 -0.3489 -1.2368  0.3732
  151SAPE   C2716704   0.091   0.260   7.384  0.3224  0.6585 -0.4571
  151SAPE   H7R16705   0.194   0.229   7.357  0.0230 -0.4243 -0.3998
  151SAPE   H7S16706   0.042   0.169   7.424  1.1067 -0.8001 -2.6265
  151SAPE   C2816707   0.096   0.390   7.469 -0.0072  0.2054 -0.3931
  151SAPE   H8R16708   0.184   0.452   7.448 -0.1993  0.3483 -0.7814
  151SAPE   C2916709   0.008   0.416   7.571  0.3989 -0.0138  0.3890
  151SAPE   H9R16710   0.026   0.508   7.628  3.3193 -0.2007 -0.0761
  151SAPE  C21016711  -0.115   0.321   7.604 -0.7442 -0.3261  0.1580
  151SAPE  H10R16712  -0.125   0.300   7.712 -1.6029  0.6878  0.2940
  151SAPE  H10S16713  -0.095   0.219   7.567  1.4676  0.8442 -2.2393
  151SAPE  C21116714  -0.242   0.384   7.558 -0.0298  0.2432 -0.8505
  151SAPE  H11R16715  -0.247   0.492   7.538  1.3672  0.6757  0.9198
  151SAPE  C21216716  -0.353   0.308   7.555  0.3916  0.3272 -0.1477
  151SAPE  H12R16717  -0.444   0.355   7.518  0.7872  2.0873  1.0095
  151SAPE  C21316718  -0.359   0.164   7.582 -0.2004  0.0829  0.2778
  151SAPE  H13R16719  -0.266   0.105   7.586 -0.3653 -0.1791  0.2721
  151SAPE  H13S16720  -0.404   0.115   7.493 -0.8227  2.2915 -0.6854
  151SAPE  C21416721  -0.452   0.129   7.696  0.2716  0.3669  0.0622
  151SAPE  H14R16722  -0.556   0.161   7.679  0.6909  1.1179 -1.2291
  151SAPE  C21516723  -0.410   0.063   7.808 -0.0974 -0.0964  0.3591
  151SAPE  H15R16724  -0.486   0.044   7.885 -2.9085 -3.3991 -2.8474
  151SAPE  C21616725  -0.268   0.008   7.832  0.4701 -0.5289 -0.5080
  151SAPE  H16R16726  -0.223   0.072   7.911 -3.0568 -1.1597  2.2880
  151SAPE  H16S16727  -0.198   0.024   7.747  2.4359  0.0484  1.1364
  151SAPE  C21716728  -0.272  -0.132   7.872  0.2858  0.4587 -0.4784
  151SAPE  H17R16729  -0.314  -0.136   7.974 -0.9511  2.0975 -0.8834
  151SAPE  H17S16730  -0.169  -0.173   7.883 -0.1033 -1.5307 -3.2100
  151SAPE  C21816731  -0.331  -0.238   7.769  0.6326 -0.2552 -0.3624
  151SAPE  H18R16732  -0.281  -0.202   7.677  1.0298 -0.2100 -0.1276
  151SAPE  H18S16733  -0.440  -0.216   7.766  0.6147 -0.4472 -1.7947
  151SAPE  C21916734  -0.308  -0.389   7.803  0.5514  0.2598 -0.0950
  151SAPE  H19R16735  -0.338  -0.408   7.908 -2.2208 -1.5512 -1.0970
  151SAPE  H19S16736  -0.198  -0.394   7.816  0.8949  3.2249 -1.0280
  151SAPE  C22016737  -0.365  -0.492   7.702 -1.0973  0.4482 -0.0369
  151SAPE  H20R16738  -0.473  -0.466   7.689 -0.9382  0.7974 -0.7135
  151SAPE  H20S16739  -0.312  -0.487   7.605 -0.3716  0.9942  0.3800
  151SAPE  H20T16740  -0.353  -0.593   7.746 -0.9345  0.9675  1.1502
  151SAPE   C3316741  -0.196   0.750   6.866 -0.0268  0.5060 -0.0619
  151SAPE   H3X16742  -0.088   0.772   6.850  0.0941 -0.2846 -0.4010
  151SAPE   H3Y16743  -0.206   0.648   6.910  1.3496  0.7938  1.0177
  151SAPE   C3416744  -0.238   0.863   6.959  0.6919  0.0288  0.1230
  151SAPE   H4X16745  -0.346   0.883   6.968  0.5033 -1.4646  2.0241
  151SAPE   H4Y16746  -0.207   0.964   6.926  1.6325 -0.1230  0.4816
  151SAPE   C3516747  -0.198   0.832   7.106 -0.0124 -0.2645 -0.9122
  151SAPE   H5X16748  -0.096   0.789   7.104 -0.0535 -0.5034  0.6735
  151SAPE   H5Y16749  -0.260   0.747   7.142 -1.8057  1.2080 -0.4088
  151SAPE   C3616750  -0.190   0.956   7.198 -0.3183 -0.1624  0.8362
  151SAPE   H6X16751  -0.274   1.027   7.178  0.1207  0.0473 -0.3000
  151SAPE   H6Y16752  -0.100   1.013   7.166  0.1704 -0.5656  1.4864
  151SAPE   C3716753  -0.186   0.925   7.341 -0.4061  0.4088  0.1430
  151SAPE   H7X16754  -0.101   0.858   7.368 -0.9110 -0.8928 -1.3283
  151SAPE   H7Y16755  -0.274   0.873   7.383  0.3078 -0.1638  0.9492
  151SAPE   C3816756  -0.180   1.045   7.430  0.9430  0.1041  0.6524
  151SAPE   H8X16757  -0.102   1.119   7.403  0.5273  0.0732 -0.7134
  151SAPE   H8Y16758  -0.162   1.020   7.537 -2.4536 -0.4722  1.2298
  151SAPE   C3916759  -0.308   1.135   7.424  0.9542 -0.7002 -0.9094
  151SAPE   H9X16760  -0.398   1.075   7.448 -0.0668  1.4262  0.9234
  151SAPE   H9Y16761  -0.321   1.183   7.325 -0.4131  1.0644  0.0657
  151SAPE  C31016762  -0.306   1.249   7.527 -0.5370 -0.2821 -1.1039
  151SAPE  H10X16763  -0.223   1.318   7.498  0.5964 -1.9823 -2.0648
  151SAPE  H10Y16764  -0.281   1.201   7.624 -1.5925 -1.0640 -1.2040
  151SAPE  C31116765  -0.430   1.330   7.543 -0.0169 -0.2600 -0.0688
  151SAPE  H11X16766  -0.508   1.252   7.557 -0.7103 -0.2272 -3.0547
  151SAPE  H11Y16767  -0.448   1.375   7.444 -1.6156 -0.9345 -0.1142
  151SAPE  C31216768  -0.423   1.432   7.656  0.0651 -0.0956 -0.1762
  151SAPE  H12X16769  -0.350   1.511   7.628 -1.9069  1.4295 -1.1816
  151SAPE  H12Y16770  -0.381   1.376   7.742  0.3653 -1.0411 -0.9203
  151SAPE  C31316771  -0.554   1.496   7.697  0.4427 -0.4380 -0.0099
  151SAPE  H13X16772  -0.649   1.441   7.679 -0.2249  0.2484  1.2581
  151SAPE  H13Y16773  -0.566   1.592   7.640  1.6883  1.2547  2.4210
  151SAPE  C31416774  -0.556   1.543   7.840  0.1856 -0.1289 -0.0428
  151SAPE  H14X16775  -0.507   1.463   7.900  0.8508  0.2686 -0.0442
  151SAPE  H14Y16776  -0.660   1.557   7.876 -0.2434  0.5341 -1.4525
  151SAPE  C31516777  -0.464   1.662   7.859  0.0946 -0.6417  0.5268
  151SAPE  H15X16778  -0.485   1.746   7.789  1.6179 -0.3808  0.3498
  151SAPE  H15Y16779  -0.358   1.633   7.844  0.0225 -0.2166 -1.0006
  151SAPE  C31616780  -0.466   1.715   8.003  1.1281 -0.3624  0.5452
  151SAPE  H16X16781  -0.376   1.776   8.025  2.4821 -2.8728  2.5380
  151SAPE  H16Y16782  -0.464   1.626   8.070 -0.1800 -1.1534 -0.4151
  151SAPE  C31716783  -0.593   1.800   8.031  0.3957  0.0949 -0.0928
  151SAPE  H17X16784  -0.685   1.744   8.003 -0.4542  2.4870 -2.5844
  151SAPE  H17Y16785  -0.580   1.893   7.972  1.7341 -1.2787 -2.0661
  151SAPE  C31816786  -0.602   1.835   8.180  0.3224  0.4817  0.2186
  151SAPE  H18X16787  -0.691   1.898   8.203 -1.5535 -1.4709 -1.3301
  151SAPE  H18Y16788  -0.514   1.889   8.222  0.7459 -1.4915  2.0401
  151SAPE  H18Z16789  -0.609   1.744   8.243  3.5874  1.0394  1.5964
  152SAPE     N16790   2.198   1.904   5.954 -0.8764 -0.4465 -0.3192
  152SAPE   HN116791   2.124   1.977   5.943 -0.2297  0.2953  0.1766
  152SAPE   HN216792   2.161   1.816   5.913  0.0831 -1.0822  0.1767
  152SAPE   HN316793   2.205   1.892   6.057  2.4722  1.9388 -0.1124
  152SAPE   C1216794   2.332   1.937   5.899  0.9534 -0.4707  0.9236
  152SAPE  H12A16795   2.319   2.025   5.832 -0.3127 -1.4265 -0.1471
  152SAPE  H12B16796   2.363   1.848   5.841 -1.5966  0.5017 -2.2633
  152SAPE   C1116797   2.423   1.969   6.018  0.6102  0.0085  0.4810
  152SAPE  H11A16798   2.379   2.051   6.079  0.7491  2.6217 -2.6509
  152SAPE  H11B16799   2.511   2.010   5.964  0.2130  0.5534  0.2435
  152SAPE     P16800   2.601   1.820   6.144  0.0916  0.0742 -0.1252
  152SAPE   O1316801   2.594   1.698   6.229  0.0359 -0.1666  0.3054
  152SAPE   O1416802   2.690   1.832   6.030 -0.4596 -0.2097 -0.0007
  152SAPE   O1216803   2.456   1.852   6.092  0.3726  0.5534  0.0171
  152SAPE   O1116804   2.632   1.942   6.241 -0.4920 -0.3699  0.1256
  152SAPE    C116805   2.565   1.953   6.368 -0.2257  0.1100 -0.7658
  152SAPE    HA16806   2.496   2.040   6.375 -1.3586 -0.6253 -2.1610
  152SAPE    HB16807   2.504   1.863   6.388  0.9207 -0.5795 -0.2694
  152SAPE    C216808   2.670   1.950   6.480 -0.6697  0.4407 -0.0695
  152SAPE    HS16809   2.710   2.052   6.494 -0.5775  0.4507 -0.3978
  152SAPE   O2116810   2.767   1.851   6.441 -0.3791  0.8114 -0.3863
  152SAPE   C2116811   2.874   1.866   6.514  0.0756  0.3210 -0.7692
  152SAPE   O2216812   2.892   1.945   6.612  0.0708  0.2124 -0.2162
  152SAPE   C2216813   2.979   1.766   6.477 -0.2524 -0.2987 -0.5781
  152SAPE   H2R16814   2.929   1.675   6.516 -2.0014  1.4113  1.4171
  152SAPE   H2S16815   2.992   1.775   6.367  1.6039 -0.0927 -0.3761
  152SAPE    C316816   2.596   1.910   6.614  0.4832 -0.2054 -0.3040
  152SAPE    HX16817   2.676   1.915   6.691  1.3785 -0.9441 -1.1498
  152SAPE    HY16818   2.569   1.802   6.609  2.5556 -0.7953  0.0549
  152SAPE   O3116819   2.490   1.995   6.642 -0.2232 -0.1486 -0.7867
  152SAPE   C3116820   2.499   2.072   6.755  0.1079 -0.8763  0.5234
  152SAPE   O3216821   2.576   2.053   6.849 -0.2731 -0.8790  0.1854
  152SAPE   C3216822   2.386   2.175   6.735  0.7868 -0.5433 -0.0382
  152SAPE   H2X16823   2.287   2.123   6.731 -0.0511  0.9750  0.2367
  152SAPE   H2Y16824   2.413   2.231   6.643  2.7372 -0.3588  0.6125
  152SAPE   C2316825   3.119   1.780   6.539 -0.5891 -0.0810 -0.9064
  152SAPE   H3R16826   3.108   1.772   6.650 -2.0115 -3.5346 -1.1854
  152SAPE   H3S16827   3.165   1.875   6.504 -0.3020 -0.2115 -0.8853
  152SAPE   C2416828   3.212   1.666   6.494 -0.5797 -0.1234 -0.3227
  152SAPE   H4R16829   3.315   1.697   6.521 -0.9530  2.4482 -1.5211
  152SAPE   H4S16830   3.221   1.668   6.383 -1.1763 -2.4791 -0.4664
  152SAPE   C2516831   3.181   1.527   6.550  0.2007  0.0893 -0.3816
  152SAPE   H5R16832   3.112   1.461   6.494 -2.4986  0.6078  2.0557
  152SAPE   C2616833   3.228   1.490   6.668 -0.4037 -0.0852  0.5807
  152SAPE   H6R16834   3.216   1.384   6.694 -2.4790  0.2338  1.0480
  152SAPE   C2716835   3.306   1.570   6.768  0.3366 -0.1086 -0.4417
  152SAPE   H7R16836   3.256   1.547   6.865 -0.0941 -0.8451 -0.8303
  152SAPE   H7S16837   3.290   1.675   6.737  0.7310 -0.0127 -0.3266
  152SAPE   C2816838   3.453   1.551   6.771  0.0479  0.3636 -0.9277
  152SAPE   H8R16839   3.501   1.547   6.672 -0.0248  1.3064 -1.0092
  152SAPE   C2916840   3.527   1.556   6.882  0.7267  0.1174  0.3466
  152SAPE   H9R16841   3.635   1.570   6.869  0.9310 -1.0352  0.6728
  152SAPE  C21016842   3.497   1.581   7.028  0.1077 -0.3876 -0.0064
  152SAPE  H10R16843   3.589   1.560   7.085  1.1582 -1.6277 -2.0408
  152SAPE  H10S16844   3.442   1.492   7.066  0.9229 -1.0363 -0.3342
  152SAPE  C21116845   3.446   1.721   7.067 -0.4416 -0.0010 -0.3321
  152SAPE  H11R16846   3.402   1.779   6.985 -0.6814 -0.8430 -0.8127
  152SAPE  C21216847   3.443   1.786   7.183 -0.1398 -0.0922 -0.9114
  152SAPE  H12R16848   3.396   1.886   7.181 -0.1918 -0.0380  0.9097
  152SAPE  C21316849   3.487   1.746   7.319  0.2468  0.8693 -0.3921
  152SAPE  H13R16850   3.512   1.845   7.363  0.3838  1.0879 -0.9548
  152SAPE  H13S16851   3.579   1.686   7.302 -2.5104 -4.2303  0.7859
  152SAPE  C21416852   3.383   1.669   7.391 -0.2584  0.0955 -1.0176
  152SAPE  H14R16853   3.381   1.560   7.375  1.2641 -0.3755  1.4366
  152SAPE  C21516854   3.304   1.716   7.490  0.2930  0.1891  0.1000
  152SAPE  H15R16855   3.234   1.644   7.535  1.3198 -0.4618  0.6869
  152SAPE  C21616856   3.293   1.855   7.540 -0.6309 -0.9139  0.5095
  152SAPE  H16R16857   3.186   1.883   7.552 -0.3235  0.1088  1.0019
  152SAPE  H16S16858   3.332   1.930   7.467  0.5244 -1.2687  0.7495
  152SAPE  C21716859   3.357   1.868   7.679  0.7432  0.7792  0.3923
  152SAPE  H17R16860   3.389   1.971   7.703  2.4117  0.3199  0.2701
  152SAPE  H17S16861   3.452   1.810   7.673  1.1320  1.5407 -1.5107
  152SAPE  C21816862   3.272   1.815   7.791 -0.2964  0.5665 -0.2133
  152SAPE  H18R16863   3.251   1.707   7.798 -0.1263  0.5689  0.3682
  152SAPE  H18S16864   3.171   1.861   7.790 -0.1660  0.8809  0.3360
  152SAPE  C21916865   3.321   1.859   7.931  0.1574 -0.2625  0.5643
  152SAPE  H19R16866   3.308   1.969   7.937 -0.2924 -0.2205 -0.8859
  152SAPE  H19S16867   3.429   1.834   7.941  0.0188 -0.5470  1.5217
  152SAPE  C22016868   3.248   1.803   8.048  0.1319  0.4813 -0.1610
  152SAPE  H20R16869   3.290   1.837   8.144 -0.4290 -0.1464  0.3181
  152SAPE  H20S16870   3.247   1.692   8.048 -0.6210  0.4743  1.0684
  152SAPE  H20T16871   3.143   1.840   8.046  0.2784  0.8885 -1.2827
  152SAPE   C3316872   2.369   2.273   6.849 -0.4674 -0.8007  0.1303
  152SAPE   H3X16873   2.308   2.358   6.809  1.5781  1.1220  0.8929
  152SAPE   H3Y16874   2.468   2.313   6.881  0.1906 -1.6338 -0.8031
  152SAPE   C3416875   2.305   2.211   6.973 -0.3598 -0.2139  0.3026
  152SAPE   H4X16876   2.344   2.110   6.997  0.5490  0.3139  1.1198
  152SAPE   H4Y16877   2.198   2.189   6.958 -0.4727  0.5874 -0.1290
  152SAPE   C3516878   2.352   2.294   7.094 -0.4868  0.2861 -0.1489
  152SAPE   H5X16879   2.324   2.402   7.091 -0.3887  0.3122 -0.1334
  152SAPE   H5Y16880   2.463   2.296   7.104 -0.1267  1.4680 -3.3305
  152SAPE   C3616881   2.296   2.235   7.227  0.1834 -0.2279 -0.2763
  152SAPE   H6X16882   2.330   2.130   7.241 -0.5484 -0.4242  0.1041
  152SAPE   H6Y16883   2.185   2.230   7.221  0.1265 -3.5839  1.2388
  152SAPE   C3716884   2.341   2.330   7.343  0.2133  0.3107 -1.0466
  152SAPE   H7X16885   2.316   2.436   7.318  2.2839  1.6073  1.8585
  152SAPE   H7Y16886   2.451   2.320   7.349  0.1031 -0.5117 -0.3712
  152SAPE   C3816887   2.270   2.302   7.475  0.1588 -0.0641 -0.8140
  152SAPE   H8X16888   2.296   2.205   7.522  1.6048  0.6317 -0.0840
  152SAPE   H8Y16889   2.160   2.303   7.464 -0.3866  2.8761  2.6897
  152SAPE   C3916890   2.304   2.403   7.584  0.1162 -0.0411  0.2091
  152SAPE   H9X16891   2.303   2.501   7.531  0.9217 -0.8982 -1.4597
  152SAPE   H9Y16892   2.410   2.386   7.612 -0.2610 -2.1883  0.5037
  152SAPE  C31016893   2.234   2.399   7.715  0.2379  0.0072  0.7798
  152SAPE  H10X16894   2.252   2.305   7.772 -0.3400  0.2897  1.4503
  152SAPE  H10Y16895   2.125   2.410   7.694  0.4075  1.4176  0.5991
  152SAPE  C31116896   2.266   2.507   7.822 -0.1339  0.1456 -0.2102
  152SAPE  H11X16897   2.377   2.508   7.829  0.0764 -3.3011 -1.2816
  152SAPE  H11Y16898   2.218   2.482   7.919  0.6930  0.9357  0.4325
  152SAPE  C31216899   2.234   2.652   7.782  0.3315  0.4327 -0.1074
  152SAPE  H12X16900   2.124   2.666   7.777 -0.0488 -1.2463  2.0531
  152SAPE  H12Y16901   2.279   2.666   7.681 -0.0774 -1.1909 -0.5509
  152SAPE  C31316902   2.308   2.740   7.879  0.6278 -0.7738 -0.0264
  152SAPE  H13X16903   2.416   2.720   7.866  0.8630  0.3641  0.0861
  152SAPE  H13Y16904   2.295   2.724   7.988  1.8612 -0.7195  0.1427
  152SAPE  C31416905   2.283   2.884   7.844  0.0951  0.1408  0.9027
  152SAPE  H14X16906   2.175   2.912   7.848  0.3643  1.3109  0.3127
  152SAPE  H14Y16907   2.318   2.898   7.740 -0.3363  0.8104  0.8382
  152SAPE  C31516908   2.370   2.975   7.934  1.2730  0.6439  0.3231
  152SAPE  H15X16909   2.465   2.928   7.964  2.1280  1.5206 -0.8994
  152SAPE  H15Y16910   2.307   2.982   8.026 -2.7296 -0.3356 -2.0872
  152SAPE  C31616911   2.416   3.109   7.886  0.4976  0.1226 -0.1765
  152SAPE  H16X16912   2.483   3.089   7.800 -0.5022 -1.3793 -0.6438
  152SAPE  H16Y16913   2.470   3.158   7.969 -2.3926 -0.5651  2.3086
  152SAPE  C31716914   2.303   3.207   7.859 -0.0554  0.1625  0.1700
  152SAPE  H17X16915   2.218   3.197   7.931 -2.8462  1.3841 -2.7100
  152SAPE  H17Y16916   2.258   3.178   7.762 -0.0596 -0.4821  0.3558
  152SAPE  C31816917   2.355   3.348   7.850  0.2605  1.3676 -0.0293
  152SAPE  H18X16918   2.275   3.420   7.824  0.4306  1.0837 -1.4212
  152SAPE  H18Y16919   2.441   3.360   7.781  1.7195  0.0597  1.4801
  152SAPE  H18Z16920   2.392   3.382   7.949  0.8260 -0.1699  0.3200
  153SAPE     N16921   6.649   3.476   5.909 -0.9676  0.2897  0.5578
  153SAPE   HN116922   6.712   3.487   5.827 -1.6399  0.3626  0.0449
  153SAPE   HN216923   6.704   3.492   5.996  1.4103 -1.2226 -0.5516
  153SAPE   HN316924   6.616   3.377   5.907  1.2276 -0.5084 -0.7372
  153SAPE   C1216925   6.537   3.577   5.910  0.2465 -0.2073  0.6456
  153SAPE  H12A16926   6.468   3.559   5.826  0.4169  1.4049  0.1195
  153SAPE  H12B16927   6.579   3.680   5.898  0.6578 -0.2369  1.7334
  153SAPE   C1116928   6.473   3.577   6.047  0.4835 -0.6729  0.1965
  153SAPE  H11A16929   6.385   3.644   6.053  1.8199  1.0770  0.9749
  153SAPE  H11B16930   6.542   3.618   6.124 -1.4808 -0.4161  1.9024
  153SAPE     P16931   6.365   3.402   6.210  0.1649  0.0750  0.1011
  153SAPE   O1316932   6.315   3.526   6.264 -0.0553 -1.0776 -0.1408
  153SAPE   O1416933   6.269   3.304   6.174  0.7556  0.0616  0.1042
  153SAPE   O1216934   6.445   3.446   6.084  0.0146  0.3805 -0.2469
  153SAPE   O1116935   6.491   3.346   6.298  0.0991  0.4361  0.3518
  153SAPE    C116936   6.475   3.211   6.342 -0.4698 -0.4437 -0.2246
  153SAPE    HA16937   6.455   3.143   6.257  0.5940 -1.6545  0.4693
  153SAPE    HB16938   6.574   3.176   6.376 -0.6084  0.5729  1.3151
  153SAPE    C216939   6.375   3.186   6.467 -0.0414 -0.5435  0.3976
  153SAPE    HS16940   6.273   3.206   6.429  0.5019 -0.2864 -0.9886
  153SAPE   O2116941   6.418   3.275   6.574  0.1798  0.1011 -0.3039
  153SAPE   C2116942   6.319   3.317   6.662  0.0037  0.6239  0.4212
  153SAPE   O2216943   6.200   3.307   6.639 -0.3359  0.1189 -0.1829
  153SAPE   C2216944   6.394   3.385   6.779  0.2489  0.3613  0.4605
  153SAPE   H2R16945   6.387   3.321   6.870 -0.8385 -0.1197  0.0560
  153SAPE   H2S16946   6.503   3.388   6.758  0.0635  1.3151 -0.4539
  153SAPE    C316947   6.374   3.037   6.523  0.0470 -0.8104 -0.1964
  153SAPE    HX16948   6.477   3.008   6.550  0.9956 -0.0172 -2.6489
  153SAPE    HY16949   6.333   2.974   6.442 -4.8346 -0.4235  1.6509
  153SAPE   O3116950   6.302   3.027   6.648  0.6557  0.1245 -0.8167
  153SAPE   C3116951   6.185   2.962   6.632  0.6440 -0.4154 -0.8893
  153SAPE   O3216952   6.158   2.896   6.535  0.1087 -0.3181 -0.2287
  153SAPE   C3216953   6.090   2.973   6.756  0.4529  0.1325 -0.1090
  153SAPE   H2X16954   6.056   2.869   6.776 -3.6139  1.7323  2.9560
  153SAPE   H2Y16955   6.002   3.037   6.735  1.6162  2.1657  0.9100
  153SAPE   C2316956   6.345   3.530   6.802 -1.0052  0.5841  1.0966
  153SAPE   H3R16957   6.238   3.527   6.830 -1.3491  1.8185  0.0278
  153SAPE   H3S16958   6.354   3.592   6.710  1.1064  0.1000  0.9125
  153SAPE   C2416959   6.432   3.605   6.904 -0.0532  0.6122 -0.5911
  153SAPE   H4R16960   6.387   3.707   6.905 -1.4493  0.0328  1.6429
  153SAPE   H4S16961   6.540   3.608   6.878  0.2626  3.3154  0.6867
  153SAPE   C2516962   6.412   3.546   7.039  0.5842  0.2818 -0.1552
  153SAPE   H5R16963   6.401   3.437   7.041  1.4943  0.1604 -1.0781
  153SAPE   C2616964   6.435   3.605   7.158  0.6551 -0.2012 -0.4333
  153SAPE   H6R16965   6.438   3.549   7.253  2.7533 -0.8524 -0.8279
  153SAPE   C2716966   6.467   3.755   7.171  0.8377  0.3669  0.0865
  153SAPE   H7R16967   6.431   3.815   7.084 -0.4498  1.4012  1.2839
  153SAPE   H7S16968   6.577   3.770   7.162  1.0496 -0.4234  1.1456
  153SAPE   C2816969   6.434   3.811   7.304  0.3456  0.2001 -0.2667
  153SAPE   H8R16970   6.348   3.879   7.308 -0.3771 -0.7411  1.7853
  153SAPE   C2916971   6.492   3.784   7.422 -0.5350 -0.0510  1.2342
  153SAPE   H9R16972   6.478   3.854   7.505 -0.1538 -0.0155  1.2726
  153SAPE  C21016973   6.609   3.691   7.464 -0.1722 -0.2306  0.5460
  153SAPE  H10R16974   6.659   3.644   7.377  0.1563  1.7786 -0.4023
  153SAPE  H10S16975   6.561   3.609   7.521 -1.9045 -0.2487 -0.8381
  153SAPE  C21116976   6.712   3.780   7.530 -0.2066  0.8998 -0.4778
  153SAPE  H11R16977   6.743   3.865   7.468 -0.8739  0.9974 -0.6779
  153SAPE  C21216978   6.759   3.764   7.659  0.8801 -0.3972  0.3737
  153SAPE  H12R16979   6.824   3.843   7.697  0.0273  0.1350  0.7688
  153SAPE  C21316980   6.717   3.665   7.765  0.4978 -0.4085 -0.2843
  153SAPE  H13R16981   6.718   3.558   7.735 -1.1216 -0.4603 -0.2268
  153SAPE  H13S16982   6.607   3.676   7.772  0.5538  0.4897 -0.6332
  153SAPE  C21416983   6.785   3.690   7.895 -0.2273  0.1534 -0.4137
  153SAPE  H14R16984   6.787   3.798   7.916  1.8137  0.2261 -0.7189
  153SAPE  C21516985   6.863   3.602   7.965  0.8012 -1.1551  0.2982
  153SAPE  H15R16986   6.925   3.635   8.049  3.7432  0.1412 -2.1679
  153SAPE  C21616987   6.884   3.457   7.932  0.6536 -0.0316 -0.0697
  153SAPE  H16R16988   6.986   3.421   7.961  2.3071  3.3723 -1.1953
  153SAPE  H16S16989   6.875   3.438   7.823  0.6484 -0.6914  0.0424
  153SAPE  C21716990   6.788   3.374   8.013 -0.7252 -0.2667 -0.3278
  153SAPE  H17R16991   6.683   3.405   7.992 -0.7097  2.3789  2.7742
  153SAPE  H17S16992   6.810   3.376   8.121  0.3097 -1.2556 -0.4982
  153SAPE  C21816993   6.790   3.223   7.973 -1.0445 -0.0894 -0.3703
  153SAPE  H18R16994   6.771   3.216   7.863 -0.5412 -0.8577 -0.4142
  153SAPE  H18S16995   6.712   3.168   8.030  0.6887 -0.7237  1.4961
  153SAPE  C21916996   6.917   3.149   8.007  0.4923  0.0774  0.0059
  153SAPE  H19R16997   6.939   3.176   8.112 -2.4440  1.1571  0.4361
  153SAPE  H19S16998   7.006   3.191   7.955  0.0913 -0.2904 -1.0133
  153SAPE  C22016999   6.905   2.998   7.998 -0.2919  0.2803 -0.4731
  153SAPE  H20R17000   7.000   2.941   8.011 -1.1689 -1.1051  0.1924
  153SAPE  H20S17001   6.860   2.954   7.907 -1.4051 -0.3022  0.3226
  153SAPE  H20T17002   6.843   2.960   8.083  0.2283 -2.1354 -1.0886
  153SAPE   C3317003   6.156   3.031   6.889  0.2974 -0.0940 -0.0512
  153SAPE   H3X17004   6.068   3.044   6.955  0.2442 -1.3289  0.1511
  153SAPE   H3Y17005   6.201   3.129   6.862 -1.5808  1.1235  1.0420
  153SAPE   C3417006   6.259   2.940   6.955 -0.3330 -0.0230  0.4200
  153SAPE   H4X17007   6.335   2.924   6.875 -1.9941  2.1771 -1.7424
  153SAPE   H4Y17008   6.223   2.837   6.977 -1.2529  0.4379  1.1470
  153SAPE   C3517009   6.323   3.012   7.071 -0.5985  0.4222 -0.0294
  153SAPE   H5X17010   6.367   3.110   7.044 -0.2518 -0.8734 -5.2290
  153SAPE   H5Y17011   6.413   2.954   7.101 -0.5986  1.1126  1.3927
  153SAPE   C3617012   6.233   3.029   7.187 -0.3587  0.0791 -0.4928
  153SAPE   H6X17013   6.214   2.927   7.227  1.9836 -0.5620 -0.9158
  153SAPE   H6Y17014   6.143   3.092   7.167  0.3654  0.9049 -1.2082
  153SAPE   C3717015   6.313   3.095   7.312  0.1494 -0.6440 -0.0726
  153SAPE   H7X17016   6.238   3.122   7.390  0.5856  1.4595 -0.3324
  153SAPE   H7Y17017   6.361   3.187   7.273 -1.1788  0.5864  1.0873
  153SAPE   C3817018   6.410   3.009   7.380  0.1362  0.3166 -1.0134
  153SAPE   H8X17019   6.500   2.993   7.317 -0.4214 -1.2952 -1.4628
  153SAPE   H8Y17020   6.370   2.909   7.410 -1.4622  0.9225 -0.9983
  153SAPE   C3917021   6.460   3.085   7.514  0.0193  0.0045  0.4831
  153SAPE   H9X17022   6.370   3.092   7.579 -2.0375 -1.1704 -2.0335
  153SAPE   H9Y17023   6.508   3.181   7.487  1.5567 -0.9032 -0.1086
  153SAPE  C31017024   6.569   3.003   7.587  0.0235  0.3942 -1.5881
  153SAPE  H10X17025   6.667   3.030   7.543  1.6326  0.4602  1.6713
  153SAPE  H10Y17026   6.550   2.893   7.588  0.1790  0.2749  1.9088
  153SAPE  C31117027   6.580   3.045   7.740  0.3758  0.1582  0.6862
  153SAPE  H11X17028   6.571   3.155   7.745  2.9354  0.3753  2.9636
  153SAPE  H11Y17029   6.673   3.005   7.787  1.7652  1.5536 -0.7120
  153SAPE  C31217030   6.462   2.987   7.815 -0.0649 -0.6552  0.1633
  153SAPE  H12X17031   6.458   2.877   7.805 -1.7022 -0.6609  0.6620
  153SAPE  H12Y17032   6.373   3.039   7.774 -0.6359 -1.0699  0.8495
  153SAPE  C31317033   6.462   3.020   7.967 -0.7100  0.0688 -0.1822
  153SAPE  H13X17034   6.486   3.127   7.986  1.4977  0.0826 -2.5702
  153SAPE  H13Y17035   6.547   2.972   8.020 -0.0027  0.2621 -1.1156
  153SAPE  C31417036   6.339   2.986   8.049  0.1927 -0.3361  0.1523
  153SAPE  H14X17037   6.297   2.884   8.048 -2.3110  0.6118 -1.1409
  153SAPE  H14Y17038   6.253   3.051   8.023  0.1033  1.1397  3.5768
  153SAPE  C31517039   6.368   3.016   8.199 -0.2676  0.1211 -0.0946
  153SAPE  H15X17040   6.388   3.124   8.214  1.0890 -0.2267  0.7957
  153SAPE  H15Y17041   6.461   2.958   8.218 -1.7538 -3.6294 -2.9347
  153SAPE  C31617042   6.260   2.955   8.298 -0.3334 -0.4673  0.0708
  153SAPE  H16X17043   6.280   2.999   8.398 -0.5408 -0.6671  0.2014
  153SAPE  H16Y17044   6.265   2.844   8.290 -0.7168 -0.5784  1.2069
  153SAPE  C31717045   6.115   2.989   8.268 -0.5834  0.2516  0.0760
  153SAPE  H17X17046   6.050   2.937   8.342 -0.8940 -0.3542 -0.6108
  153SAPE  H17Y17047   6.095   2.942   8.170  1.8023  0.0319 -0.3595
  153SAPE  C31817048   6.082   3.140   8.286 -0.3549  0.8184 -0.1244
  153SAPE  H18X17049   6.109   3.168   8.390 -0.3240 -1.1094  0.4200
  153SAPE  H18Y17050   5.978   3.157   8.250 -0.6084  0.5317  0.4419
  153SAPE  H18Z17051   6.152   3.195   8.219  1.3007 -2.4625 -1.3228
  154SAPE     N17052   5.261   2.259   5.934 -0.4058  0.1446  0.6562
  154SAPE   HN117053   5.282   2.231   6.032  0.9172 -1.8400 -0.1224
  154SAPE   HN217054   5.324   2.338   5.910 -1.1686  0.2841 -1.0207
  154SAPE   HN317055   5.158   2.275   5.932 -0.8056 -2.0654  1.2502
  154SAPE   C1217056   5.294   2.141   5.849  0.0918 -0.1567  0.2914
  154SAPE  H12A17057   5.255   2.164   5.748  0.0653 -0.1763  0.2969
  154SAPE  H12B17058   5.235   2.059   5.897  1.0481 -0.3409  1.1992
  154SAPE   C1117059   5.438   2.112   5.840 -0.6372  0.4508  0.4529
  154SAPE  H11A17060   5.491   2.194   5.788 -0.8137  1.7799  2.2697
  154SAPE  H11B17061   5.449   2.024   5.773 -0.3006  2.5589 -2.4279
  154SAPE     P17062   5.507   1.943   6.037  0.2040  0.0127 -0.0341
  154SAPE   O1317063   5.444   1.840   5.957 -0.0429  0.3642 -0.4815
  154SAPE   O1417064   5.651   1.934   6.071  0.4286 -0.1189  0.4776
  154SAPE   O1217065   5.485   2.080   5.968  0.1472  0.1758  0.1949
  154SAPE   O1117066   5.420   1.958   6.165 -0.4563 -0.2904  0.4899
  154SAPE    C117067   5.326   1.857   6.194  0.5923 -0.1127  0.2661
  154SAPE    HA17068   5.229   1.896   6.155  1.7717  0.2790 -2.5692
  154SAPE    HB17069   5.348   1.757   6.152  1.9081 -0.3176  1.3931
  154SAPE    C217070   5.298   1.846   6.347 -0.0253  0.4390  0.3675
  154SAPE    HS17071   5.226   1.763   6.360 -1.2860  1.7371  2.2217
  154SAPE   O2117072   5.241   1.962   6.406 -0.1369  0.2414  0.3305
  154SAPE   C2117073   5.164   1.940   6.517  0.2469  0.5898 -0.3914
  154SAPE   O2217074   5.142   1.836   6.571 -0.4022 -0.1039 -0.6479
  154SAPE   C2217075   5.099   2.069   6.566 -0.2038  0.6963 -0.5875
  154SAPE   H2R17076   5.172   2.153   6.569 -0.3942  0.8580  1.6486
  154SAPE   H2S17077   5.031   2.098   6.484 -1.8440  0.7377  0.7380
  154SAPE    C317078   5.437   1.817   6.416  0.7832 -0.1343 -0.0344
  154SAPE    HX17079   5.512   1.895   6.390  0.8147 -0.1031  0.1529
  154SAPE    HY17080   5.479   1.727   6.367  0.8638  0.1756 -0.5419
  154SAPE   O3117081   5.438   1.794   6.563 -0.0025  0.0204 -0.2257
  154SAPE   C3117082   5.409   1.673   6.609 -0.2966  0.9976 -0.7178
  154SAPE   O3217083   5.372   1.580   6.541 -0.4806 -0.0300 -0.3459
  154SAPE   C3217084   5.464   1.651   6.756  0.7545 -0.8682 -0.4061
  154SAPE   H2X17085   5.554   1.706   6.790 -1.2380  1.1560  1.9775
  154SAPE   H2Y17086   5.483   1.541   6.756 -1.0513 -1.2140  0.8075
  154SAPE   C2317087   5.013   2.072   6.688 -0.0015  0.1032  0.1929
  154SAPE   H3R17088   4.958   1.976   6.691  1.5630 -0.9090 -1.5384
  154SAPE   H3S17089   4.933   2.149   6.687 -0.0890  0.1097  2.3831
  154SAPE   C2417090   5.094   2.093   6.816  0.4759 -0.4720  0.3714
  154SAPE   H4R17091   5.156   2.182   6.795  2.6711 -2.3561 -1.7263
  154SAPE   H4S17092   5.171   2.015   6.831  3.2112  1.7090 -1.4552
  154SAPE   C2517093   4.998   2.107   6.936 -0.0029  0.0330  0.5173
  154SAPE   H5R17094   4.916   2.034   6.927  0.5726 -0.4395 -1.2684
  154SAPE   C2617095   5.000   2.199   7.033 -0.3944  0.1177 -0.1760
  154SAPE   H6R17096   4.914   2.198   7.101 -1.0959  0.1954 -1.0484
  154SAPE   C2717097   5.103   2.307   7.048 -0.2581 -0.1242 -0.1879
  154SAPE   H7R17098   5.145   2.335   6.949  1.6451 -1.5310  0.1653
  154SAPE   H7S17099   5.188   2.259   7.101 -2.1909 -2.7334  0.7737
  154SAPE   C2817100   5.063   2.434   7.105  0.7979 -0.1573  0.6277
  154SAPE   H8R17101   5.036   2.514   7.034 -1.6157 -2.2738 -0.9974
  154SAPE   C2917102   5.054   2.451   7.237 -0.3213 -0.0995 -0.0324
  154SAPE   H9R17103   5.038   2.554   7.273  1.0202  0.3553 -0.6809
  154SAPE  C21017104   5.081   2.352   7.345  0.3334 -0.9328 -0.2079
  154SAPE  H10R17105   5.151   2.401   7.415 -0.0437 -2.5447  1.3528
  154SAPE  H10S17106   5.137   2.263   7.310  1.0130  0.0461 -1.7341
  154SAPE  C21117107   4.953   2.308   7.416  0.1671  0.2935 -0.0536
  154SAPE  H11R17108   4.860   2.324   7.359  0.1435 -0.6778 -0.3023
  154SAPE  C21217109   4.953   2.266   7.546 -0.4162 -0.8251 -0.4066
  154SAPE  H12R17110   4.869   2.205   7.583 -2.3819  1.6309 -0.5954
  154SAPE  C21317111   5.081   2.258   7.633 -0.0355 -0.7043  0.1413
  154SAPE  H13R17112   5.175   2.279   7.579 -0.2429 -0.5118 -0.1468
  154SAPE  H13S17113   5.097   2.156   7.674  0.2396 -1.2158 -1.2126
  154SAPE  C21417114   5.058   2.362   7.732 -0.8942  0.1046 -0.8930
  154SAPE  H14R17115   5.024   2.460   7.694  0.0830  0.6053 -0.5082
  154SAPE  C21517116   5.115   2.356   7.854 -0.1722 -0.5110 -0.4595
  154SAPE  H15R17117   5.110   2.452   7.908  2.6483  0.5289 -1.8388
  154SAPE  C21617118   5.190   2.242   7.920 -0.6208  0.2126  0.5288
  154SAPE  H16R17119   5.262   2.277   7.997 -0.8204 -1.4287  1.5233
  154SAPE  H16S17120   5.243   2.181   7.844  0.5642 -0.3821  1.8027
  154SAPE  C21717121   5.069   2.156   7.980  0.4995  0.2257 -0.7759
  154SAPE  H17R17122   5.028   2.107   7.890 -0.7283  0.6863 -0.4842
  154SAPE  H17S17123   4.991   2.224   8.021  0.2522  1.1085 -2.6135
  154SAPE  C21817124   5.113   2.063   8.089 -0.2654  0.1785  0.4844
  154SAPE  H18R17125   5.223   2.052   8.088 -0.2890 -0.3319  1.7003
  154SAPE  H18S17126   5.082   1.960   8.062  3.5898 -1.2037  0.7021
  154SAPE  C21917127   5.061   2.102   8.227 -0.2246 -0.1134 -0.0480
  154SAPE  H19R17128   4.952   2.125   8.236 -0.5626 -1.5739 -0.1585
  154SAPE  H19S17129   5.110   2.199   8.251 -0.9031 -0.3478  2.5721
  154SAPE  C22017130   5.080   1.989   8.328 -0.2156 -0.0346 -0.2627
  154SAPE  H20R17131   5.184   1.952   8.342 -0.2020 -0.1099 -0.5599
  154SAPE  H20S17132   5.025   1.900   8.290  2.1475 -1.8203  0.2411
  154SAPE  H20T17133   5.052   2.029   8.428 -2.2881  0.2789 -0.9177
  154SAPE   C3317134   5.335   1.680   6.840  0.1665  0.0624 -0.8535
  154SAPE   H3X17135   5.243   1.637   6.796 -0.0219  1.2054 -1.5939
  154SAPE   H3Y17136   5.309   1.788   6.847  0.0910 -0.0185  0.4284
  154SAPE   C3417137   5.344   1.632   6.985 -0.1867  0.5471  0.7495
  154SAPE   H4X17138   5.393   1.707   7.050 -0.7246  4.1443 -2.6393
  154SAPE   H4Y17139   5.408   1.541   6.976 -1.4602 -0.3975  0.8729
  154SAPE   C3517140   5.218   1.582   7.044  0.1246  0.1057 -0.1894
  154SAPE   H5X17141   5.157   1.510   6.985 -0.1461 -1.6760  2.1011
  154SAPE   H5Y17142   5.158   1.674   7.058  0.5750  0.4406 -0.4407
  154SAPE   C3617143   5.238   1.519   7.188 -0.4895 -0.1540  0.5275
  154SAPE   H6X17144   5.318   1.573   7.243  1.1391 -0.6886 -1.2064
  154SAPE   H6Y17145   5.279   1.416   7.184 -0.9383 -0.3097 -0.3104
  154SAPE   C3717146   5.118   1.525   7.289  0.6517  0.0447 -0.8089
  154SAPE   H7X17147   5.034   1.463   7.249 -0.8365  2.0331 -0.9611
  154SAPE   H7Y17148   5.082   1.630   7.283 -0.2997 -0.1102  1.5034
  154SAPE   C3817149   5.148   1.488   7.430  0.8441  0.8355  0.1105
  154SAPE   H8X17150   5.224   1.547   7.485  0.7643  0.9006  0.1524
  154SAPE   H8Y17151   5.200   1.390   7.429  1.0937  0.9668  0.2505
  154SAPE   C3917152   5.030   1.491   7.524  0.0822  0.8057 -0.5738
  154SAPE   H9X17153   4.949   1.423   7.491  1.9978 -1.2149 -1.4547
  154SAPE   H9Y17154   4.982   1.590   7.531 -0.5102  0.5031 -0.2393
  154SAPE  C31017155   5.073   1.459   7.672  0.7052  0.1105  0.4037
  154SAPE  H10X17156   5.089   1.350   7.686 -0.6977  0.0997  2.3739
  154SAPE  H10Y17157   4.980   1.478   7.730 -0.7719 -1.3182 -1.3326
  154SAPE  C31117158   5.191   1.517   7.739 -0.4452  0.0987  0.5385
  154SAPE  H11X17159   5.177   1.627   7.741 -3.7249 -0.1291 -1.7269
  154SAPE  H11Y17160   5.277   1.498   7.672 -1.3134  2.3989 -1.3776
  154SAPE  C31217161   5.212   1.468   7.889  0.2421  0.1438  0.4692
  154SAPE  H12X17162   5.317   1.500   7.910  0.5729 -0.0746 -0.7312
  154SAPE  H12Y17163   5.213   1.357   7.878 -2.6624  0.1320 -0.3641
  154SAPE  C31317164   5.097   1.520   7.967  0.6559 -0.8303 -0.8205
  154SAPE  H13X17165   4.998   1.489   7.927  0.7066 -0.1255 -1.5317
  154SAPE  H13Y17166   5.090   1.631   7.958  0.7863 -0.6485  1.0566
  154SAPE  C31417167   5.111   1.480   8.115 -0.2716 -0.0614 -0.6773
  154SAPE  H14X17168   5.200   1.524   8.164 -0.8021  0.0239  0.2481
  154SAPE  H14Y17169   5.108   1.370   8.130 -0.9707  0.0035 -0.2354
  154SAPE  C31517170   5.000   1.525   8.214  0.6597 -0.0130 -0.4292
  154SAPE  H15X17171   4.896   1.516   8.177  1.3870 -1.0634 -2.2995
  154SAPE  H15Y17172   5.017   1.635   8.223  1.4866 -0.2180  0.8445
  154SAPE  C31617173   5.020   1.469   8.362 -0.1071 -0.1335  0.0854
  154SAPE  H16X17174   5.127   1.447   8.380 -0.7028 -3.4986  0.1655
  154SAPE  H16Y17175   4.960   1.376   8.372 -0.1874 -0.1132 -0.1986
  154SAPE  C31717176   4.985   1.575   8.466 -0.3863  0.2983  0.1684
  154SAPE  H17X17177   4.880   1.612   8.458 -0.2372  0.5148 -0.8422
  154SAPE  H17Y17178   5.048   1.665   8.453  0.3310  0.0391  1.5937
  154SAPE  C31817179   5.013   1.531   8.610  0.4500  0.5645  0.0749
  154SAPE  H18X17180   4.989   1.607   8.689  1.3202  1.7126 -0.7416
  154SAPE  H18Y17181   5.115   1.495   8.634  0.6562  2.9507  3.5378
  154SAPE  H18Z17182   4.943   1.446   8.622 -0.0217  0.7346 -1.3424
  155SAPE     N17183   4.979   3.171   6.293  0.7426  0.0932  0.5780
  155SAPE   HN117184   4.961   3.112   6.376  0.1808 -0.7944 -0.1526
  155SAPE   HN217185   4.888   3.207   6.257 -0.9910 -3.1245  1.3660
  155SAPE   HN317186   5.026   3.107   6.226  2.3284  1.3844  0.4008
  155SAPE   C1217187   5.069   3.279   6.328  0.0734 -0.4373 -0.3831
  155SAPE  H12A17188   5.093   3.341   6.239  0.6297  2.3145  1.5574
  155SAPE  H12B17189   5.163   3.237   6.370 -0.5162 -0.3197  1.1233
  155SAPE   C1117190   4.997   3.380   6.431  0.0619 -0.4857 -0.3423
  155SAPE  H11A17191   5.073   3.454   6.464 -0.0397 -0.4020 -0.2959
  155SAPE  H11B17192   4.971   3.319   6.521  1.2647  1.3119  1.3022
  155SAPE     P17193   4.827   3.573   6.433 -0.0379 -0.4917 -0.0693
  155SAPE   O1317194   4.935   3.673   6.400  0.2465  1.0853 -0.1080
  155SAPE   O1417195   4.687   3.596   6.394  0.6217 -0.2608  0.2892
  155SAPE   O1217196   4.875   3.435   6.383 -0.0742  0.0651  0.4516
  155SAPE   O1117197   4.833   3.562   6.592 -0.0583  0.2172  0.1541
  155SAPE    C117198   4.753   3.458   6.653 -1.3408 -0.1707 -0.7293
  155SAPE    HA17199   4.651   3.439   6.613 -2.0356 -0.3149  1.0033
  155SAPE    HB17200   4.811   3.363   6.653 -1.1164 -0.0423  0.0886
  155SAPE    C217201   4.727   3.485   6.808  0.6880 -0.2654  0.3569
  155SAPE    HS17202   4.664   3.402   6.845  1.4201 -1.9588 -2.0085
  155SAPE   O2117203   4.662   3.611   6.826  0.1096 -0.0777 -0.4079
  155SAPE   C2117204   4.533   3.617   6.814  0.3726  0.6726 -0.9186
  155SAPE   O2217205   4.462   3.520   6.795  0.1011 -0.3000  0.2520
  155SAPE   C2217206   4.483   3.753   6.828  1.0687 -0.7407 -0.1005
  155SAPE   H2R17207   4.555   3.831   6.858 -0.4797  1.2939 -1.3905
  155SAPE   H2S17208   4.428   3.772   6.733  0.1137 -1.0609  0.3731
  155SAPE    C317209   4.857   3.488   6.892 -0.2253  0.5259 -0.0992
  155SAPE    HX17210   4.894   3.592   6.880 -0.6688  0.6659 -0.2747
  155SAPE    HY17211   4.923   3.410   6.848  1.1184 -0.1145  2.7825
  155SAPE   O3117212   4.833   3.464   7.035 -0.1903 -0.3064  0.2693
  155SAPE   C3117213   4.864   3.346   7.080 -0.6598 -0.4834  0.5940
  155SAPE   O3217214   4.897   3.249   7.016  0.4572  0.3599 -0.0081
  155SAPE   C3217215   4.862   3.356   7.240 -0.0875 -0.1200  0.3345
  155SAPE   H2X17216   4.925   3.269   7.268  0.2401  0.6547  2.1018
  155SAPE   H2Y17217   4.757   3.341   7.273  0.2055 -1.7960  0.5672
  155SAPE   C2317218   4.373   3.782   6.932 -0.4147  0.3031 -0.2481
  155SAPE   H3R17219   4.295   3.704   6.940 -0.5949  0.4369 -0.6646
  155SAPE   H3S17220   4.326   3.874   6.890 -1.4043 -0.2822 -0.4557
  155SAPE   C2417221   4.434   3.815   7.074  0.4704  0.1553 -0.1150
  155SAPE   H4R17222   4.344   3.845   7.132  0.3072 -0.2108 -0.1774
  155SAPE   H4S17223   4.506   3.899   7.070 -0.0718  0.6153 -0.3781
  155SAPE   C2517224   4.518   3.716   7.131  0.5296  0.8612  0.7987
  155SAPE   H5R17225   4.598   3.677   7.066 -1.3337 -2.2955  0.1786
  155SAPE   C2617226   4.499   3.652   7.248 -0.9347 -0.1526  0.2117
  155SAPE   H6R17227   4.583   3.587   7.278 -1.6596 -1.0355  0.3419
  155SAPE   C2717228   4.393   3.683   7.346  0.3792 -0.7499 -0.6849
  155SAPE   H7R17229   4.296   3.654   7.301 -0.1954 -0.4316  0.3314
  155SAPE   H7S17230   4.379   3.792   7.364 -1.6075 -0.4505 -3.3195
  155SAPE   C2817231   4.409   3.596   7.465  0.6334  0.4921 -0.4992
  155SAPE   H8R17232   4.412   3.491   7.435  0.4720  0.5500 -0.7158
  155SAPE   C2917233   4.415   3.631   7.596  0.2511  0.1321 -0.1259
  155SAPE   H9R17234   4.439   3.557   7.674 -0.1135 -1.8776 -1.8168
  155SAPE  C21017235   4.403   3.768   7.656  0.4706  0.1968 -0.1593
  155SAPE  H10R17236   4.314   3.774   7.722  1.5937  2.5519  1.2629
  155SAPE  H10S17237   4.382   3.846   7.580  1.1009  0.9503  0.4330
  155SAPE  C21117238   4.541   3.797   7.713  0.5385  0.4263 -0.2973
  155SAPE  H11R17239   4.607   3.834   7.632  0.7564 -2.0384 -1.3426
  155SAPE  C21217240   4.596   3.788   7.836 -0.8613 -0.0201 -0.6493
  155SAPE  H12R17241   4.706   3.799   7.845 -0.9013 -0.8048  1.1200
  155SAPE  C21317242   4.518   3.742   7.961  0.0375 -0.3559  0.1472
  155SAPE  H13R17243   4.565   3.656   8.014  2.1053  1.4524  1.4326
  155SAPE  H13S17244   4.416   3.708   7.932 -0.1950  1.5791 -1.5579
  155SAPE  C21417245   4.491   3.841   8.072  0.6383 -0.4487  0.1649
  155SAPE  H14R17246   4.528   3.942   8.050 -2.3119  0.6979 -0.0894
  155SAPE  C21517247   4.429   3.824   8.193  0.5498  0.3138  0.4906
  155SAPE  H15R17248   4.409   3.909   8.260 -1.2270  1.0682 -0.9188
  155SAPE  C21617249   4.378   3.693   8.244 -0.3131  0.5983  0.1666
  155SAPE  H16R17250   4.416   3.668   8.346 -2.4715  0.2199  0.9295
  155SAPE  H16S17251   4.425   3.609   8.188 -2.3613  0.1529 -0.9485
  155SAPE  C21717252   4.222   3.684   8.261 -1.3968  0.5511  0.3114
  155SAPE  H17R17253   4.207   3.578   8.290  1.4662  0.5923  2.2939
  155SAPE  H17S17254   4.163   3.697   8.168 -0.8436 -0.6041 -0.2184
  155SAPE  C21817255   4.163   3.769   8.374 -0.3588  0.6087  0.0642
  155SAPE  H18R17256   4.185   3.877   8.390  0.0095  0.3469  1.4710
  155SAPE  H18S17257   4.205   3.721   8.465 -1.6208  0.6255  0.6650
  155SAPE  C21917258   4.012   3.746   8.391 -0.1296  0.5705  0.0869
  155SAPE  H19R17259   3.996   3.636   8.395  1.3091  0.3682  0.7688
  155SAPE  H19S17260   3.951   3.780   8.304  0.5696 -0.2299 -0.7313
  155SAPE  C22017261   3.967   3.814   8.517 -0.8084 -0.1021 -0.1361
  155SAPE  H20R17262   3.862   3.788   8.538 -0.6956 -0.0735  0.4858
  155SAPE  H20S17263   3.972   3.924   8.499  1.4515  0.0136  0.8280
  155SAPE  H20T17264   4.024   3.781   8.607 -0.0421  0.5429 -0.3769
  155SAPE   C3317265   4.906   3.497   7.299  0.0309 -0.0340 -0.8524
  155SAPE   H3X17266   4.834   3.574   7.262  0.1080 -0.6057 -2.2486
  155SAPE   H3Y17267   5.005   3.536   7.269 -0.5921  1.5266 -0.9914
  155SAPE   C3417268   4.904   3.511   7.452 -0.0027  0.3281 -0.1284
  155SAPE   H4X17269   4.989   3.459   7.502 -0.8263  0.0123  1.0051
  155SAPE   H4Y17270   4.815   3.454   7.488  0.8139 -1.0965 -0.2872
  155SAPE   C3517271   4.894   3.653   7.501 -0.1681  0.7791 -0.4075
  155SAPE   H5X17272   4.805   3.699   7.454 -0.4845  2.0965  1.3803
  155SAPE   H5Y17273   4.990   3.696   7.466  2.4976 -3.0603  1.4042
  155SAPE   C3617274   4.882   3.662   7.653 -0.3343 -0.5738  0.3781
  155SAPE   H6X17275   4.797   3.599   7.689  0.8951 -3.0202 -0.7610
  155SAPE   H6Y17276   4.861   3.765   7.688  1.1402 -0.2226  0.2731
  155SAPE   C3717277   5.008   3.623   7.720  0.3470  0.1680  1.0390
  155SAPE   H7X17278   5.094   3.644   7.652 -1.2990 -0.3910 -1.3275
  155SAPE   H7Y17279   5.008   3.512   7.715 -1.1268  0.0484  2.7122
  155SAPE   C3817280   5.022   3.653   7.867  0.1751  0.2097  0.0056
  155SAPE   H8X17281   4.966   3.586   7.935  2.2714 -1.2963  0.3742
  155SAPE   H8Y17282   4.987   3.757   7.880  2.3916  0.8802  0.9923
  155SAPE   C3917283   5.174   3.675   7.903  1.0330  0.8715 -0.0008
  155SAPE   H9X17284   5.225   3.732   7.822  0.1771  2.5654  0.6074
  155SAPE   H9Y17285   5.224   3.577   7.914 -0.2050  0.4121  2.1268
  155SAPE  C31017286   5.195   3.753   8.036 -0.1146  0.3922  0.3583
  155SAPE  H10X17287   5.149   3.694   8.118 -1.5399  1.2690  0.2103
  155SAPE  H10Y17288   5.150   3.854   8.038  2.1163  1.4694  3.1173
  155SAPE  C31117289   5.351   3.775   8.053 -0.1762  0.1976 -0.7492
  155SAPE  H11X17290   5.396   3.827   7.966 -3.4025  1.8843 -1.5849
  155SAPE  H11Y17291   5.391   3.672   8.052  2.4448  1.1343 -0.0430
  155SAPE  C31217292   5.393   3.838   8.184  0.4570  0.4847 -0.5416
  155SAPE  H12X17293   5.349   3.940   8.191 -1.4271 -0.1571 -1.9529
  155SAPE  H12Y17294   5.503   3.846   8.183  0.4506  0.7050  0.0880
  155SAPE  C31317295   5.344   3.756   8.306 -0.0648 -0.8941 -0.7148
  155SAPE  H13X17296   5.341   3.648   8.283  0.0659 -0.6701 -1.8711
  155SAPE  H13Y17297   5.245   3.802   8.325  1.1949  1.7779 -0.0666
  155SAPE  C31417298   5.434   3.766   8.420 -0.6677 -0.0439  0.0099
  155SAPE  H14X17299   5.451   3.875   8.439  4.0228 -0.2477 -1.7892
  155SAPE  H14Y17300   5.530   3.718   8.392 -0.5821  0.3323 -0.3598
  155SAPE  C31517301   5.367   3.708   8.546  0.2656  0.2009 -0.2759
  155SAPE  H15X17302   5.359   3.598   8.533 -1.5585  0.3547 -0.8068
  155SAPE  H15Y17303   5.262   3.745   8.552 -0.5768 -2.0905 -0.1886
  155SAPE  C31617304   5.435   3.746   8.674  0.2175  0.4766  0.1391
  155SAPE  H16X17305   5.450   3.856   8.685 -0.4317  0.4656  1.3469
  155SAPE  H16Y17306   5.533   3.695   8.675  0.0553 -0.0090  3.5284
  155SAPE  C31717307   5.358   3.697   8.804  0.1567 -0.3986  0.1263
  155SAPE  H17X17308   5.356   3.588   8.824  1.4547 -0.8932 -2.0255
  155SAPE  H17Y17309   5.250   3.721   8.788  0.6696  0.5174 -2.4487
  155SAPE  C31817310   5.413   3.769   8.924  0.3544 -0.2516  0.5035
  155SAPE  H18X17311   5.337   3.757   9.004 -0.2164 -0.8354 -0.1178
  155SAPE  H18Y17312   5.426   3.879   8.909  3.2282 -0.5338  0.3986
  155SAPE  H18Z17313   5.508   3.740   8.974  0.5108 -0.4934  0.0694
  156SAPE     N17314   3.009   3.200   6.012 -0.4110  0.3538 -0.3147
  156SAPE   HN117315   3.110   3.225   6.007 -0.2949  1.5436  4.0995
  156SAPE   HN217316   2.996   3.102   5.979  2.5435 -0.9633  1.9341
  156SAPE   HN317317   2.949   3.263   5.955 -2.2201 -2.4150 -1.7185
  156SAPE   C1217318   2.967   3.215   6.156 -0.2053 -0.7761  0.5982
  156SAPE  H12A17319   2.867   3.168   6.172 -0.4259 -0.3731  0.4169
  156SAPE  H12B17320   2.969   3.321   6.188 -0.3260 -0.7301  0.4568
  156SAPE   C1117321   3.048   3.122   6.245 -0.0053 -0.4503 -0.0013
  156SAPE  H11A17322   3.037   3.013   6.229  2.3315 -0.2834 -3.8391
  156SAPE  H11B17323   3.010   3.139   6.348 -1.7451  2.0480 -0.9454
  156SAPE     P17324   3.283   3.107   6.330  0.0605  0.1894  0.0911
  156SAPE   O1317325   3.246   2.960   6.342 -0.5409 -0.4267  0.4214
  156SAPE   O1417326   3.418   3.151   6.296  0.1504  0.0478  0.0538
  156SAPE   O1217327   3.182   3.170   6.236 -0.3302 -0.3960  0.0026
  156SAPE   O1117328   3.255   3.172   6.475 -0.4049 -0.4565  0.1463
  156SAPE    C117329   3.230   3.305   6.477  0.6082 -1.0331 -0.4516
  156SAPE    HA17330   3.322   3.364   6.457 -0.6597  1.7096  1.1619
  156SAPE    HB17331   3.156   3.348   6.406  0.7241 -0.0653 -0.0062
  156SAPE    C217332   3.188   3.343   6.620 -0.0092 -0.2810 -0.0404
  156SAPE    HS17333   3.181   3.454   6.622  2.7565 -0.0165 -1.0161
  156SAPE   O2117334   3.290   3.300   6.704  0.6739 -0.2013  0.3024
  156SAPE   C2117335   3.287   3.357   6.818 -0.3386 -0.4428  0.1094
  156SAPE   O2217336   3.221   3.453   6.849 -0.6142  0.0376 -0.0104
  156SAPE   C2217337   3.403   3.294   6.899 -0.5337 -0.1430 -0.6728
  156SAPE   H2R17338   3.431   3.199   6.849 -0.3062  0.4649 -1.7081
  156SAPE   H2S17339   3.485   3.369   6.902  0.6648 -1.4173  1.1096
  156SAPE    C317340   3.042   3.291   6.649 -0.4931  0.5595 -0.1010
  156SAPE    HX17341   3.051   3.180   6.652  0.3383  0.6366  0.5677
  156SAPE    HY17342   2.977   3.317   6.563 -0.6113 -0.5834 -0.3822
  156SAPE   O3117343   2.993   3.350   6.777 -0.2842  0.3002 -0.2813
  156SAPE   C3117344   2.913   3.458   6.758 -0.7056  0.7724 -0.1342
  156SAPE   O3217345   2.880   3.510   6.652 -0.0101 -1.3238  0.0005
  156SAPE   C3217346   2.844   3.498   6.884 -0.4190  0.3137  0.0278
  156SAPE   H2X17347   2.911   3.560   6.948  0.0010 -2.0571  2.0522
  156SAPE   H2Y17348   2.813   3.406   6.938 -1.0086  1.1401  1.1299
  156SAPE   C2317349   3.363   3.283   7.050  0.3319  1.0536  0.2322
  156SAPE   H3R17350   3.274   3.348   7.064 -0.0230  0.8976 -1.1379
  156SAPE   H3S17351   3.450   3.305   7.115  0.7349  0.9819 -0.2696
  156SAPE   C2417352   3.313   3.146   7.081 -0.2927  0.4930 -0.2605
  156SAPE   H4R17353   3.236   3.121   7.004  0.9961  0.0045 -1.4474
  156SAPE   H4S17354   3.260   3.158   7.177  0.6239  0.1742  0.2969
  156SAPE   C2517355   3.415   3.041   7.093  0.2565 -0.0455  0.5120
  156SAPE   H5R17356   3.440   3.000   6.994  0.6889 -0.5100  0.8091
  156SAPE   C2617357   3.460   2.993   7.211  0.0733  0.2224 -0.1345
  156SAPE   H6R17358   3.543   2.923   7.193 -0.3027 -0.2894  0.1036
  156SAPE   C2717359   3.419   3.036   7.354 -0.2197  0.1189 -0.2965
  156SAPE   H7R17360   3.312   3.020   7.380 -0.2851  0.9298 -0.0139
  156SAPE   H7S17361   3.430   3.147   7.361 -1.6244  0.2135  1.0172
  156SAPE   C2817362   3.504   2.972   7.455  0.5182  0.3303  0.1522
  156SAPE   H8R17363   3.583   2.909   7.411 -0.5327 -0.7749 -0.2215
  156SAPE   C2917364   3.492   2.975   7.593 -0.6466  0.2793 -0.5525
  156SAPE   H9R17365   3.569   2.923   7.652  1.0007  0.4008 -2.4585
  156SAPE  C21017366   3.388   3.053   7.663 -0.5213 -0.3027  0.0381
  156SAPE  H10R17367   3.351   2.993   7.748 -1.0942 -1.5422 -1.0501
  156SAPE  H10S17368   3.295   3.058   7.603  0.1977 -1.9866 -1.2880
  156SAPE  C21117369   3.445   3.193   7.709  0.3507 -0.0673  0.0244
  156SAPE  H11R17370   3.479   3.263   7.631  0.0727 -0.9011 -0.8707
  156SAPE  C21217371   3.461   3.231   7.834  0.2179 -0.5913  0.3423
  156SAPE  H12R17372   3.512   3.326   7.855  1.1113 -0.1443 -3.1529
  156SAPE  C21317373   3.422   3.148   7.954  0.4499  0.0504  1.1079
  156SAPE  H13R17374   3.470   3.185   8.047  0.5250 -0.8616  1.4452
  156SAPE  H13S17375   3.463   3.045   7.951  2.2074  0.7273  0.9461
  156SAPE  C21417376   3.270   3.142   7.960 -0.6665 -0.3950 -0.5458
  156SAPE  H14R17377   3.227   3.042   7.945 -0.7722 -0.3361 -0.6318
  156SAPE  C21517378   3.183   3.229   8.003  0.0175 -0.2454 -0.3442
  156SAPE  H15R17379   3.077   3.206   7.983 -0.3787 -1.7926  2.7867
  156SAPE  C21617380   3.212   3.365   8.050  0.6082 -0.1710 -0.0267
  156SAPE  H16R17381   3.138   3.442   8.019 -1.1693 -0.9045  2.1365
  156SAPE  H16S17382   3.311   3.397   8.013  0.6125  1.2058  1.0830
  156SAPE  C21717383   3.225   3.380   8.203  0.3132  0.0118  0.1604
  156SAPE  H17R17384   3.131   3.383   8.263  2.5383  0.2967  3.9685
  156SAPE  H17S17385   3.288   3.470   8.224 -0.0803  0.3952 -0.2787
  156SAPE  C21817386   3.293   3.268   8.286  0.1844  0.1574 -0.6479
  156SAPE  H18R17387   3.394   3.248   8.245  0.6925  0.3276  0.4877
  156SAPE  H18S17388   3.220   3.184   8.281 -1.5742  1.4356  1.6646
  156SAPE  C21917389   3.302   3.298   8.435 -0.6572 -0.2470 -0.3334
  156SAPE  H19R17390   3.201   3.287   8.480 -1.0595 -0.1417 -1.1893
  156SAPE  H19S17391   3.338   3.403   8.446 -0.8807  0.1439 -2.8157
  156SAPE  C22017392   3.388   3.193   8.515 -0.0445 -1.2417  0.0051
  156SAPE  H20R17393   3.354   3.089   8.493 -1.5948 -0.5970 -0.7700
  156SAPE  H20S17394   3.372   3.223   8.621  0.1138 -1.3459  0.0599
  156SAPE  H20T17395   3.497   3.190   8.496  0.0841 -0.2822  0.5614
  156SAPE   C3317396   2.724   3.583   6.857  0.2953 -0.2416  0.0264
  156SAPE   H3X17397   2.662   3.540   6.775  0.6043 -0.8050  0.0842
  156SAPE   H3Y17398   2.744   3.690   6.837  0.4644  0.0608  1.6703
  156SAPE   C3417399   2.628   3.605   6.982  0.5198  0.2292 -0.5412
  156SAPE   H4X17400   2.577   3.509   7.004  1.7018 -0.1338  0.7799
  156SAPE   H4Y17401   2.554   3.685   6.963  0.2667  0.0846 -0.1719
  156SAPE   C3517402   2.698   3.641   7.117 -0.4796  0.2454  0.2386
  156SAPE   H5X17403   2.767   3.728   7.112  0.3252 -0.3911  0.1115
  156SAPE   H5Y17404   2.757   3.550   7.138 -1.3026 -0.5505 -0.7864
  156SAPE   C3617405   2.596   3.686   7.226 -0.1809 -0.3764  0.5218
  156SAPE   H6X17406   2.504   3.624   7.219 -0.6293  0.4149 -1.0658
  156SAPE   H6Y17407   2.551   3.785   7.201  0.0284 -0.4477 -0.1260
  156SAPE   C3717408   2.644   3.691   7.366 -0.2200 -0.0579  0.3718
  156SAPE   H7X17409   2.738   3.748   7.380 -0.7016  1.3814 -1.7387
  156SAPE   H7Y17410   2.664   3.586   7.398 -1.4793 -0.8559 -1.2552
  156SAPE   C3817411   2.545   3.747   7.472  0.1951  0.4710 -0.2929
  156SAPE   H8X17412   2.442   3.713   7.449 -0.7074  2.6420  0.2830
  156SAPE   H8Y17413   2.530   3.856   7.454 -1.3969  0.5935  1.4431
  156SAPE   C3917414   2.582   3.729   7.612 -0.7114  0.1184 -0.4102
  156SAPE   H9X17415   2.685   3.772   7.617 -1.3275  1.7221 -0.9969
  156SAPE   H9Y17416   2.587   3.620   7.634  1.5362  0.3573  0.6444
  156SAPE  C31017417   2.490   3.796   7.715  0.5015 -0.2827 -0.6841
  156SAPE  H10X17418   2.382   3.768   7.714  0.0825  1.2627 -1.7169
  156SAPE  H10Y17419   2.481   3.905   7.695  2.1486  0.1821  0.8306
  156SAPE  C31117420   2.520   3.754   7.858  0.9462  0.8029 -0.4499
  156SAPE  H11X17421   2.630   3.763   7.872  1.0434 -0.4183 -0.3574
  156SAPE  H11Y17422   2.502   3.647   7.881 -2.2881  1.6568  1.7790
  156SAPE  C31217423   2.441   3.817   7.974 -0.1041 -0.5305  0.3196
  156SAPE  H12X17424   2.459   3.761   8.068 -0.0738 -0.9642  0.0614
  156SAPE  H12Y17425   2.330   3.808   7.965 -0.4357 -0.7336  3.4112
  156SAPE  C31317426   2.460   3.967   7.992  0.0208  0.4470  0.6344
  156SAPE  H13X17427   2.429   4.020   7.900  2.5837 -1.9128 -1.8019
  156SAPE  H13Y17428   2.567   3.995   7.994  0.2924 -0.5448  1.1039
  156SAPE  C31417429   2.371   4.007   8.115 -0.1167 -0.2598 -0.0043
  156SAPE  H14X17430   2.417   3.970   8.209  0.8373  1.0970  0.0952
  156SAPE  H14Y17431   2.269   3.963   8.117 -0.4290  0.2585 -2.0317
  156SAPE  C31517432   2.358   4.160   8.128  0.5585 -0.5985 -0.1642
  156SAPE  H15X17433   2.258   4.189   8.167  0.6135  0.5905 -0.8710
  156SAPE  H15Y17434   2.357   4.204   8.026  0.6013  0.0007  0.0906
  156SAPE  C31617435   2.458   4.218   8.229 -0.4585 -0.3309 -0.4701
  156SAPE  H16X17436   2.565   4.210   8.199 -0.9431 -2.1557 -1.8255
  156SAPE  H16Y17437   2.465   4.170   8.329  1.3569 -0.2900 -0.5481
  156SAPE  C31717438   2.429   4.367   8.265 -0.3059 -0.6520 -0.2774
  156SAPE  H17X17439   2.479   4.395   8.360 -1.3230  0.8034 -0.1385
  156SAPE  H17Y17440   2.322   4.378   8.293 -0.1576 -0.6038  0.2643
  156SAPE  C31817441   2.474   4.459   8.152  0.1234 -0.8105  0.3099
  156SAPE  H18X17442   2.416   4.439   8.059 -0.7460  1.6357  0.2412
  156SAPE  H18Y17443   2.585   4.461   8.156  0.0963  0.8393  2.3845
  156SAPE  H18Z17444   2.439   4.560   8.183  1.4261  0.2403 -1.4568
  157SAPE     N17445   0.640   5.752   6.101 -0.3355 -0.0777  0.2319
  157SAPE   HN117446   0.600   5.848   6.098 -1.8843 -0.7158 -1.5549
  157SAPE   HN217447   0.715   5.755   6.029 -1.2899  1.1215 -0.7635
  157SAPE   HN317448   0.558   5.690   6.086 -0.1748 -0.0743 -0.7305
  157SAPE   C1217449   0.685   5.733   6.237 -0.3571 -0.4113  0.1699
  157SAPE  H12A17450   0.599   5.754   6.305 -0.4983 -2.2928  0.6114
  157SAPE  H12B17451   0.767   5.806   6.252 -0.9284  0.4323 -0.6419
  157SAPE   C1117452   0.738   5.595   6.260 -0.8622  1.0494  0.1661
  157SAPE  H11A17453   0.652   5.527   6.244  1.1281 -1.0015 -2.9856
  157SAPE  H11B17454   0.768   5.571   6.364  1.9786 -0.7007 -0.9369
  157SAPE     P17455   0.993   5.602   6.185  0.4344  0.0654  0.0033
  157SAPE   O1317456   1.079   5.521   6.097  0.1480 -0.4634 -0.8767
  157SAPE   O1417457   1.014   5.742   6.162  0.4994  0.0102  0.4380
  157SAPE   O1217458   0.844   5.569   6.162 -0.8068  1.0992 -0.4044
  157SAPE   O1117459   1.017   5.565   6.344 -0.4374  0.3887  0.5323
  157SAPE    C117460   1.065   5.427   6.368  0.6589 -0.0424 -0.7482
  157SAPE    HA17461   0.979   5.358   6.357  1.3031 -1.5166  2.3283
  157SAPE    HB17462   1.144   5.397   6.296  1.0625  0.0390 -0.3500
  157SAPE    C217463   1.121   5.411   6.506 -0.0269  0.2769  0.0088
  157SAPE    HS17464   1.155   5.305   6.512 -2.8669 -0.7509 -0.7065
  157SAPE   O2117465   1.019   5.445   6.606 -0.5717  0.2747 -0.2898
  157SAPE   C2117466   0.934   5.347   6.642  0.3692  0.0283  0.8227
  157SAPE   O2217467   0.953   5.230   6.608  0.8190  0.0962 -0.6888
  157SAPE   C2217468   0.823   5.399   6.728 -0.0045 -0.4423  0.2672
  157SAPE   H2R17469   0.806   5.507   6.706 -0.5839 -0.8105 -1.1926
  157SAPE   H2S17470   0.733   5.349   6.686 -1.3252  2.2213 -0.2702
  157SAPE    C317471   1.255   5.499   6.532 -0.7098 -0.1689 -0.3244
  157SAPE    HX17472   1.230   5.601   6.498 -0.7332 -0.1749 -0.3246
  157SAPE    HY17473   1.333   5.449   6.471 -2.8341 -1.1266 -2.4089
  157SAPE   O3117474   1.294   5.487   6.673 -0.1751  0.3397  0.1542
  157SAPE   C3117475   1.250   5.576   6.756 -0.1928 -0.3451  0.1354
  157SAPE   O3217476   1.169   5.662   6.733 -0.2207 -0.5777  0.1456
  157SAPE   C3217477   1.312   5.552   6.895  1.0097 -0.4063  0.0071
  157SAPE   H2X17478   1.422   5.539   6.894  1.4268  2.3836  1.3005
  157SAPE   H2Y17479   1.264   5.460   6.933 -1.2624  1.1589  1.1697
  157SAPE   C2317480   0.845   5.374   6.886  0.3524 -0.7192  1.0137
  157SAPE   H3R17481   0.949   5.408   6.905  0.8344  0.0610 -2.3766
  157SAPE   H3S17482   0.828   5.266   6.905 -2.0041 -1.2751 -2.9763
  157SAPE   C2417483   0.747   5.454   6.975  0.0456 -0.0772  0.4597
  157SAPE   H4R17484   0.735   5.401   7.071 -0.1023 -0.0395  0.4620
  157SAPE   H4S17485   0.644   5.463   6.935  0.3720  0.1615 -0.3620
  157SAPE   C2517486   0.812   5.592   6.988  0.6843 -0.2882 -0.5842
  157SAPE   H5R17487   0.828   5.655   6.900  3.8249 -0.1328 -0.0251
  157SAPE   C2617488   0.870   5.633   7.106  0.3849  0.2328  0.4381
  157SAPE   H6R17489   0.920   5.732   7.105  0.0539  0.4033 -0.8607
  157SAPE   C2717490   0.885   5.560   7.239  1.0456  0.3456 -0.6404
  157SAPE   H7R17491   0.993   5.562   7.268  0.2820  0.3892  2.6001
  157SAPE   H7S17492   0.863   5.452   7.246  1.1523  0.4114  1.2983
  157SAPE   C2817493   0.802   5.640   7.344  0.2325 -0.2471  0.0896
  157SAPE   H8R17494   0.709   5.691   7.315  0.0250 -0.9427 -0.5091
  157SAPE   C2917495   0.835   5.649   7.474  0.5709  0.4022 -0.8386
  157SAPE   H9R17496   0.784   5.717   7.543 -0.0061 -1.6658  0.8698
  157SAPE  C21017497   0.950   5.591   7.553 -0.1866  0.2070  0.0163
  157SAPE  H10R17498   1.015   5.666   7.602 -0.3501  1.2626 -1.3096
  157SAPE  H10S17499   1.017   5.541   7.480 -0.7332 -0.0052 -0.3564
  157SAPE  C21117500   0.889   5.500   7.652  1.1969 -0.1417 -0.1087
  157SAPE  H11R17501   0.868   5.399   7.614  0.5864  0.3121 -0.9912
  157SAPE  C21217502   0.860   5.528   7.785  0.2804 -0.4220  0.5292
  157SAPE  H12R17503   0.816   5.441   7.835  0.0301 -1.4246 -1.3418
  157SAPE  C21317504   0.882   5.660   7.850 -0.5526 -0.1253  0.2622
  157SAPE  H13R17505   0.832   5.738   7.790  0.1025  0.3156  0.2821
  157SAPE  H13S17506   0.989   5.689   7.850 -0.8658  1.1132 -0.7288
  157SAPE  C21417507   0.832   5.673   7.995 -0.5435 -0.0703  0.0162
  157SAPE  H14R17508   0.726   5.701   8.008  0.1663  2.0251  1.8195
  157SAPE  C21517509   0.903   5.644   8.109 -0.1747  0.1543 -1.5130
  157SAPE  H15R17510   0.859   5.665   8.208  1.0456  0.1290 -0.9452
  157SAPE  C21617511   1.049   5.585   8.106  0.4490 -0.0651  0.0197
  157SAPE  H16R17512   1.121   5.667   8.086 -0.5825  0.6445 -0.8853
  157SAPE  H16S17513   1.057   5.506   8.029  0.6338 -2.3670  2.2528
  157SAPE  C21717514   1.076   5.528   8.251  0.2224 -0.5004 -0.1534
  157SAPE  H17R17515   1.096   5.610   8.322 -0.1760 -1.1512  0.7195
  157SAPE  H17S17516   1.172   5.474   8.247 -0.3289 -1.7596  2.2614
  157SAPE  C21817517   0.987   5.410   8.305 -0.9891 -0.4195  0.1774
  157SAPE  H18R17518   0.992   5.333   8.226  1.7260  1.2646 -1.4153
  157SAPE  H18S17519   0.882   5.441   8.328 -1.8274 -2.4161 -0.6627
  157SAPE  C21917520   1.052   5.343   8.427 -0.4666  0.5025  0.1985
  157SAPE  H19R17521   1.155   5.310   8.398 -1.2476 -2.7841  0.7093
  157SAPE  H19S17522   1.000   5.246   8.444  1.6727 -0.5921  0.9916
  157SAPE  C22017523   1.048   5.428   8.548  0.3250 -0.2663 -0.0013
  157SAPE  H20R17524   1.075   5.368   8.637 -1.3916 -3.0238 -1.2447
  157SAPE  H20S17525   0.944   5.464   8.565  0.8213  1.2558  0.0133
  157SAPE  H20T17526   1.103   5.524   8.530 -0.8660  0.7580  1.5766
  157SAPE   C3317527   1.280   5.668   6.995 -0.8599  0.0287  0.6532
  157SAPE   H3X17528   1.173   5.696   6.987 -1.0195 -0.9703 -1.3216
  157SAPE   H3Y17529   1.331   5.763   6.966 -1.0549 -0.3086 -0.9013
  157SAPE   C3417530   1.307   5.624   7.142 -0.4653  0.5473 -0.2210
  157SAPE   H4X17531   1.415   5.604   7.159 -0.4756  0.1435 -0.6097
  157SAPE   H4Y17532   1.242   5.537   7.161  0.6568 -0.8093 -2.1854
  157SAPE   C3517533   1.272   5.726   7.247 -0.7459 -0.1427  0.1447
  157SAPE   H5X17534   1.166   5.758   7.240 -1.3532 -2.0528 -0.2174
  157SAPE   H5Y17535   1.337   5.814   7.227 -1.7582  0.5258 -0.2928
  157SAPE   C3617536   1.285   5.677   7.397  0.3501 -0.1173  0.2719
  157SAPE   H6X17537   1.389   5.639   7.408  0.7939  0.8567 -0.4196
  157SAPE   H6Y17538   1.217   5.591   7.416  0.3060 -0.3003 -0.6866
  157SAPE   C3717539   1.268   5.791   7.499  0.4316 -0.1782 -0.7753
  157SAPE   H7X17540   1.167   5.839   7.492  0.6234  1.0304  2.8950
  157SAPE   H7Y17541   1.345   5.869   7.486  0.5837  0.2344  1.9876
  157SAPE   C3817542   1.281   5.750   7.644  0.4911 -0.2711 -0.2991
  157SAPE   H8X17543   1.388   5.730   7.665  0.4660 -1.0650 -0.8738
  157SAPE   H8Y17544   1.228   5.655   7.665 -1.1403  1.2582  3.4114
  157SAPE   C3917545   1.223   5.854   7.741 -0.3876  0.2767 -0.6011
  157SAPE   H9X17546   1.114   5.871   7.729 -0.1710  2.0500 -0.2778
  157SAPE   H9Y17547   1.274   5.949   7.713  2.2681  0.2460  3.3682
  157SAPE  C31017548   1.275   5.829   7.885 -0.3796  0.2381 -0.0149
  157SAPE  H10X17549   1.385   5.846   7.885 -0.2418 -0.6173 -0.1440
  157SAPE  H10Y17550   1.261   5.720   7.901 -1.2250  0.0823 -1.7003
  157SAPE  C31117551   1.217   5.932   7.995 -0.1977  0.4030 -0.3707
  157SAPE  H11X17552   1.117   5.897   8.029  1.1458 -2.2766  1.1830
  157SAPE  H11Y17553   1.213   6.031   7.945  2.6473  0.4886 -0.5757
  157SAPE  C31217554   1.311   5.931   8.113 -0.0021  0.1431  0.4174
  157SAPE  H12X17555   1.399   5.985   8.073 -0.5599  0.2938 -0.6248
  157SAPE  H12Y17556   1.349   5.828   8.134  2.0083  0.7446 -0.0798
  157SAPE  C31317557   1.255   5.994   8.240  0.1655 -0.1861  0.2587
  157SAPE  H13X17558   1.243   6.104   8.242 -1.2185 -0.2857  2.8092
  157SAPE  H13Y17559   1.330   5.956   8.313  1.9152 -0.6381 -1.6891
  157SAPE  C31417560   1.122   5.939   8.292  0.4459  0.0752 -0.4267
  157SAPE  H14X17561   1.133   5.828   8.296  1.7244  0.2144  0.1068
  157SAPE  H14Y17562   1.046   5.964   8.214  1.4702  0.7415 -1.2472
  157SAPE  C31517563   1.083   5.985   8.438  0.1485  0.2305  0.0415
  157SAPE  H15X17564   1.005   5.917   8.478 -1.4393  1.1656 -1.3168
  157SAPE  H15Y17565   1.038   6.086   8.422 -0.8183  0.0095  1.2414
  157SAPE  C31617566   1.196   6.009   8.537 -0.3475 -0.2424  0.2421
  157SAPE  H16X17567   1.257   6.090   8.490  0.8911 -1.0237  0.4387
  157SAPE  H16Y17568   1.253   5.916   8.560 -1.1710 -0.9374 -0.4769
  157SAPE  C31717569   1.142   6.071   8.671 -0.2088 -0.7815 -0.7338
  157SAPE  H17X17570   1.100   5.988   8.731 -0.8861  0.9661  1.3280
  157SAPE  H17Y17571   1.067   6.148   8.643  1.1510  2.4813  3.5450
  157SAPE  C31817572   1.254   6.153   8.739  0.0640 -0.1825 -0.4542
  157SAPE  H18X17573   1.223   6.188   8.839 -0.6076  0.2319 -0.8003
  157SAPE  H18Y17574   1.264   6.241   8.672  2.6212 -1.6141 -2.1211
  157SAPE  H18Z17575   1.352   6.099   8.742  1.2834  1.9923  1.2044
  158SAPE     N17576   2.568   2.956   6.324  0.5831  0.3666  0.3303
  158SAPE   HN117577   2.574   2.938   6.222  0.4424  2.5217 -0.1105
  158SAPE   HN217578   2.562   3.059   6.336 -0.2643  0.2485  1.0282
  158SAPE   HN317579   2.655   2.913   6.363  1.0607  1.6362  0.7342
  158SAPE   C1217580   2.446   2.900   6.385  0.2074  0.3768 -0.0114
  158SAPE  H12A17581   2.450   2.932   6.492 -1.2351  2.5052 -0.5250
  158SAPE  H12B17582   2.446   2.790   6.368 -1.1671  0.0797  1.6313
  158SAPE   C1117583   2.323   2.972   6.338  0.5976 -0.3404  0.2272
  158SAPE  H11A17584   2.245   2.952   6.415  1.8836 -3.7228  0.8254
  158SAPE  H11B17585   2.293   2.920   6.244  0.6416 -1.7062  0.9453
  158SAPE     P17586   2.267   3.189   6.215  0.2358  0.1672  0.2612
  158SAPE   O1317587   2.282   3.331   6.240  0.3383 -0.0500  0.3494
  158SAPE   O1417588   2.332   3.143   6.089 -0.0611  0.2577  0.0100
  158SAPE   O1217589   2.351   3.109   6.327  0.6398 -0.4879  0.1630
  158SAPE   O1117590   2.125   3.120   6.235 -0.0298 -0.2884 -0.0419
  158SAPE    C117591   2.008   3.191   6.268  0.6004 -0.6946 -0.5929
  158SAPE    HA17592   2.031   3.299   6.273  2.6347 -1.0096 -2.0440
  158SAPE    HB17593   1.935   3.169   6.188  2.7313 -0.1096 -2.7989
  158SAPE    C217594   1.948   3.148   6.404  0.0687 -0.8746 -0.9309
  158SAPE    HS17595   1.863   3.216   6.423  1.3989  0.2733  1.4096
  158SAPE   O2117596   2.038   3.164   6.515  0.3577 -0.5570  0.3703
  158SAPE   C2117597   2.068   3.287   6.550  1.0191 -0.3880 -0.3037
  158SAPE   O2217598   2.011   3.387   6.520 -0.1392 -0.5608 -0.4896
  158SAPE   C2217599   2.192   3.289   6.636  0.3922 -0.2540  0.0557
  158SAPE   H2R17600   2.184   3.225   6.726  0.8669 -1.1572 -0.5245
  158SAPE   H2S17601   2.275   3.269   6.565 -0.5417 -1.3531 -0.7658
  158SAPE    C317602   1.896   2.998   6.404 -0.1579 -0.3186 -0.4560
  158SAPE    HX17603   1.989   2.937   6.409 -0.2756 -0.5209 -0.7430
  158SAPE    HY17604   1.853   2.989   6.301 -0.5791 -0.4178 -0.2722
  158SAPE   O3117605   1.803   2.977   6.508  0.3135  0.0504  0.4398
  158SAPE   C3117606   1.769   2.850   6.523 -1.0073 -0.0676 -0.7505
  158SAPE   O3217607   1.797   2.754   6.447 -0.2206 -0.8952  0.2085
  158SAPE   C3217608   1.699   2.842   6.657 -0.3619  0.1268  0.1138
  158SAPE   H2X17609   1.746   2.915   6.727 -1.6105  0.7750  0.3190
  158SAPE   H2Y17610   1.708   2.739   6.697  2.2231  1.4459  3.4322
  158SAPE   C2317611   2.237   3.430   6.681 -0.7441  0.6768 -0.5537
  158SAPE   H3R17612   2.223   3.495   6.593  2.7774  0.9575 -1.0457
  158SAPE   H3S17613   2.346   3.423   6.700 -0.4921 -1.9008 -2.4183
  158SAPE   C2417614   2.170   3.475   6.810 -0.5730  0.4806  0.2871
  158SAPE   H4R17615   2.138   3.384   6.865 -0.0883  0.8150  1.1273
  158SAPE   H4S17616   2.075   3.522   6.776 -1.4667 -0.2290  1.7333
  158SAPE   C2517617   2.258   3.561   6.898  0.0216  0.2732 -0.2098
  158SAPE   H5R17618   2.317   3.638   6.847 -1.5097  0.8812 -1.1398
  158SAPE   C2617619   2.264   3.548   7.033  0.4897 -0.5255  0.2141
  158SAPE   H6R17620   2.332   3.614   7.089 -0.6020  0.1449  0.7772
  158SAPE   C2717621   2.193   3.444   7.118  0.3015  0.1717  0.4520
  158SAPE   H7R17622   2.264   3.389   7.183 -1.3934 -1.3740  1.0711
  158SAPE   H7S17623   2.155   3.354   7.065  1.3449 -0.1872  0.2794
  158SAPE   C2817624   2.090   3.510   7.205  0.0566  0.3792 -0.5947
  158SAPE   H8R17625   1.986   3.510   7.169 -0.5350 -1.6089  0.8606
  158SAPE   C2917626   2.099   3.545   7.333  0.2605  0.1187 -0.1513
  158SAPE   H9R17627   2.017   3.594   7.386  1.0975  2.1419 -0.6321
  158SAPE  C21017628   2.224   3.529   7.417 -0.0164  0.1313  0.2834
  158SAPE  H10R17629   2.218   3.608   7.495 -0.8697  1.6487 -1.2378
  158SAPE  H10S17630   2.305   3.562   7.349 -0.3645  0.4219 -0.0023
  158SAPE  C21117631   2.244   3.393   7.486  0.5862 -0.0630 -0.3070
  158SAPE  H11R17632   2.159   3.368   7.552  0.6793  1.7694  0.5633
  158SAPE  C21217633   2.347   3.306   7.469 -0.0363 -0.4710  0.4289
  158SAPE  H12R17634   2.346   3.210   7.524 -1.4532 -0.2777  0.7589
  158SAPE  C21317635   2.470   3.332   7.389  0.2223  0.1911 -0.0262
  158SAPE  H13R17636   2.529   3.411   7.440  0.5553  0.2743 -0.5313
  158SAPE  H13S17637   2.447   3.386   7.295  1.7570  2.3120  0.7298
  158SAPE  C21417638   2.553   3.213   7.369  0.1502 -0.1454  0.0170
  158SAPE  H14R17639   2.590   3.166   7.461  1.1857  0.7073  0.0575
  158SAPE  C21517640   2.588   3.162   7.249 -0.3434  0.0448 -1.0675
  158SAPE  H15R17641   2.655   3.074   7.245  1.0900  1.0955 -0.7248
  158SAPE  C21617642   2.540   3.209   7.122  0.4855  0.1352 -0.3517
  158SAPE  H16R17643   2.507   3.315   7.122 -2.5918 -0.7075  1.5144
  158SAPE  H16S17644   2.444   3.154   7.117  0.4339  0.2569 -0.6987
  158SAPE  C21717645   2.631   3.160   7.008  0.5008  0.1171 -0.1883
  158SAPE  H17R17646   2.648   3.052   7.026  0.0354  0.2725  1.2550
  158SAPE  H17S17647   2.729   3.211   7.018  2.2871 -3.2368  0.8921
  158SAPE  C21817648   2.560   3.187   6.875 -0.0326  0.5046  0.2413
  158SAPE  H18R17649   2.531   3.294   6.869 -0.6591  0.4579  1.9011
  158SAPE  H18S17650   2.460   3.141   6.863  0.4181 -0.0648 -1.6936
  158SAPE  C21917651   2.646   3.155   6.759 -1.1306  0.6474  0.7441
  158SAPE  H19R17652   2.684   3.051   6.763 -0.3567  0.9364  1.2465
  158SAPE  H19S17653   2.742   3.209   6.760  1.6444 -3.7854  0.6018
  158SAPE  C22017654   2.586   3.172   6.619 -0.1266  0.7028  0.4857
  158SAPE  H20R17655   2.659   3.153   6.537 -1.7579 -0.6342 -0.7537
  158SAPE  H20S17656   2.559   3.279   6.610 -0.3838  0.7063  1.2327
  158SAPE  H20T17657   2.495   3.109   6.609  1.4273 -1.5591 -0.1558
  158SAPE   C3317658   1.554   2.894   6.637 -0.1923  0.3163 -0.4508
  158SAPE   H3X17659   1.565   3.003   6.619  1.1443  0.3775  0.5002
  158SAPE   H3Y17660   1.498   2.893   6.733  0.8234 -1.6077  0.1776
  158SAPE   C3417661   1.474   2.831   6.529  0.1931  0.4216  0.6919
  158SAPE   H4X17662   1.481   2.720   6.531  0.0993  0.4129  0.5806
  158SAPE   H4Y17663   1.504   2.858   6.425  0.6640  0.5549  0.8605
  158SAPE   C3517664   1.319   2.852   6.536 -0.0294 -0.7493 -0.0818
  158SAPE   H5X17665   1.278   2.818   6.439 -0.9115 -0.8586  0.3214
  158SAPE   H5Y17666   1.298   2.958   6.561  0.4410 -0.8436  0.7997
  158SAPE   C3617667   1.266   2.757   6.645  0.8097  0.2021  0.9899
  158SAPE   H6X17668   1.157   2.775   6.656  0.8881  0.3831  1.4768
  158SAPE   H6Y17669   1.312   2.789   6.741 -1.6995  2.2104  1.6537
  158SAPE   C3717670   1.264   2.604   6.622 -0.0640  1.0199 -0.3040
  158SAPE   H7X17671   1.224   2.582   6.521 -2.8728  1.3626  0.6690
  158SAPE   H7Y17672   1.370   2.569   6.626 -0.2718  0.4389  0.1344
  158SAPE   C3817673   1.189   2.516   6.719  0.6639 -0.3612  0.7357
  158SAPE   H8X17674   1.199   2.417   6.670 -1.3048 -1.0767  1.6855
  158SAPE   H8Y17675   1.087   2.561   6.721  0.9695  0.5434 -1.3547
  158SAPE   C3917676   1.247   2.519   6.861 -0.1446 -0.6767  0.5554
  158SAPE   H9X17677   1.256   2.624   6.895  0.0184  0.4571 -2.6132
  158SAPE   H9Y17678   1.351   2.480   6.862  1.1730  2.5181  1.1140
  158SAPE  C31017679   1.173   2.427   6.966 -0.7961  0.1265 -0.1724
  158SAPE  H10X17680   1.168   2.326   6.921  0.5788  0.1371 -0.4017
  158SAPE  H10Y17681   1.070   2.467   6.981 -0.4555  1.6507 -1.6091
  158SAPE  C31117682   1.245   2.430   7.104  0.4548  0.0512  0.3637
  158SAPE  H11X17683   1.242   2.536   7.137  1.1911  0.1930 -0.0228
  158SAPE  H11Y17684   1.350   2.394   7.100  0.6968  0.8497 -0.9365
  158SAPE  C31217685   1.165   2.368   7.214 -0.0884  0.5342 -0.2220
  158SAPE  H12X17686   1.154   2.259   7.196  0.6940  0.6506 -1.6111
  158SAPE  H12Y17687   1.065   2.415   7.225 -0.6472 -1.0038  2.2031
  158SAPE  C31317688   1.244   2.388   7.344  0.2236 -0.5156  0.4472
  158SAPE  H13X17689   1.276   2.494   7.350 -1.0061 -0.1592  1.2451
  158SAPE  H13Y17690   1.340   2.333   7.341 -0.4306 -1.7452  1.0892
  158SAPE  C31417691   1.161   2.338   7.459 -0.6043 -0.3946 -0.5688
  158SAPE  H14X17692   1.135   2.234   7.430  0.8988 -1.4715  1.6484
  158SAPE  H14Y17693   1.067   2.396   7.462 -0.6549 -0.2147 -3.2557
  158SAPE  C31517694   1.241   2.329   7.593 -0.7263 -0.7563  0.2992
  158SAPE  H15X17695   1.303   2.420   7.603  0.7378 -1.6281 -0.5134
  158SAPE  H15Y17696   1.315   2.248   7.574 -0.8949 -1.0026  0.6787
  158SAPE  C31617697   1.149   2.299   7.713 -0.3904  0.3634 -0.3388
  158SAPE  H16X17698   1.148   2.188   7.717 -0.2745  0.3856  0.5880
  158SAPE  H16Y17699   1.048   2.342   7.696 -0.8494 -1.0969 -1.5783
  158SAPE  C31717700   1.212   2.350   7.841  0.4479  0.4331 -0.2805
  158SAPE  H17X17701   1.194   2.459   7.843 -1.3823  0.2036  3.1864
  158SAPE  H17Y17702   1.319   2.322   7.834  0.1605 -1.5833  1.9432
  158SAPE  C31817703   1.155   2.281   7.965 -0.5123  0.0245 -0.1721
  158SAPE  H18X17704   1.191   2.330   8.058 -0.3933 -1.6431  0.7143
  158SAPE  H18Y17705   1.189   2.175   7.960  0.8236  0.4245 -0.1503
  158SAPE  H18Z17706   1.046   2.279   7.945 -0.4839 -0.3829 -0.3032
  159SAPE     N17707   2.539   5.892   6.115  1.0487  0.2820  0.0879
  159SAPE   HN117708   2.517   5.943   6.027 -2.4161 -1.0068  0.0585
  159SAPE   HN217709   2.593   5.808   6.085 -2.5108 -1.1778 -3.0456
  159SAPE   HN317710   2.448   5.867   6.159 -0.5941  2.0732 -2.0308
  159SAPE   C1217711   2.623   5.953   6.222 -0.2779 -0.6139  0.7355
  159SAPE  H12A17712   2.643   5.867   6.290  1.7844  0.0652  1.0379
  159SAPE  H12B17713   2.560   6.036   6.262 -0.4057 -1.4934  2.4362
  159SAPE   C1117714   2.747   6.021   6.166 -0.9321  0.6133 -0.0540
  159SAPE  H11A17715   2.792   5.942   6.101 -1.7132  0.1812 -0.0805
  159SAPE  H11B17716   2.811   6.061   6.247 -0.5395 -0.5428  0.2259
  159SAPE     P17717   2.783   6.254   6.048 -0.3433  0.4826 -0.0740
  159SAPE   O1317718   2.894   6.277   6.148 -0.3178  0.2756  0.0125
  159SAPE   O1417719   2.833   6.231   5.910 -0.1258  0.2539 -0.3826
  159SAPE   O1217720   2.697   6.129   6.088  0.3518 -0.7648 -0.3224
  159SAPE   O1117721   2.683   6.374   6.039  0.5457  0.3865 -0.2133
  159SAPE    C117722   2.556   6.377   6.108 -0.2032 -0.3265  0.3520
  159SAPE    HA17723   2.484   6.440   6.052 -1.9495 -1.7985  0.8760
  159SAPE    HB17724   2.506   6.279   6.110 -1.2974  0.1317 -1.9840
  159SAPE    C217725   2.565   6.431   6.255  0.5626 -0.8975 -0.7448
  159SAPE    HS17726   2.623   6.525   6.247  0.7029 -1.0544 -1.6888
  159SAPE   O2117727   2.630   6.326   6.329 -0.1315 -0.4832 -0.5255
  159SAPE   C2117728   2.704   6.375   6.426  0.0769  0.1323 -0.4885
  159SAPE   O2217729   2.723   6.492   6.454  0.2842  0.2872  0.1078
  159SAPE   C2217730   2.735   6.262   6.523  0.2446  0.4731 -0.0209
  159SAPE   H2R17731   2.645   6.204   6.551 -0.5342  2.3200  1.4936
  159SAPE   H2S17732   2.809   6.198   6.469  0.2680  0.2685  0.2530
  159SAPE    C317733   2.424   6.456   6.312  0.2682  0.3588  0.1134
  159SAPE    HX17734   2.373   6.359   6.293  1.4713 -0.9984  3.0750
  159SAPE    HY17735   2.373   6.533   6.251 -0.2161  0.3541  0.5104
  159SAPE   O3117736   2.426   6.494   6.451 -0.0033 -0.6305  0.0676
  159SAPE   C3117737   2.305   6.531   6.497 -0.3103 -0.4432  0.7302
  159SAPE   O3217738   2.202   6.502   6.445  0.3201 -0.0446  0.0618
  159SAPE   C3217739   2.318   6.598   6.632 -0.2647  0.2745 -1.1814
  159SAPE   H2X17740   2.347   6.705   6.623 -0.7556  1.0900  3.9469
  159SAPE   H2Y17741   2.397   6.539   6.683 -0.8222 -0.0619 -0.6931
  159SAPE   C2317742   2.809   6.309   6.654 -0.4017  0.2313 -0.0985
  159SAPE   H3R17743   2.882   6.387   6.623  1.0036 -0.9014  0.2515
  159SAPE   H3S17744   2.859   6.223   6.703 -0.9777  1.2919  2.5523
  159SAPE   C2417745   2.717   6.354   6.769  0.2958 -0.4538  0.5728
  159SAPE   H4R17746   2.649   6.431   6.726 -1.3260 -2.6242 -0.9806
  159SAPE   H4S17747   2.788   6.408   6.834 -0.4887  0.2934  0.8322
  159SAPE   C2517748   2.650   6.242   6.837  0.1453  0.5607  0.2942
  159SAPE   H5R17749   2.619   6.164   6.766  2.2357 -1.2868  1.2864
  159SAPE   C2617750   2.634   6.219   6.966 -0.6501  0.3263 -0.6366
  159SAPE   H6R17751   2.575   6.133   7.001 -1.4150  0.6587 -1.0827
  159SAPE   C2717752   2.685   6.311   7.078  0.7382  0.2132 -0.1487
  159SAPE   H7R17753   2.623   6.310   7.170  2.0398  1.4811  0.7773
  159SAPE   H7S17754   2.683   6.415   7.038  1.0769 -0.5537 -2.3267
  159SAPE   C2817755   2.824   6.278   7.126  0.4142  0.1840 -0.0690
  159SAPE   H8R17756   2.891   6.269   7.039  0.1000  3.4153 -0.7692
  159SAPE   C2917757   2.876   6.263   7.253  0.0198 -0.8148 -0.6320
  159SAPE   H9R17758   2.983   6.238   7.264  0.0011 -0.1255  1.6045
  159SAPE  C21017759   2.799   6.272   7.380 -0.3534  0.2178 -0.0395
  159SAPE  H10R17760   2.842   6.217   7.466  0.0068 -1.7564 -1.4308
  159SAPE  H10S17761   2.701   6.220   7.368 -0.1443 -0.8668  2.3642
  159SAPE  C21117762   2.774   6.415   7.418 -0.2663 -1.1303  0.3533
  159SAPE  H11R17763   2.747   6.474   7.330 -0.9655 -3.0630 -0.7927
  159SAPE  C21217764   2.774   6.477   7.545 -0.4112  0.1664  0.1362
  159SAPE  H12R17765   2.747   6.581   7.570 -0.0452  0.0861  0.8716
  159SAPE  C21317766   2.817   6.414   7.671  0.1069  0.4365 -0.3632
  159SAPE  H13R17767   2.882   6.325   7.658  4.0106  2.2662  3.8269
  159SAPE  H13S17768   2.727   6.384   7.730 -0.9032 -0.9490 -2.4741
  159SAPE  C21417769   2.910   6.507   7.755  0.0508  0.2676  0.5130
  159SAPE  H14R17770   2.973   6.576   7.698  1.7383 -0.9645  0.8213
  159SAPE  C21517771   2.926   6.503   7.894  0.0029 -0.1215  0.3556
  159SAPE  H15R17772   2.991   6.575   7.946 -1.8587  0.2719  2.3000
  159SAPE  C21617773   2.865   6.406   7.987 -0.5296  0.4717  0.3626
  159SAPE  H16R17774   2.940   6.334   8.025  0.5320 -0.2086 -2.7457
  159SAPE  H16S17775   2.788   6.339   7.942 -1.6688 -0.9228  3.9942
  159SAPE  C21717776   2.784   6.473   8.100  0.4121 -0.1797 -0.3562
  159SAPE  H17R17777   2.695   6.408   8.116  1.3143 -1.5211 -0.5394
  159SAPE  H17S17778   2.738   6.566   8.061  0.5774  0.6343  1.3178
  159SAPE  C21817779   2.855   6.500   8.233  1.2509  0.9322 -0.3256
  159SAPE  H18R17780   2.945   6.563   8.213  1.6752  0.2672 -0.5195
  159SAPE  H18S17781   2.891   6.404   8.275 -5.3755 -0.8831  2.3616
  159SAPE  C21917782   2.772   6.566   8.345  0.2120  0.6311 -0.2485
  159SAPE  H19R17783   2.797   6.510   8.438  3.3882 -1.0512 -1.9419
  159SAPE  H19S17784   2.665   6.540   8.329  0.7915 -2.1746 -0.0808
  159SAPE  C22017785   2.786   6.717   8.362  0.7731  0.8490 -0.7950
  159SAPE  H20R17786   2.707   6.756   8.430 -1.1988 -1.2096 -1.7589
  159SAPE  H20S17787   2.778   6.759   8.259 -1.9096  1.0379 -0.5743
  159SAPE  H20T17788   2.879   6.759   8.405 -0.3970  1.2882  1.4606
  159SAPE   C3317789   2.179   6.579   6.701 -1.0194 -0.3571  0.1370
  159SAPE   H3X17790   2.161   6.473   6.729  1.0165 -0.2800  1.9850
  159SAPE   H3Y17791   2.091   6.609   6.640 -1.4582  0.4519  1.1330
  159SAPE   C3417792   2.171   6.661   6.839 -0.0404  0.4994  0.0273
  159SAPE   H4X17793   2.066   6.662   6.876 -0.9604  2.0082 -2.4047
  159SAPE   H4Y17794   2.211   6.764   6.828 -0.1943  0.7681  1.7936
  159SAPE   C3517795   2.257   6.590   6.943  0.0549 -0.2478 -0.3756
  159SAPE   H5X17796   2.363   6.610   6.914  0.4252  0.7855  1.5094
  159SAPE   H5Y17797   2.230   6.483   6.936  0.8651 -0.7200  2.6819
  159SAPE   C3617798   2.217   6.627   7.086 -0.1876 -0.3919  0.6626
  159SAPE   H6X17799   2.106   6.629   7.093 -0.1097  1.5309  2.3227
  159SAPE   H6Y17800   2.258   6.731   7.093 -0.2182 -0.4701  2.7502
  159SAPE   C3717801   2.274   6.549   7.198  0.1983  0.4780 -0.4771
  159SAPE   H7X17802   2.383   6.534   7.183 -0.1828  0.1212 -3.3119
  159SAPE   H7Y17803   2.221   6.454   7.219 -0.2374  1.1836  2.0589
  159SAPE   C3817804   2.268   6.617   7.338 -0.3238 -0.2892 -0.1205
  159SAPE   H8X17805   2.166   6.633   7.380 -0.6073 -1.2639 -0.4174
  159SAPE   H8Y17806   2.315   6.715   7.316  0.0004 -0.0227  1.6314
  159SAPE   C3917807   2.348   6.544   7.446  0.2864 -0.3323 -0.5894
  159SAPE   H9X17808   2.453   6.529   7.412 -0.0803  0.1052 -1.9810
  159SAPE   H9Y17809   2.297   6.447   7.465 -1.5292  0.8252  0.6979
  159SAPE  C31017810   2.348   6.621   7.573 -0.0486 -0.1241 -0.7365
  159SAPE  H10X17811   2.247   6.639   7.613  0.6527  1.4106  0.4393
  159SAPE  H10Y17812   2.392   6.723   7.575 -3.4629  1.5049 -1.9101
  159SAPE  C31117813   2.428   6.543   7.676 -0.1704  0.0476 -0.0833
  159SAPE  H11X17814   2.537   6.537   7.655 -0.5730  0.5756 -2.5972
  159SAPE  H11Y17815   2.393   6.438   7.670  1.3885 -0.4297 -1.4188
  159SAPE  C31217816   2.411   6.608   7.820 -0.6175  0.0548  0.2096
  159SAPE  H12X17817   2.304   6.634   7.833 -0.1020  1.6364  1.5974
  159SAPE  H12Y17818   2.465   6.705   7.820 -0.2039 -0.1722  0.8655
  159SAPE  C31317819   2.470   6.524   7.927  0.8813  0.2038  0.3497
  159SAPE  H13X17820   2.565   6.473   7.899  0.5234 -1.7711  2.4497
  159SAPE  H13Y17821   2.407   6.435   7.944 -0.1779  1.1960  1.8498
  159SAPE  C31417822   2.488   6.602   8.056 -0.1272  0.2408  0.5393
  159SAPE  H14X17823   2.563   6.682   8.036  3.7363 -2.5609  2.4669
  159SAPE  H14Y17824   2.525   6.539   8.140  2.6320  0.4211 -0.4260
  159SAPE  C31517825   2.360   6.668   8.115 -0.0496 -0.8094  0.0156
  159SAPE  H15X17826   2.312   6.726   8.033  0.4429  0.3676  0.5349
  159SAPE  H15Y17827   2.385   6.737   8.198 -3.1244 -1.0199  1.2399
  159SAPE  C31617828   2.260   6.566   8.162  0.3192  0.1886 -0.7418
  159SAPE  H16X17829   2.302   6.516   8.251  1.0209  0.9704 -0.6251
  159SAPE  H16Y17830   2.249   6.502   8.072  0.6819  1.4534 -1.7283
  159SAPE  C31717831   2.124   6.628   8.203  0.2122 -0.4145  0.4480
  159SAPE  H17X17832   2.050   6.552   8.235  0.0754  0.4317  2.2779
  159SAPE  H17Y17833   2.079   6.681   8.116  0.7356  0.7942  0.8808
  159SAPE  C31817834   2.129   6.729   8.320  0.7597 -0.7378 -0.0606
  159SAPE  H18X17835   2.167   6.680   8.413 -0.6602 -2.5086 -0.3647
  159SAPE  H18Y17836   2.024   6.754   8.345  0.2239 -2.9409  0.0704
  159SAPE  H18Z17837   2.196   6.813   8.292 -1.6837  1.8589  1.4138
  160SAPE     N17838   3.697   6.078   6.584  0.4655 -0.0739 -0.8878
  160SAPE   HN117839   3.788   6.029   6.587 -0.0039 -0.9121  0.4801
  160SAPE   HN217840   3.647   6.060   6.495 -0.5006  1.5520 -0.7186
  160SAPE   HN317841   3.714   6.181   6.588  2.2068 -0.3407  2.6415
  160SAPE   C1217842   3.616   6.021   6.690 -0.1977  0.8533 -0.1986
  160SAPE  H12A17843   3.514   6.049   6.657 -0.9180  1.2544  2.1810
  160SAPE  H12B17844   3.651   6.058   6.789 -1.6375 -1.2606  1.1692
  160SAPE   C1117845   3.632   5.864   6.697  0.0583 -0.0192  0.3133
  160SAPE  H11A17846   3.551   5.828   6.764 -2.3394  2.4601 -1.0942
  160SAPE  H11B17847   3.732   5.839   6.740  0.8492 -0.4587 -1.6773
  160SAPE     P17848   3.567   5.662   6.530  0.6121 -0.1309 -0.6504
  160SAPE   O1317849   3.419   5.659   6.553  0.5673  0.4977 -0.7157
  160SAPE   O1417850   3.609   5.637   6.392  1.1298  0.0130  0.4063
  160SAPE   O1217851   3.614   5.807   6.568 -0.2506 -0.6161 -0.1016
  160SAPE   O1117852   3.650   5.580   6.633 -0.0062  0.0960 -0.9365
  160SAPE    C117853   3.604   5.448   6.661 -0.6636  0.1095 -0.1854
  160SAPE    HA17854   3.495   5.435   6.641 -0.1179 -2.0055 -2.1605
  160SAPE    HB17855   3.648   5.378   6.588 -2.6827  0.4987 -1.8866
  160SAPE    C217856   3.643   5.406   6.807  0.6644 -0.5581  0.1008
  160SAPE    HS17857   3.610   5.300   6.817  0.7423 -0.7226 -1.2208
  160SAPE   O2117858   3.583   5.498   6.908  0.0912 -0.0657 -0.3431
  160SAPE   C2117859   3.457   5.470   6.935  0.8817 -0.5055  0.4888
  160SAPE   O2217860   3.393   5.381   6.884 -0.1512 -0.2016 -0.0262
  160SAPE   C2217861   3.394   5.562   7.041 -0.7005  0.5140  0.3911
  160SAPE   H2R17862   3.419   5.662   6.999 -1.2730  0.6327  0.3324
  160SAPE   H2S17863   3.285   5.543   7.042 -0.5010 -0.7684  1.3595
  160SAPE    C317864   3.800   5.398   6.807 -0.5169  0.2779 -0.1473
  160SAPE    HX17865   3.824   5.488   6.746  2.3181 -1.1648 -1.3292
  160SAPE    HY17866   3.835   5.311   6.748 -0.5436  0.4749 -0.4530
  160SAPE   O3117867   3.853   5.399   6.939 -0.1791 -0.0867 -1.4504
  160SAPE   C3117868   3.857   5.286   7.010  0.3128  0.5712  0.2915
  160SAPE   O3217869   3.820   5.178   6.966  0.5499 -0.1915 -0.2067
  160SAPE   C3217870   3.908   5.313   7.147 -0.2631  0.2699 -0.8329
  160SAPE   H2X17871   3.853   5.401   7.188 -0.7071 -0.4599  0.1758
  160SAPE   H2Y17872   4.018   5.332   7.144  0.4955 -2.8826  1.5778
  160SAPE   C2317873   3.467   5.551   7.175 -0.5268  0.5391  0.1302
  160SAPE   H3R17874   3.421   5.627   7.242 -0.1231  2.2352 -1.4416
  160SAPE   H3S17875   3.571   5.590   7.173 -0.3947  0.2107  0.6012
  160SAPE   C2417876   3.448   5.411   7.247  0.0423  0.1642  0.7662
  160SAPE   H4R17877   3.501   5.412   7.345  2.1896  1.7765 -0.3352
  160SAPE   H4S17878   3.499   5.348   7.171 -2.0617  1.5817 -1.9445
  160SAPE   C2517879   3.303   5.361   7.254 -0.0729 -0.5643  0.4158
  160SAPE   H5R17880   3.220   5.434   7.253  0.1678 -0.2931 -1.0819
  160SAPE   C2617881   3.261   5.228   7.249  0.0043  0.4653  0.1200
  160SAPE   H6R17882   3.153   5.217   7.262  0.4073 -0.9166  3.3106
  160SAPE   C2717883   3.339   5.097   7.233  0.7770 -0.0396 -0.7318
  160SAPE   H7R17884   3.327   5.052   7.334 -1.4167  1.2455 -0.3510
  160SAPE   H7S17885   3.447   5.122   7.227  0.2141  2.4879 -1.9424
  160SAPE   C2817886   3.299   5.005   7.122 -0.7836  0.4213  0.4467
  160SAPE   H8R17887   3.370   5.017   7.039 -1.8579  2.4730 -0.2568
  160SAPE   C2917888   3.196   4.915   7.115 -0.1301 -0.5856  0.6802
  160SAPE   H9R17889   3.168   4.869   7.019 -0.0666 -1.4106  1.0520
  160SAPE  C21017890   3.096   4.904   7.222  0.2745  0.2246  0.1514
  160SAPE  H10R17891   3.098   4.983   7.300 -0.9458  0.8768 -0.4638
  160SAPE  H10S17892   3.127   4.810   7.274  3.5120  0.2200 -1.5126
  160SAPE  C21117893   2.955   4.899   7.176  0.0600  0.0611 -0.0798
  160SAPE  H11R17894   2.923   4.977   7.104 -1.1298  0.2025  0.5740
  160SAPE  C21217895   2.863   4.800   7.220 -0.5242 -0.0863  0.2722
  160SAPE  H12R17896   2.759   4.803   7.186  0.4977  2.4000 -3.1210
  160SAPE  C21317897   2.895   4.675   7.301  0.4665  0.6743  0.3768
  160SAPE  H13R17898   2.965   4.618   7.235 -1.4706 -0.4375 -0.8099
  160SAPE  H13S17899   2.809   4.606   7.302  1.0127 -0.0303 -0.1992
  160SAPE  C21417900   2.949   4.687   7.441  0.3876 -0.3125 -0.3993
  160SAPE  H14R17901   3.059   4.682   7.446  0.5686  2.8278  0.5826
  160SAPE  C21517902   2.879   4.708   7.553 -0.2232 -0.3793 -0.5959
  160SAPE  H15R17903   2.931   4.694   7.649 -1.4112  0.1676  0.1493
  160SAPE  C21617904   2.732   4.726   7.573  0.6272  0.2703 -0.1656
  160SAPE  H16R17905   2.680   4.658   7.502 -0.0913 -0.2541  0.8540
  160SAPE  H16S17906   2.704   4.832   7.556  1.7188  0.6972  0.5911
  160SAPE  C21717907   2.694   4.687   7.715 -0.0768 -0.0968  0.1709
  160SAPE  H17R17908   2.719   4.585   7.751  0.3641  0.2902  0.9919
  160SAPE  H17S17909   2.583   4.692   7.710 -0.0067  2.5225 -0.3636
  160SAPE  C21817910   2.725   4.808   7.813  0.0074 -0.2883  0.2509
  160SAPE  H18R17911   2.679   4.902   7.777 -2.0009 -0.1633  2.8974
  160SAPE  H18S17912   2.836   4.819   7.815 -0.0085  2.1010 -3.3012
  160SAPE  C21917913   2.647   4.790   7.948 -0.8253  0.0218  0.1992
  160SAPE  H19R17914   2.717   4.723   8.002  1.5814  1.6566 -0.6932
  160SAPE  H19S17915   2.550   4.742   7.924  0.1063 -2.2258  0.6556
  160SAPE  C22017916   2.635   4.913   8.039  0.3910  0.2905  0.1903
  160SAPE  H20R17917   2.731   4.960   8.070  2.2684 -2.3816 -1.1587
  160SAPE  H20S17918   2.578   4.898   8.133  2.2595 -0.4892  1.2696
  160SAPE  H20T17919   2.580   4.986   7.977  0.9975  0.3134 -0.3332
  160SAPE   C3317920   3.895   5.183   7.228 -0.8501 -0.6839  0.6581
  160SAPE   H3X17921   3.929   5.093   7.173  0.3516  0.0659  0.1363
  160SAPE   H3Y17922   3.789   5.173   7.259 -0.4644 -1.8864  1.7181
  160SAPE   C3417923   3.962   5.201   7.366  0.4156  0.0560  0.4437
  160SAPE   H4X17924   4.068   5.230   7.352  0.7505 -1.1864  0.3060
  160SAPE   H4Y17925   3.963   5.099   7.410  2.2169  0.6872  2.0157
  160SAPE   C3517926   3.879   5.291   7.463  0.9320  0.5457 -0.0174
  160SAPE   H5X17927   3.902   5.394   7.429 -2.6939  1.6831  0.4605
  160SAPE   H5Y17928   3.936   5.275   7.557 -2.2817 -1.7332  1.7393
  160SAPE   C3617929   3.726   5.262   7.487 -0.9397 -0.4385 -1.1747
  160SAPE   H6X17930   3.709   5.152   7.483 -0.7364 -0.5547  0.3418
  160SAPE   H6Y17931   3.657   5.317   7.420 -0.1486  0.1800 -1.4865
  160SAPE   C3717932   3.683   5.283   7.638 -0.2366 -0.4325  0.5596
  160SAPE   H7X17933   3.741   5.217   7.705  1.7380 -0.5689 -1.1776
  160SAPE   H7Y17934   3.578   5.248   7.640  0.0797 -1.3849  0.9332
  160SAPE   C3817935   3.684   5.426   7.682 -0.1631  0.1961 -0.2348
  160SAPE   H8X17936   3.607   5.479   7.622 -0.0185  0.2686 -0.3593
  160SAPE   H8Y17937   3.777   5.478   7.650 -0.5718  0.6973 -0.6173
  160SAPE   C3917938   3.663   5.443   7.827 -0.1111 -0.5297  0.0903
  160SAPE   H9X17939   3.560   5.408   7.851  0.3910 -0.5723  2.3792
  160SAPE   H9Y17940   3.676   5.552   7.843  0.1373 -0.5508  0.0349
  160SAPE  C31017941   3.755   5.376   7.921 -0.6228 -0.4544  0.1294
  160SAPE  H10X17942   3.745   5.266   7.913 -2.8312 -0.3354  0.5870
  160SAPE  H10Y17943   3.712   5.386   8.023  0.5381 -1.1567  0.7120
  160SAPE  C31117944   3.900   5.426   7.935 -0.0737  0.0748 -0.4955
  160SAPE  H11X17945   3.894   5.535   7.955 -0.5360 -0.4223  2.5770
  160SAPE  H11Y17946   3.954   5.424   7.838  0.3154  3.0902 -0.4580
  160SAPE  C31217947   3.990   5.363   8.039  0.2457 -0.4447 -0.1961
  160SAPE  H12X17948   4.024   5.269   7.992  2.3547  0.5078 -0.6990
  160SAPE  H12Y17949   3.931   5.351   8.132  1.5078 -1.4091  0.5101
  160SAPE  C31317950   4.122   5.438   8.069  0.2193 -0.4739  0.0873
  160SAPE  H13X17951   4.102   5.542   8.104  1.9636  0.4826 -1.5242
  160SAPE  H13Y17952   4.180   5.462   7.977  1.2622  1.7407  1.2527
  160SAPE  C31417953   4.214   5.366   8.166 -0.0920  0.0165  0.0262
  160SAPE  H14X17954   4.261   5.281   8.113 -0.9770  0.5182 -1.6168
  160SAPE  H14Y17955   4.153   5.312   8.243 -0.6211  0.2002 -0.2604
  160SAPE  C31517956   4.322   5.454   8.230  0.0104 -0.0033 -0.0561
  160SAPE  H15X17957   4.381   5.403   8.309 -0.1746  0.4750  0.4010
  160SAPE  H15Y17958   4.279   5.545   8.278  1.3198  1.0654 -0.8392
  160SAPE  C31617959   4.421   5.512   8.128 -0.4107 -0.8284  0.0026
  160SAPE  H16X17960   4.498   5.573   8.180 -0.4149 -0.4378 -0.4515
  160SAPE  H16Y17961   4.358   5.563   8.053 -0.1488 -1.3287 -0.5728
  160SAPE  C31717962   4.496   5.397   8.052  0.0035  0.9018  0.3197
  160SAPE  H17X17963   4.424   5.347   7.984 -0.9569  0.1044  1.8643
  160SAPE  H17Y17964   4.542   5.323   8.121 -1.3947 -0.3058  0.0079
  160SAPE  C31817965   4.595   5.444   7.943 -0.4784 -0.4933 -0.1399
  160SAPE  H18X17966   4.662   5.512   8.001  0.6096  0.0988 -2.0096
  160SAPE  H18Y17967   4.542   5.504   7.867 -1.8560 -0.4202  0.8358
  160SAPE  H18Z17968   4.658   5.357   7.912  0.7454 -1.0859  3.4272
  161SOPE     N17969   2.263   0.251  10.950  0.2461 -0.0362  0.7485
  161SOPE   HN117970   2.322   0.262  11.035  1.2848  1.9140 -0.1746
  161SOPE   HN217971   2.264   0.337  10.892  2.2120 -1.0211 -0.7964
  161SOPE   HN317972   2.167   0.232  10.988 -0.2626  1.3407  0.1950
  161SOPE   C1217973   2.320   0.152  10.849 -0.3361 -0.4368 -0.3985
  161SOPE  H12A17974   2.336   0.054  10.898  1.3416 -0.7666 -1.5083
  161SOPE  H12B17975   2.422   0.180  10.814 -0.5461 -0.9322 -1.4493
  161SOPE   C1117976   2.228   0.130  10.733  0.4138 -1.0391  0.1103
  161SOPE  H11A17977   2.279   0.103  10.638 -1.1113 -0.3876 -0.9477
  161SOPE  H11B17978   2.171   0.225  10.733  2.6201  0.4072  2.1542
  161SOPE     P17979   1.996  -0.001  10.688 -0.0638 -0.3600  0.3970
  161SOPE   O1317980   1.923   0.127  10.696 -0.5236 -0.0874 -0.4716
  161SOPE   O1417981   1.926  -0.116  10.748 -0.2041 -0.3177  0.3248
  161SOPE   O1217982   2.145   0.015  10.753 -0.3388  0.0079  0.4866
  161SOPE   O1117983   2.031  -0.031  10.537  0.1662 -0.0767 -0.1572
  161SOPE    C117984   2.102  -0.152  10.499 -0.1157 -0.5934 -0.8230
  161SOPE    HA17985   2.118  -0.228  10.578  2.7179 -1.9406 -2.5127
  161SOPE    HB17986   2.207  -0.123  10.473  0.2792 -1.1703  0.0861
  161SOPE    C217987   2.040  -0.223  10.370  0.2506  0.3917 -0.9851
  161SOPE    HS17988   2.095  -0.317  10.353  1.4183  1.3198 -2.6305
  161SOPE   O2117989   2.043  -0.138  10.260  0.1984  0.2701 -0.4952
  161SOPE   C2117990   2.065  -0.210  10.146  0.9712  0.1483  0.3789
  161SOPE   O2217991   2.107  -0.327  10.140 -0.0027  0.1101  0.0388
  161SOPE   C2217992   2.042  -0.134  10.024  0.7047 -0.4786  0.3671
  161SOPE   H2R17993   2.133  -0.083   9.987 -0.7044  1.8393 -0.1618
  161SOPE   H2S17994   1.968  -0.053  10.043  1.9575  0.3914  1.7190
  161SOPE    C317995   1.880  -0.264  10.391  0.0477  0.0532 -0.0440
  161SOPE    HX17996   1.839  -0.162  10.404  0.2981  0.0506  0.8035
  161SOPE    HY17997   1.866  -0.327  10.481  0.0776  0.0659 -0.0300
  161SOPE   O3117998   1.820  -0.328  10.274  0.1395 -0.3738 -0.1304
  161SOPE   C3117999   1.824  -0.458  10.267 -0.1836  0.2738  0.2639
  161SOPE   O3218000   1.885  -0.536  10.338  0.2069  0.6691  0.3546
  161SOPE   C3218001   1.742  -0.513  10.150 -0.2480  0.3289 -0.1757
  161SOPE   H2X18002   1.697  -0.428  10.093  1.2299  0.5504 -1.0565
  161SOPE   H2Y18003   1.669  -0.586  10.191  1.5693 -0.5823  1.5702
  161SOPE   C2318004   2.011  -0.233   9.908 -0.0806 -0.2128  0.4405
  161SOPE   H3R18005   1.932  -0.309   9.925  0.3287 -0.9354 -0.7997
  161SOPE   H3S18006   2.092  -0.298   9.870 -0.5504  0.1371 -1.2167
  161SOPE   C2418007   1.966  -0.152   9.786  0.4622  0.5424  1.0779
  161SOPE   H4R18008   1.870  -0.097   9.797 -1.1332 -1.8471 -0.0953
  161SOPE   H4S18009   2.033  -0.068   9.759  1.2092 -0.2498  0.4155
  161SOPE   C2518010   1.955  -0.252   9.666  0.3954  0.0100  0.0795
  161SOPE   H5R18011   2.053  -0.297   9.638 -0.2490 -1.2828 -0.1916
  161SOPE   H5S18012   1.896  -0.335   9.711  1.5941  0.2728  2.3077
  161SOPE   C2618013   1.894  -0.198   9.539 -0.2097 -0.3258 -0.3376
  161SOPE   H6R18014   1.789  -0.168   9.559  0.2414  0.5762  0.8043
  161SOPE   H6S18015   1.955  -0.112   9.505 -2.6267  2.1126  1.0725
  161SOPE   C2718016   1.903  -0.310   9.432  0.0650 -0.7661 -1.0287
  161SOPE   H7R18017   2.012  -0.329   9.421  0.5221  1.7038 -1.3533
  161SOPE   H7S18018   1.836  -0.388   9.475  0.3070  0.4444  1.7110
  161SOPE   C2818019   1.843  -0.263   9.299  0.0779  0.2821  0.3714
  161SOPE   H8R18020   1.734  -0.248   9.310 -0.1100 -1.3304  0.9187
  161SOPE   H8S18021   1.908  -0.177   9.270  0.5598 -0.0467  0.4593
  161SOPE   C2918022   1.853  -0.383   9.209 -0.3037 -0.7079 -0.1261
  161SOPE   H9118023   1.794  -0.466   9.250 -1.5084  1.0176  1.8836
  161SOPE  C21018024   1.932  -0.395   9.094 -0.7925  0.4093  0.3094
  161SOPE  H10118025   1.944  -0.498   9.057  0.0007  0.4272  0.4873
  161SOPE  C21118026   2.008  -0.283   9.026 -0.0780  0.0710  0.1983
  161SOPE  H11R18027   2.116  -0.308   9.011 -0.2064 -1.0797  1.0644
  161SOPE  H11S18028   1.994  -0.185   9.078  0.3457 -0.6609  1.7655
  161SOPE  C21218029   1.953  -0.271   8.881  0.3558 -0.1671  0.1010
  161SOPE  H12R18030   1.990  -0.174   8.840  0.9457  0.5520  2.2180
  161SOPE  H12S18031   1.843  -0.261   8.887  0.5783  2.4303  1.1510
  161SOPE  C21318032   2.004  -0.382   8.782  0.3582  0.5940 -0.9793
  161SOPE  H13R18033   1.949  -0.477   8.792  0.9486  0.4728  1.9167
  161SOPE  H13S18034   2.112  -0.406   8.792  0.6889  2.4030  0.4659
  161SOPE  C21418035   1.991  -0.339   8.634 -0.5942 -0.0242  0.7564
  161SOPE  H14R18036   2.086  -0.285   8.614 -1.3004  0.1013 -2.9869
  161SOPE  H14S18037   1.919  -0.262   8.601  1.4402  0.0749 -4.2763
  161SOPE  C21518038   1.959  -0.454   8.537 -0.7444 -0.3650 -0.5150
  161SOPE  H15R18039   1.934  -0.414   8.437 -1.8471  0.9328  0.2451
  161SOPE  H15S18040   1.868  -0.505   8.574 -0.8021  1.8630  2.8510
  161SOPE  C21618041   2.080  -0.545   8.510  0.0793  0.3609  0.1492
  161SOPE  H16R18042   2.115  -0.579   8.610  0.3036 -1.4911 -0.5230
  161SOPE  H16S18043   2.156  -0.476   8.469  1.7978 -1.8098 -0.5147
  161SOPE  C21718044   2.058  -0.658   8.413 -0.1369 -0.1055 -0.1241
  161SOPE  H17R18045   1.973  -0.721   8.448 -1.0746  0.0040 -2.0533
  161SOPE  H17S18046   2.142  -0.731   8.413  0.1607  0.2259  0.6825
  161SOPE  C21818047   2.021  -0.636   8.263 -0.6296 -0.3080  0.2113
  161SOPE  H18R18048   2.109  -0.582   8.222  0.5234 -1.8629  0.5605
  161SOPE  H18S18049   1.931  -0.570   8.255  1.3453  2.3554 -2.6404
  161SOPE  H18T18050   2.001  -0.732   8.212 -3.3476 -0.6313  1.6580
  161SOPE   C3318051   1.824  -0.586  10.046  0.3646  0.0392  0.3688
  161SOPE   H3X18052   1.864  -0.683  10.084  0.2851  0.0480  0.4750
  161SOPE   H3Y18053   1.912  -0.525  10.014  1.0756 -0.9703  0.3379
  161SOPE   C3418054   1.728  -0.637   9.934 -0.7862  0.0097 -0.2894
  161SOPE   H4X18055   1.668  -0.555   9.889 -0.1288 -1.1158 -3.4483
  161SOPE   H4Y18056   1.658  -0.719   9.962 -0.0098  0.0737  2.1430
  161SOPE   C3518057   1.803  -0.683   9.801  0.5318 -0.0800  0.0795
  161SOPE   H5X18058   1.875  -0.763   9.827  2.9928  2.0773  0.2479
  161SOPE   H5Y18059   1.868  -0.605   9.755  1.4203 -0.7406  0.1955
  161SOPE   C3618060   1.703  -0.738   9.695 -0.4966 -0.0825 -0.3906
  161SOPE   H6X18061   1.636  -0.654   9.668 -1.6341 -0.5593  0.8361
  161SOPE   H6Y18062   1.646  -0.822   9.741  1.1672 -2.4495 -2.3860
  161SOPE   C3718063   1.788  -0.777   9.569 -0.4355  0.1366 -0.3812
  161SOPE   H7X18064   1.831  -0.877   9.591 -0.8099 -0.1739 -1.0487
  161SOPE   H7Y18065   1.866  -0.698   9.562 -0.6129  0.5416  1.5023
  161SOPE   C3818066   1.704  -0.790   9.440  0.2451 -0.3619  0.1032
  161SOPE   H8X18067   1.637  -0.703   9.422  0.1268 -0.7171 -1.2648
  161SOPE   H8Y18068   1.633  -0.874   9.459  1.8262 -2.0670 -1.1381
  161SOPE   C3918069   1.790  -0.808   9.308  0.1962  0.0930 -0.2052
  161SOPE   H9X18070   1.870  -0.885   9.313  0.2498  0.2154  1.1971
  161SOPE   H9Y18071   1.847  -0.713   9.308 -0.3602  0.4474  0.7499
  161SOPE  C31018072   1.698  -0.837   9.191  0.9366 -0.7198 -0.2671
  161SOPE  H10X18073   1.619  -0.758   9.190  1.6545  0.0205  0.1804
  161SOPE  H10Y18074   1.647  -0.935   9.206  1.1319 -0.6332  1.1573
  161SOPE  C31118075   1.778  -0.847   9.061  0.1736 -0.7915  0.4758
  161SOPE  H11X18076   1.848  -0.933   9.057  0.4219 -0.6534  1.5394
  161SOPE  H11Y18077   1.839  -0.756   9.044  0.3453 -1.2435 -1.6234
  161SOPE  C31218078   1.671  -0.859   8.951 -1.1138  0.4271 -0.1255
  161SOPE  H12X18079   1.583  -0.794   8.969 -0.0310  1.5781  1.2086
  161SOPE  H12Y18080   1.634  -0.964   8.954 -1.6675  0.6219  0.0551
  161SOPE  C31318081   1.734  -0.834   8.810 -0.5939  0.4103  0.2974
  161SOPE  H13X18082   1.843  -0.856   8.816 -1.1902 -2.8662  0.5366
  161SOPE  H13Y18083   1.723  -0.725   8.792  1.0728  0.4935 -0.3962
  161SOPE  C31418084   1.660  -0.898   8.686 -0.9949 -0.7289  0.0507
  161SOPE  H14X18085   1.552  -0.874   8.683 -0.3485  2.7018 -1.0164
  161SOPE  H14Y18086   1.663  -1.009   8.690  0.9436 -0.7738 -1.2213
  161SOPE  C31518087   1.720  -0.842   8.550  0.7636  0.0783 -0.1508
  161SOPE  H15X18088   1.830  -0.852   8.563  0.8871  0.6495 -0.6976
  161SOPE  H15Y18089   1.669  -0.744   8.536 -2.7224 -1.7284 -1.1647
  161SOPE  C31618090   1.672  -0.929   8.438 -0.1882 -0.9050  0.4708
  161SOPE  H16X18091   1.561  -0.929   8.437 -0.2157 -2.3622  0.3604
  161SOPE  H16Y18092   1.697  -1.037   8.447 -3.5488 -1.8839 -0.2669
  161SOPE  C31718093   1.716  -0.898   8.298  0.8028 -0.5137  0.8219
  161SOPE  H17X18094   1.661  -0.965   8.228 -0.1631  1.4220 -0.3604
  161SOPE  H17Y18095   1.823  -0.929   8.298  0.7533 -0.6860  0.6324
  161SOPE  C31818096   1.693  -0.756   8.249  0.5048 -0.6627  0.6302
  161SOPE  H18X18097   1.733  -0.676   8.314  0.5421 -1.9277  2.2436
  161SOPE  H18Y18098   1.584  -0.742   8.264  0.3054 -1.6374  0.1941
  161SOPE  H18Z18099   1.724  -0.735   8.144 -0.9409 -0.6193  0.1827
  162SOPE     N18100   6.421   5.452  10.968 -0.0334 -0.7313 -0.3338
  162SOPE   HN118101   6.409   5.526  10.896  1.0060  0.5423  0.7506
  162SOPE   HN218102   6.499   5.479  11.031 -0.8640  0.8506  0.0872
  162SOPE   HN318103   6.447   5.367  10.915  1.2995 -0.2618 -0.4596
  162SOPE   C1218104   6.304   5.431  11.053  0.4979 -0.2493 -0.0958
  162SOPE  H12A18105   6.312   5.511  11.129 -1.9599 -1.3113  1.4319
  162SOPE  H12B18106   6.317   5.333  11.104 -0.4793 -0.7662 -0.7899
  162SOPE   C1118107   6.177   5.437  10.972  0.1926  0.4168  0.7295
  162SOPE  H11A18108   6.171   5.524  10.904  2.6332 -0.4504 -0.7431
  162SOPE  H11B18109   6.090   5.457  11.038 -1.3306  1.5932 -1.5153
  162SOPE     P18110   6.079   5.316  10.771  0.0597 -0.1901 -0.7017
  162SOPE   O1318111   6.121   5.427  10.690  0.2526 -0.9112  0.2303
  162SOPE   O1418112   5.928   5.316  10.798 -0.5557 -0.2871  0.5475
  162SOPE   O1218113   6.155   5.314  10.908 -0.1091 -0.5318 -0.4272
  162SOPE   O1118114   6.103   5.175  10.703 -0.1177  0.1647 -0.2683
  162SOPE    C118115   6.202   5.181  10.599  0.4418 -0.1643 -0.1705
  162SOPE    HA18116   6.266   5.090  10.596  2.5837  1.1061  2.3937
  162SOPE    HB18117   6.285   5.251  10.623 -0.2025  1.2202 -1.7677
  162SOPE    C218118   6.151   5.214  10.455 -0.6047  0.3670 -0.1929
  162SOPE    HS18119   6.247   5.188  10.405  0.4638  1.3268  1.2797
  162SOPE   O2118120   6.124   5.353  10.439  0.1907 -0.1990  0.5582
  162SOPE   C2118121   6.186   5.416  10.341  0.8502  0.4614  0.0973
  162SOPE   O2218122   6.263   5.373  10.262 -0.1148 -0.7172 -0.6908
  162SOPE   C2218123   6.127   5.557  10.336 -0.3741 -0.0770  0.8715
  162SOPE   H2R18124   6.134   5.607  10.435 -0.4353 -0.4466  1.0646
  162SOPE   H2S18125   6.019   5.535  10.319 -0.2452  0.7255 -1.3878
  162SOPE    C318126   6.035   5.124  10.415 -0.4997 -0.2361  0.2142
  162SOPE    HX18127   5.942   5.133  10.475 -0.6919 -0.7719  0.0082
  162SOPE    HY18128   6.060   5.021  10.448  0.3233 -0.2113 -0.3049
  162SOPE   O3118129   6.018   5.121  10.268 -0.3647  0.3056 -0.1092
  162SOPE   C3118130   5.943   5.206  10.206  0.1474 -0.5392 -0.7493
  162SOPE   O3218131   5.895   5.311  10.252 -0.0806  0.0703  0.1026
  162SOPE   C3218132   5.934   5.165  10.062 -0.6106 -0.1639  0.3980
  162SOPE   H2X18133   5.838   5.120  10.029 -0.9818  0.1017  1.0774
  162SOPE   H2Y18134   6.013   5.089  10.043  0.0749  0.2265  1.5486
  162SOPE   C2318135   6.185   5.650  10.229  0.3706 -1.1557  0.2656
  162SOPE   H3R18136   6.295   5.643  10.221  0.4625  0.2351  0.0498
  162SOPE   H3S18137   6.157   5.756  10.247 -0.0940 -1.1763 -0.2846
  162SOPE   C2418138   6.126   5.628  10.090  0.1955  0.5542 -0.6076
  162SOPE   H4R18139   6.186   5.542  10.053 -0.4420  0.3537 -1.1973
  162SOPE   H4S18140   6.018   5.604  10.100  0.4118 -1.0170 -1.6951
  162SOPE   C2518141   6.150   5.743   9.990  1.2778  0.0677 -0.1197
  162SOPE   H5R18142   6.063   5.810  10.008  0.4365 -0.8712 -0.5771
  162SOPE   H5S18143   6.243   5.802  10.005  0.6982  0.6251  1.4975
  162SOPE   C2618144   6.141   5.699   9.842 -0.1195  0.2425 -0.0302
  162SOPE   H6R18145   6.061   5.623   9.830 -1.1958  1.2603  0.5465
  162SOPE   H6S18146   6.121   5.788   9.780 -1.1608  0.8825  1.1898
  162SOPE   C2718147   6.282   5.640   9.806  0.3788 -1.1645  0.2260
  162SOPE   H7R18148   6.371   5.692   9.849  0.4349 -0.8653 -0.2395
  162SOPE   H7S18149   6.270   5.541   9.853  0.4176 -1.8804 -1.2249
  162SOPE   C2818150   6.310   5.630   9.659 -0.1658  0.8325  0.5398
  162SOPE   H8R18151   6.385   5.548   9.655 -0.7919 -0.0159  3.7956
  162SOPE   H8S18152   6.220   5.599   9.601 -1.2043  3.1633  0.7867
  162SOPE   C2918153   6.360   5.758   9.592 -0.1082  0.7409 -0.2568
  162SOPE   H9118154   6.392   5.836   9.662 -2.0899 -0.7358  2.4836
  162SOPE  C21018155   6.382   5.780   9.458 -0.0849  0.3565  0.5008
  162SOPE  H10118156   6.409   5.882   9.427  0.8257 -0.1104 -0.2873
  162SOPE  C21118157   6.365   5.681   9.348  0.4601  0.1357  0.1563
  162SOPE  H11R18158   6.287   5.605   9.368 -0.6709  0.8499 -1.3022
  162SOPE  H11S18159   6.461   5.625   9.350 -0.0597 -1.0715 -2.8561
  162SOPE  C21218160   6.319   5.740   9.217  0.7973  0.0247 -0.1644
  162SOPE  H12R18161   6.394   5.818   9.189 -1.4551  2.0352 -0.9787
  162SOPE  H12S18162   6.227   5.791   9.251  0.5340 -1.5105  1.5612
  162SOPE  C21318163   6.290   5.639   9.102 -0.1307 -0.6364 -0.8238
  162SOPE  H13R18164   6.231   5.687   9.021  1.6841 -0.2695 -1.9971
  162SOPE  H13S18165   6.232   5.551   9.136 -1.8783 -0.4665 -3.0918
  162SOPE  C21418166   6.422   5.597   9.023 -0.3940 -0.3068 -0.2278
  162SOPE  H14R18167   6.494   5.555   9.096  1.2326  0.8427 -1.1056
  162SOPE  H14S18168   6.468   5.690   8.982 -0.5352 -0.0334  0.2313
  162SOPE  C21518169   6.387   5.508   8.901  0.1101 -0.2305 -0.0419
  162SOPE  H15R18170   6.326   5.573   8.835  0.5630 -0.9889 -1.2391
  162SOPE  H15S18171   6.315   5.429   8.931 -0.7376  0.7533  0.5788
  162SOPE  C21618172   6.505   5.452   8.822 -0.9216 -0.5095 -0.4042
  162SOPE  H16R18173   6.569   5.424   8.909  0.8582  0.6091 -1.2923
  162SOPE  H16S18174   6.555   5.531   8.761 -0.0581 -0.5730  0.1977
  162SOPE  C21718175   6.483   5.333   8.729 -0.4171  0.6786  0.0861
  162SOPE  H17R18176   6.435   5.354   8.631 -1.0474 -2.3274 -0.3242
  162SOPE  H17S18177   6.402   5.268   8.770  0.4490 -0.8647 -0.5703
  162SOPE  C21818178   6.608   5.249   8.709  0.0271 -0.0233 -0.5708
  162SOPE  H18R18179   6.618   5.187   8.800  1.1273 -0.5859 -1.0591
  162SOPE  H18S18180   6.694   5.320   8.705 -0.7641  1.0840  0.9092
  162SOPE  H18T18181   6.609   5.183   8.619  2.1963  0.1795 -0.7510
  162SOPE   C3318182   5.966   5.289   9.973 -0.1281 -0.0303  0.3056
  162SOPE   H3X18183   6.006   5.245   9.879 -1.9772 -2.8221  0.7157
  162SOPE   H3Y18184   6.048   5.351  10.016 -0.3292 -0.3798  1.2078
  162SOPE   C3418185   5.841   5.379   9.933 -0.4406 -0.2921 -0.2707
  162SOPE   H4X18186   5.879   5.461   9.869  0.1456 -0.1077  0.2946
  162SOPE   H4Y18187   5.806   5.431  10.025 -1.4370 -0.0766 -0.7630
  162SOPE   C3518188   5.732   5.297   9.856  0.2722  0.5559  0.2040
  162SOPE   H5X18189   5.660   5.380   9.839  0.4632  0.5807 -0.5203
  162SOPE   H5Y18190   5.680   5.228   9.927 -0.1162  2.3137  1.7100
  162SOPE   C3618191   5.780   5.244   9.720  0.0555 -0.3801  0.0147
  162SOPE   H6X18192   5.864   5.172   9.722 -0.6439 -1.3071 -1.5590
  162SOPE   H6Y18193   5.823   5.331   9.667 -0.0227  0.9007  1.9433
  162SOPE   C3718194   5.667   5.197   9.631  0.4509 -0.3608  0.6747
  162SOPE   H7X18195   5.583   5.269   9.637 -0.4566 -1.4512  1.6038
  162SOPE   H7Y18196   5.626   5.103   9.673  0.2251 -0.6655 -0.1939
  162SOPE   C3818197   5.706   5.175   9.481 -0.1281 -0.2960 -0.4556
  162SOPE   H8X18198   5.815   5.160   9.495  0.1018  0.7247 -1.0907
  162SOPE   H8Y18199   5.703   5.270   9.423  2.2113  0.0574 -0.1036
  162SOPE   C3918200   5.632   5.055   9.426  0.2734 -0.5323 -0.0302
  162SOPE   H9X18201   5.524   5.077   9.438 -0.1796 -2.1329 -0.8365
  162SOPE   H9Y18202   5.655   4.965   9.487  1.9336 -0.8780 -1.1292
  162SOPE  C31018203   5.658   5.035   9.278 -0.2245 -0.2077  0.1725
  162SOPE  H10X18204   5.623   4.931   9.264 -0.5914  0.2850 -3.7581
  162SOPE  H10Y18205   5.764   5.038   9.247 -1.0108 -0.3149 -2.8472
  162SOPE  C31118206   5.563   5.107   9.183 -0.1756 -0.3875  0.3274
  162SOPE  H11X18207   5.467   5.132   9.233 -0.8827  0.0951 -1.2131
  162SOPE  H11Y18208   5.542   5.034   9.103 -0.1811  1.6146 -1.5777
  162SOPE  C31218209   5.621   5.238   9.119  0.1370 -0.2577 -1.1760
  162SOPE  H12X18210   5.724   5.211   9.089 -0.9806 -4.2904 -1.8660
  162SOPE  H12Y18211   5.622   5.311   9.204 -3.4009 -0.3290 -0.8947
  162SOPE  C31318212   5.525   5.282   9.009  0.4888 -0.3693  0.1442
  162SOPE  H13X18213   5.430   5.313   9.058 -0.0818  0.3038 -1.3561
  162SOPE  H13Y18214   5.509   5.194   8.943  1.1913 -0.6440  0.3349
  162SOPE  C31418215   5.582   5.404   8.940  0.0882 -0.3258 -0.3373
  162SOPE  H14X18216   5.549   5.410   8.834 -0.9874  2.2821  0.0599
  162SOPE  H14Y18217   5.693   5.397   8.944  0.1885 -0.1455 -2.0681
  162SOPE  C31518218   5.539   5.531   9.021 -0.2451  0.4194 -0.1729
  162SOPE  H15X18219   5.540   5.504   9.129  0.0547  3.0671  0.5534
  162SOPE  H15Y18220   5.433   5.557   9.003 -0.0347  0.3606 -1.5974
  162SOPE  C31618221   5.626   5.657   9.001  0.2166 -0.0403 -0.2303
  162SOPE  H16X18222   5.728   5.628   8.968  0.9268  1.1821  0.7614
  162SOPE  H16Y18223   5.618   5.714   9.096 -0.5437 -1.3039  0.4844
  162SOPE  C31718224   5.554   5.746   8.896  0.4542 -0.2027 -0.3722
  162SOPE  H17X18225   5.452   5.769   8.932  0.3895 -0.6598 -0.2586
  162SOPE  H17Y18226   5.552   5.699   8.796  0.4928  2.0581 -1.4993
  162SOPE  C31818227   5.627   5.879   8.872 -0.1414 -0.3597 -0.0165
  162SOPE  H18X18228   5.577   5.940   8.794  1.8755  1.7186  0.2118
  162SOPE  H18Y18229   5.732   5.860   8.844  0.2618 -0.3534  1.3862
  162SOPE  H18Z18230   5.622   5.944   8.963  0.3993 -2.1094  1.3281
  163SOPE     N18231   0.976   5.091  10.625 -0.6644 -0.9208 -0.6009
  163SOPE   HN118232   1.024   5.097  10.533 -0.8796 -0.4247 -0.6850
  163SOPE   HN218233   0.969   5.192  10.648  0.6070 -0.9096 -0.1870
  163SOPE   HN318234   1.050   5.054  10.688  0.6562  1.8910 -0.3396
  163SOPE   C1218235   0.865   4.992  10.631  0.1758  0.3260  0.3234
  163SOPE  H12A18236   0.891   4.896  10.582  1.1536 -0.2445  1.8831
  163SOPE  H12B18237   0.783   5.035  10.569  0.9227 -1.2841 -1.8877
  163SOPE   C1118238   0.814   4.977  10.771 -0.1676  0.1569  0.2334
  163SOPE  H11A18239   0.903   4.955  10.833 -0.1048  0.2993  0.1952
  163SOPE  H11B18240   0.760   4.881  10.781 -1.1121  0.6956  0.4093
  163SOPE     P18241   0.584   5.075  10.850 -0.6003 -0.1612 -0.1710
  163SOPE   O1318242   0.588   5.107  10.993  0.2634  0.6139  0.1708
  163SOPE   O1418243   0.528   4.943  10.815 -0.2857  0.4349 -0.2142
  163SOPE   O1218244   0.734   5.085  10.811  0.7590  0.3692  0.1998
  163SOPE   O1118245   0.510   5.202  10.794  0.0530  0.0094  0.3128
  163SOPE    C118246   0.575   5.316  10.739 -0.3944  0.0526 -0.6064
  163SOPE    HA18247   0.672   5.336  10.790 -1.5221  0.4965  1.4700
  163SOPE    HB18248   0.515   5.407  10.761 -0.2924 -0.2047  0.8396
  163SOPE    C218249   0.596   5.296  10.586 -0.6361  0.4011  0.2642
  163SOPE    HS18250   0.650   5.200  10.575  1.9889  1.7110  0.8787
  163SOPE   O2118251   0.676   5.409  10.541  0.0606  0.1591  0.4063
  163SOPE   C2118252   0.760   5.376  10.440 -0.1330  0.4374  0.0909
  163SOPE   O2218253   0.777   5.264  10.393  0.3463 -0.1805 -0.0956
  163SOPE   C2218254   0.848   5.489  10.391 -0.0960 -0.1525 -0.1438
  163SOPE   H2R18255   0.938   5.446  10.343 -0.1023  0.0891 -0.3763
  163SOPE   H2S18256   0.873   5.549  10.481 -0.1626 -0.9510  0.4252
  163SOPE    C318257   0.464   5.284  10.512  0.5710  0.1280 -0.1002
  163SOPE    HX18258   0.421   5.386  10.515 -1.5496 -0.7056 -0.2002
  163SOPE    HY18259   0.390   5.219  10.563 -3.1949  2.9097 -1.5690
  163SOPE   O3118260   0.477   5.246  10.378  0.5948 -0.3627  0.9818
  163SOPE   C3118261   0.524   5.127  10.346 -0.6635  0.0303  0.4663
  163SOPE   O3218262   0.547   5.036  10.424  0.0336 -0.3401  0.0433
  163SOPE   C3218263   0.542   5.131  10.188  0.3467  0.2333 -0.2281
  163SOPE   H2X18264   0.614   5.213  10.166 -0.1961  1.7584  3.1368
  163SOPE   H2Y18265   0.445   5.133  10.135  1.3353 -0.6902 -2.1690
  163SOPE   C2318266   0.781   5.584  10.292  0.4113 -0.3848  0.2418
  163SOPE   H3R18267   0.851   5.666  10.267  0.6931 -0.7593 -0.2094
  163SOPE   H3S18268   0.690   5.624  10.341  0.1205  0.1683 -0.7267
  163SOPE   C2418269   0.745   5.518  10.165  0.0363 -0.2097  0.6808
  163SOPE   H4R18270   0.834   5.490  10.105 -0.8907  0.9557 -1.3844
  163SOPE   H4S18271   0.691   5.423  10.185  2.5067 -1.7095  0.6226
  163SOPE   C2518272   0.669   5.608  10.067 -0.0148  1.0414  0.7379
  163SOPE   H5R18273   0.567   5.643  10.097 -0.3944  0.9547 -0.4282
  163SOPE   H5S18274   0.727   5.701  10.045 -1.7469  1.7178 -1.3324
  163SOPE   C2618275   0.640   5.537   9.933 -0.1310  0.3250 -0.1393
  163SOPE   H6R18276   0.593   5.608   9.862 -0.0816 -0.8498 -1.3888
  163SOPE   H6S18277   0.741   5.520   9.891  0.4829  1.4531  0.8380
  163SOPE   C2718278   0.556   5.405   9.936 -0.1941 -0.6397  0.3899
  163SOPE   H7R18279   0.613   5.329   9.993 -1.8192 -0.8201  1.8423
  163SOPE   H7S18280   0.458   5.423   9.984  0.3022  1.3896  0.7318
  163SOPE   C2818281   0.537   5.344   9.793 -0.5390  0.0068  0.1103
  163SOPE   H8R18282   0.473   5.425   9.751 -0.9888  0.0908  0.9372
  163SOPE   H8S18283   0.638   5.349   9.748  0.1497  0.8390  1.6806
  163SOPE   C2918284   0.475   5.211   9.795  0.9173 -0.1558 -0.6926
  163SOPE   H9118285   0.409   5.191   9.881  3.2255 -0.1854  1.1830
  163SOPE  C21018286   0.498   5.115   9.703  0.4596  0.1723 -0.4321
  163SOPE  H10118287   0.446   5.018   9.704 -0.9370  0.8332  2.9005
  163SOPE  C21118288   0.590   5.131   9.583  0.8744 -0.0422  0.5565
  163SOPE  H11R18289   0.643   5.034   9.568  2.8220  1.2414 -1.4739
  163SOPE  H11S18290   0.669   5.205   9.604  3.1325 -1.9400 -0.7761
  163SOPE  C21218291   0.514   5.163   9.455  0.5276 -0.0506  0.2415
  163SOPE  H12R18292   0.566   5.220   9.376  0.3918  1.1204  0.9678
  163SOPE  H12S18293   0.424   5.224   9.478  0.1392 -0.7954  0.7380
  163SOPE  C21318294   0.468   5.040   9.364  0.1009 -0.4901 -0.1384
  163SOPE  H13R18295   0.428   4.954   9.423 -0.3352 -0.3272 -0.1944
  163SOPE  H13S18296   0.559   4.991   9.323 -0.2255 -0.7512 -0.5574
  163SOPE  C21418297   0.372   5.080   9.259 -0.2104  0.5028  0.2084
  163SOPE  H14R18298   0.438   5.141   9.193 -0.3113  1.3511  0.8792
  163SOPE  H14S18299   0.284   5.136   9.298 -1.4707 -0.4216 -1.2016
  163SOPE  C21518300   0.323   4.955   9.179 -0.0937  0.4176 -0.4362
  163SOPE  H15R18301   0.308   4.873   9.252 -0.9174  1.2067  0.3055
  163SOPE  H15S18302   0.403   4.915   9.112 -0.6317 -0.9551 -0.2922
  163SOPE  C21618303   0.190   4.982   9.098 -0.3389  0.0752 -0.1722
  163SOPE  H16R18304   0.111   5.028   9.161 -0.1148  0.2772 -0.0400
  163SOPE  H16S18305   0.155   4.881   9.067  2.4356 -1.2327  0.6876
  163SOPE  C21718306   0.222   5.080   8.983  0.4340 -0.8373 -0.0828
  163SOPE  H17R18307   0.296   5.025   8.922 -0.0933 -2.9299  1.0458
  163SOPE  H17S18308   0.272   5.170   9.024 -1.7650  0.9712 -1.1163
  163SOPE  C21818309   0.093   5.121   8.895 -0.0969 -0.1704 -0.1513
  163SOPE  H18R18310   0.044   5.025   8.866  2.0829 -0.8239 -2.0618
  163SOPE  H18S18311   0.127   5.184   8.810  0.6684 -1.0644 -0.5356
  163SOPE  H18T18312   0.024   5.182   8.957 -2.4277  0.3534 -3.0138
  163SOPE   C3318313   0.602   4.990  10.147 -0.2849 -0.1147  0.0722
  163SOPE   H3X18314   0.702   4.977  10.194  0.4959  3.0190 -0.4417
  163SOPE   H3Y18315   0.634   5.012  10.043  0.4375  2.2579  0.7164
  163SOPE   C3418316   0.522   4.863  10.162 -0.1150  0.3703 -0.9158
  163SOPE   H4X18317   0.415   4.892  10.153 -0.4889 -0.3194  0.8478
  163SOPE   H4Y18318   0.538   4.818  10.262  0.2432  2.0106 -0.2031
  163SOPE   C3518319   0.556   4.765  10.048 -0.5858  0.4212  0.1131
  163SOPE   H5X18320   0.509   4.669  10.079 -1.7200  1.1788  0.8403
  163SOPE   H5Y18321   0.666   4.763  10.034 -0.3424  0.8995  1.7282
  163SOPE   C3618322   0.497   4.803   9.905  0.4966  0.4130  0.5127
  163SOPE   H6X18323   0.521   4.908   9.876 -1.9120  1.0002  0.4204
  163SOPE   H6Y18324   0.387   4.794   9.917  0.4045  0.1463 -0.4361
  163SOPE   C3718325   0.561   4.692   9.816 -0.2369 -0.3742  0.0911
  163SOPE   H7X18326   0.504   4.597   9.830  0.5528 -0.6127  2.0506
  163SOPE   H7Y18327   0.668   4.681   9.844 -0.2226  0.5792  0.4276
  163SOPE   C3818328   0.557   4.735   9.667 -0.1498  0.9179 -0.2487
  163SOPE   H8X18329   0.590   4.841   9.657  1.9387  0.4319  0.8488
  163SOPE   H8Y18330   0.451   4.731   9.637 -0.0641  0.3956 -0.4816
  163SOPE   C3918331   0.641   4.636   9.585  0.4984 -0.5000 -0.0476
  163SOPE   H9X18332   0.610   4.531   9.601 -1.2920 -0.3969 -2.4249
  163SOPE   H9Y18333   0.747   4.633   9.620  0.5462 -0.7625 -0.2104
  163SOPE  C31018334   0.623   4.662   9.431 -0.7037  0.3106  0.1908
  163SOPE  H10X18335   0.711   4.622   9.376 -1.3322 -0.1741 -0.4821
  163SOPE  H10Y18336   0.627   4.767   9.394  2.6422 -0.4935 -2.2143
  163SOPE  C31118337   0.488   4.610   9.376  0.3101 -0.1078 -0.3575
  163SOPE  H11X18338   0.403   4.663   9.424 -0.3163  0.5288 -2.0931
  163SOPE  H11Y18339   0.467   4.504   9.405 -0.3241  0.4573  1.4033
  163SOPE  C31218340   0.466   4.626   9.226 -0.2207  0.2633  0.4046
  163SOPE  H12X18341   0.459   4.735   9.205  1.9931  0.1853 -0.9940
  163SOPE  H12Y18342   0.365   4.580   9.216 -0.1286  0.5550 -2.5174
  163SOPE  C31318343   0.564   4.567   9.129 -0.4864 -0.3596  0.3776
  163SOPE  H13X18344   0.553   4.456   9.120 -0.4620 -0.6951  3.5509
  163SOPE  H13Y18345   0.663   4.596   9.169 -2.2812  3.1655  2.7866
  163SOPE  C31418346   0.540   4.605   8.979  0.4324  0.1621 -0.1687
  163SOPE  H14X18347   0.602   4.533   8.921  0.1556  0.2030 -0.5203
  163SOPE  H14Y18348   0.584   4.705   8.957 -0.3987  0.3644 -0.9644
  163SOPE  C31518349   0.393   4.587   8.925 -0.4200 -0.1576 -0.4953
  163SOPE  H15X18350   0.332   4.667   8.973 -1.2085 -1.0096 -0.0387
  163SOPE  H15Y18351   0.355   4.487   8.956 -0.8343  0.1267 -0.0727
  163SOPE  C31618352   0.382   4.618   8.777 -0.9218  0.5940  0.2084
  163SOPE  H16X18353   0.449   4.543   8.730 -0.9296  0.3367  0.6039
  163SOPE  H16Y18354   0.423   4.720   8.758  0.1238 -0.2283 -2.3789
  163SOPE  C31718355   0.240   4.613   8.723 -0.5634  0.3584 -0.0219
  163SOPE  H17X18356   0.244   4.677   8.632  2.7357 -1.8766 -1.6686
  163SOPE  H17Y18357   0.167   4.654   8.797 -0.8005 -0.6177  0.3025
  163SOPE  C31818358   0.187   4.472   8.689 -0.0995 -0.4676  0.5358
  163SOPE  H18X18359   0.193   4.411   8.781  2.0426  0.6289  1.1696
  163SOPE  H18Y18360   0.253   4.436   8.607 -2.3780 -0.3510 -1.4842
  163SOPE  H18Z18361   0.081   4.478   8.656 -0.4049 -0.5879  1.4757
  164SOPE     N18362   3.428   2.776  10.578 -0.4625  0.1137  0.0354
  164SOPE   HN118363   3.487   2.748  10.659  2.1846  0.0483 -1.7745
  164SOPE   HN218364   3.455   2.875  10.559  0.6802  0.0553  1.2187
  164SOPE   HN318365   3.327   2.787  10.596 -0.9993  0.0230 -2.4662
  164SOPE   C1218366   3.430   2.702  10.450  0.1945 -0.6006  0.1724
  164SOPE  H12A18367   3.532   2.716  10.408 -0.0499 -1.4134 -0.7196
  164SOPE  H12B18368   3.353   2.746  10.384 -2.1997 -2.7884  1.3137
  164SOPE   C1118369   3.385   2.557  10.461 -0.6448 -0.8888  0.6132
  164SOPE  H11A18370   3.460   2.506  10.525 -0.4042 -1.6643 -0.2678
  164SOPE  H11B18371   3.398   2.506  10.363  0.6014  1.0220 -0.2916
  164SOPE     P18372   3.231   2.486  10.654  0.2671  0.2783  0.2754
  164SOPE   O1318373   3.088   2.476  10.684 -0.1032  0.1964 -0.2307
  164SOPE   O1418374   3.309   2.554  10.756 -0.2466 -0.1267  0.1483
  164SOPE   O1218375   3.249   2.547  10.512 -0.7966 -0.1145 -0.6947
  164SOPE   O1118376   3.292   2.343  10.637  0.1795 -0.0473  0.2217
  164SOPE    C118377   3.205   2.250  10.581  0.4223  0.1857 -0.4011
  164SOPE    HA18378   3.168   2.284  10.482 -1.1406 -2.1786 -0.7316
  164SOPE    HB18379   3.113   2.231  10.640 -0.5997 -1.5378 -2.3891
  164SOPE    C218380   3.273   2.108  10.560 -0.5727  0.0438  0.0825
  164SOPE    HS18381   3.314   2.090  10.662  1.5611  3.3552 -0.0224
  164SOPE   O2118382   3.378   2.145  10.464 -0.8130  0.0559 -0.0253
  164SOPE   C2118383   3.456   2.038  10.421 -0.7395 -0.6715 -0.1827
  164SOPE   O2218384   3.441   1.921  10.446 -0.8184  0.7195  0.3200
  164SOPE   C2218385   3.570   2.099  10.326  0.0985 -0.1086  0.0854
  164SOPE   H2R18386   3.662   2.109  10.388 -0.8695  0.6824  1.4568
  164SOPE   H2S18387   3.538   2.197  10.284  0.1879 -0.6109 -1.2009
  164SOPE    C318388   3.173   2.005  10.511  0.1400  0.6273  0.4352
  164SOPE    HX18389   3.093   2.002  10.588  0.1156  0.8576  0.4198
  164SOPE    HY18390   3.228   1.908  10.516 -0.5355  0.2741  1.6027
  164SOPE   O3118391   3.116   2.035  10.382 -0.1690 -0.1546  0.1294
  164SOPE   C3118392   3.008   2.104  10.375  0.8342 -0.7980 -0.3970
  164SOPE   O3218393   2.930   2.126  10.469  0.1248  0.4384  0.5099
  164SOPE   C3218394   2.985   2.155  10.233 -0.5300  0.3090 -0.0962
  164SOPE   H2X18395   2.877   2.182  10.230 -0.6965 -0.3458 -0.1505
  164SOPE   H2Y18396   3.008   2.072  10.163 -0.8059  0.2526 -0.1196
  164SOPE   C2318397   3.597   2.002  10.207  0.6231 -0.7823 -0.2209
  164SOPE   H3R18398   3.511   1.939  10.175  0.3578 -0.2562 -0.5693
  164SOPE   H3S18399   3.674   1.931  10.243  2.6481  1.9359  1.1985
  164SOPE   C2418400   3.645   2.093  10.096 -0.6072  0.1390  0.5126
  164SOPE   H4R18401   3.577   2.179  10.084  1.5268  1.8421  0.0247
  164SOPE   H4S18402   3.746   2.129  10.126 -0.5641  0.7210 -0.3229
  164SOPE   C2518403   3.674   2.013   9.972  0.0301  0.5961  0.1412
  164SOPE   H5R18404   3.751   1.938  10.002  0.9267  2.1453  1.9390
  164SOPE   H5S18405   3.586   1.954   9.940  0.0301  0.3309  0.6231
  164SOPE   C2618406   3.718   2.097   9.853 -0.3348 -0.0858 -0.1119
  164SOPE   H6R18407   3.640   2.169   9.821 -1.4630 -1.6727 -1.0880
  164SOPE   H6S18408   3.811   2.148   9.884 -1.3996  1.6853  0.2737
  164SOPE   C2718409   3.741   2.006   9.731  0.2143 -0.5915 -0.5349
  164SOPE   H7R18410   3.844   1.964   9.740  0.3728 -0.4147 -1.4177
  164SOPE   H7S18411   3.668   1.923   9.740 -1.1925  0.8177  2.2754
  164SOPE   C2818412   3.725   2.074   9.593  0.8653  0.6925  0.2857
  164SOPE   H8R18413   3.753   1.998   9.517  1.3008  0.7882  0.3488
  164SOPE   H8S18414   3.618   2.104   9.595  0.8544  0.8402 -1.2849
  164SOPE   C2918415   3.800   2.201   9.580  0.1311 -0.7892 -0.1629
  164SOPE   H9118416   3.757   2.280   9.643  1.4923 -0.2221  0.0813
  164SOPE  C21018417   3.900   2.229   9.498  0.1392  0.3592 -0.2422
  164SOPE  H10118418   3.942   2.331   9.492 -0.1250  0.4148 -1.6315
  164SOPE  C21118419   3.963   2.123   9.409 -0.0822 -0.3333 -0.4603
  164SOPE  H11R18420   3.908   2.027   9.410 -0.7284  0.0341  0.9021
  164SOPE  H11S18421   4.069   2.100   9.436 -0.0634 -0.1337 -0.3621
  164SOPE  C21218422   3.983   2.169   9.262  0.1841 -0.3819  0.8537
  164SOPE  H12R18423   4.057   2.103   9.211 -0.0803 -0.9430  1.1882
  164SOPE  H12S18424   4.012   2.276   9.256  1.3987 -0.7662 -0.6729
  164SOPE  C21318425   3.850   2.158   9.178 -0.1126  0.5618  0.0195
  164SOPE  H13R18426   3.773   2.232   9.208 -0.7342  0.5546 -1.5027
  164SOPE  H13S18427   3.808   2.058   9.198  0.0056  0.0858 -1.9267
  164SOPE  C21418428   3.872   2.166   9.023 -0.1124  0.9460 -0.2270
  164SOPE  H14R18429   3.958   2.100   8.997  0.8564  1.5074  1.3513
  164SOPE  H14S18430   3.890   2.274   9.007  0.9115  0.5469 -2.1104
  164SOPE  C21518431   3.735   2.138   8.960  0.5576 -0.6251  0.4057
  164SOPE  H15R18432   3.737   2.192   8.863 -1.4765  2.7631  2.0702
  164SOPE  H15S18433   3.653   2.174   9.026 -0.0468 -0.3251 -0.4984
  164SOPE  C21618434   3.713   1.987   8.937  0.2652 -0.1805  0.8818
  164SOPE  H16R18435   3.713   1.927   9.030  1.7941  0.0483  1.0542
  164SOPE  H16S18436   3.795   1.947   8.875  0.9125 -2.0130  2.7909
  164SOPE  C21718437   3.581   1.959   8.863 -0.8010  0.2309 -0.1266
  164SOPE  H17R18438   3.499   1.980   8.936  0.3987  1.0955  1.0158
  164SOPE  H17S18439   3.577   1.849   8.849 -0.0221  0.2573 -0.6170
  164SOPE  C21818440   3.575   2.022   8.727 -0.1082  0.0378  0.4768
  164SOPE  H18R18441   3.670   2.000   8.674 -0.9475 -0.5724 -0.8531
  164SOPE  H18S18442   3.556   2.131   8.732  1.3096  0.3353 -0.0188
  164SOPE  H18T18443   3.495   1.976   8.664  0.9828 -1.6179  0.2197
  164SOPE   C3318444   3.068   2.280  10.197 -0.5876 -0.3374  0.1191
  164SOPE   H3X18445   3.081   2.348  10.284 -1.2725  0.5442 -0.4451
  164SOPE   H3Y18446   3.005   2.329  10.120 -1.9247 -0.1710  1.2744
  164SOPE   C3418447   3.200   2.253  10.121  0.1660 -0.0889 -0.1348
  164SOPE   H4X18448   3.251   2.169  10.174  1.7655 -0.5141 -2.2214
  164SOPE   H4Y18449   3.270   2.340  10.126  0.5150 -0.1570 -2.7613
  164SOPE   C3518450   3.185   2.228   9.968 -0.6419 -0.1605 -0.9526
  164SOPE   H5X18451   3.151   2.319   9.914  0.2957 -0.8815 -2.8563
  164SOPE   H5Y18452   3.104   2.153   9.962  0.4019 -1.4273  0.0463
  164SOPE   C3618453   3.315   2.168   9.911 -0.0859  0.4429  0.3401
  164SOPE   H6X18454   3.321   2.063   9.947 -0.6923  0.1177 -0.4694
  164SOPE   H6Y18455   3.402   2.214   9.963  0.5066 -0.1400 -0.1165
  164SOPE   C3718456   3.337   2.188   9.756  0.4862 -0.0632 -0.3253
  164SOPE   H7X18457   3.268   2.120   9.702  0.7828 -1.1545  0.6328
  164SOPE   H7Y18458   3.440   2.155   9.732  0.8937  0.3175  0.8209
  164SOPE   C3818459   3.290   2.335   9.699  0.0128 -0.0984 -0.1053
  164SOPE   H8X18460   3.362   2.406   9.746  0.6329 -0.1115 -0.9976
  164SOPE   H8Y18461   3.183   2.352   9.721 -0.1979 -0.4990 -0.7905
  164SOPE   C3918462   3.312   2.349   9.546  0.5064  0.3987  0.0446
  164SOPE   H9X18463   3.244   2.278   9.494  0.2975 -0.9935  2.0945
  164SOPE   H9Y18464   3.416   2.340   9.507  0.3909 -0.5168 -0.0643
  164SOPE  C31018465   3.268   2.495   9.511  0.7368  0.1445  0.5486
  164SOPE  H10X18466   3.335   2.572   9.554  0.2892  0.4236  0.7618
  164SOPE  H10Y18467   3.163   2.504   9.546 -0.5037  0.5744 -2.9307
  164SOPE  C31118468   3.256   2.533   9.361 -0.4547 -0.7202 -0.2140
  164SOPE  H11X18469   3.207   2.630   9.341  1.3291  0.5822  1.3982
  164SOPE  H11Y18470   3.183   2.464   9.314  0.4434 -1.0260 -1.2072
  164SOPE  C31218471   3.391   2.530   9.287  0.2810 -0.5965 -0.3201
  164SOPE  H12X18472   3.466   2.464   9.336  3.2426  3.5400  1.3065
  164SOPE  H12Y18473   3.429   2.634   9.292  0.2800 -0.5580 -0.9650
  164SOPE  C31318474   3.386   2.511   9.135 -0.2610  0.3105  0.7911
  164SOPE  H13X18475   3.315   2.570   9.074  0.2013  0.4480  0.3853
  164SOPE  H13Y18476   3.370   2.403   9.112  1.1099  0.2258  0.1205
  164SOPE  C31418477   3.525   2.544   9.080 -0.3341  0.2119  0.1530
  164SOPE  H14X18478   3.602   2.481   9.129 -2.1232 -1.6219  0.7412
  164SOPE  H14Y18479   3.553   2.650   9.096 -0.6677  0.4683 -0.8431
  164SOPE  C31518480   3.545   2.509   8.931  0.4447  0.4157  0.2792
  164SOPE  H15X18481   3.484   2.567   8.859 -2.8159  0.0722  2.5475
  164SOPE  H15Y18482   3.532   2.399   8.924  1.7771  0.0677  2.2282
  164SOPE  C31618483   3.689   2.527   8.886  0.5605  0.1783  0.1441
  164SOPE  H16X18484   3.751   2.458   8.948  0.8309 -2.5993 -2.9235
  164SOPE  H16Y18485   3.722   2.632   8.895  2.5192 -0.2697 -1.1622
  164SOPE  C31718486   3.714   2.482   8.738  0.7437 -0.5312  0.0917
  164SOPE  H17X18487   3.665   2.384   8.724  0.1689  0.1080 -3.1132
  164SOPE  H17Y18488   3.824   2.464   8.731  1.1876  1.0880  2.0089
  164SOPE  C31818489   3.677   2.573   8.629 -0.6183  0.4714  0.8540
  164SOPE  H18X18490   3.709   2.542   8.527 -1.4392  0.6292  0.5375
  164SOPE  H18Y18491   3.712   2.676   8.652 -0.6081  0.2124  2.0842
  164SOPE  H18Z18492   3.566   2.575   8.619 -0.6156 -0.8369  0.4474
  165SOPE     N18493   2.684   3.473  10.840 -0.1960  0.0841  0.8253
  165SOPE   HN118494   2.625   3.454  10.924 -1.9324  2.0542  0.1257
  165SOPE   HN218495   2.780   3.502  10.869 -0.6328  0.3560  2.0771
  165SOPE   HN318496   2.647   3.555  10.789  1.8054 -1.9146 -4.4905
  165SOPE   C1218497   2.693   3.350  10.749 -0.3186  0.1938 -1.0096
  165SOPE  H12A18498   2.734   3.264  10.805  0.2585  1.3140  0.3548
  165SOPE  H12B18499   2.755   3.367  10.658 -1.2162 -0.2225 -1.7156
  165SOPE   C1118500   2.548   3.311  10.712  0.3802 -0.5141  0.8697
  165SOPE  H11A18501   2.563   3.215  10.658  1.1050 -1.1639  2.1980
  165SOPE  H11B18502   2.514   3.384  10.634  0.6322 -1.9888 -0.6749
  165SOPE     P18503   2.312   3.251  10.816 -0.2013  0.4828 -0.1881
  165SOPE   O1318504   2.234   3.326  10.915 -0.7683 -0.1182 -0.6067
  165SOPE   O1418505   2.292   3.107  10.829  0.5944  0.2400 -0.3811
  165SOPE   O1218506   2.464   3.298  10.825  0.7034 -0.0425  0.6772
  165SOPE   O1118507   2.279   3.298  10.673 -0.1582  0.0184 -0.0729
  165SOPE    C118508   2.280   3.228  10.552  0.1069  0.3678 -0.6300
  165SOPE    HA18509   2.217   3.137  10.556  0.2377  0.3127  0.4708
  165SOPE    HB18510   2.382   3.189  10.532 -0.9226 -2.2053 -1.2393
  165SOPE    C218511   2.232   3.311  10.432 -0.5678 -0.2550  0.8484
  165SOPE    HS18512   2.198   3.240  10.353 -1.2165 -1.0892  1.8565
  165SOPE   O2118513   2.338   3.387  10.378  0.3631  0.1354 -0.1377
  165SOPE   C2118514   2.429   3.316  10.313 -1.1706 -0.8085 -0.0686
  165SOPE   O2218515   2.422   3.197  10.289 -0.5290  0.0663  0.2203
  165SOPE   C2218516   2.544   3.410  10.272 -0.1465  0.4677 -0.0252
  165SOPE   H2R18517   2.620   3.418  10.352  1.1589 -0.4746 -1.1367
  165SOPE   H2S18518   2.496   3.509  10.261 -2.1823 -0.6304 -1.7165
  165SOPE    C318519   2.109   3.401  10.457  0.3676 -0.0841 -0.0990
  165SOPE    HX18520   2.132   3.463  10.546 -1.0912 -1.5928  1.3861
  165SOPE    HY18521   2.032   3.332  10.498  0.6063  0.0381  0.5642
  165SOPE   O3118522   2.082   3.481  10.344 -0.3445 -0.9124 -0.3495
  165SOPE   C3118523   2.003   3.417  10.248 -0.4501 -0.5305  0.4733
  165SOPE   O3218524   1.956   3.307  10.251 -0.9455 -0.1057 -0.9193
  165SOPE   C3218525   1.982   3.515  10.133  0.2615 -0.3196  0.0397
  165SOPE   H2X18526   2.030   3.609  10.169  1.5738 -0.1888 -1.9355
  165SOPE   H2Y18527   1.877   3.546  10.119  0.8628  1.5069 -0.7566
  165SOPE   C2318528   2.614   3.358  10.143 -0.2257  0.0049  0.8310
  165SOPE   H3R18529   2.639   3.252  10.164 -1.9570  0.1242  4.1956
  165SOPE   H3S18530   2.712   3.404  10.116  0.6130 -2.0489  0.2092
  165SOPE   C2418531   2.518   3.364  10.022  0.1623  0.3345 -0.5542
  165SOPE   H4R18532   2.435   3.293  10.042  1.0712  0.0449  2.8622
  165SOPE   H4S18533   2.459   3.458  10.018 -0.2091  0.1409  0.1928
  165SOPE   C2518534   2.590   3.329   9.893 -0.3590 -0.3294 -0.0849
  165SOPE   H5R18535   2.649   3.418   9.863 -0.5758  0.1666  0.9303
  165SOPE   H5S18536   2.661   3.243   9.894 -0.7459 -0.6727  1.8840
  165SOPE   C2618537   2.487   3.312   9.785  0.4097  0.0955 -0.0527
  165SOPE   H6R18538   2.437   3.213   9.791  2.0579 -0.7893 -0.1734
  165SOPE   H6S18539   2.414   3.391   9.809 -0.3000 -0.9208  1.3058
  165SOPE   C2718540   2.547   3.300   9.650 -0.3114 -0.7726 -0.2793
  165SOPE   H7R18541   2.602   3.397   9.643  0.6387 -0.9220  3.2545
  165SOPE   H7S18542   2.622   3.219   9.654  0.6097  0.0907  1.6739
  165SOPE   C2818543   2.455   3.305   9.534  0.1194 -0.5606  0.3650
  165SOPE   H8R18544   2.371   3.373   9.556 -2.0839 -3.0018 -0.0436
  165SOPE   H8S18545   2.512   3.334   9.443  0.3471 -4.2730 -0.8676
  165SOPE   C2918546   2.409   3.162   9.504  0.2227  0.0680 -0.0565
  165SOPE   H9118547   2.451   3.089   9.575 -0.4538  0.0713  0.3592
  165SOPE  C21018548   2.345   3.119   9.396 -0.1295  0.2619  0.5409
  165SOPE  H10118549   2.320   3.012   9.394 -0.9112  0.3829  2.1340
  165SOPE  C21118550   2.294   3.200   9.279 -0.1138  0.3868  0.0945
  165SOPE  H11R18551   2.292   3.307   9.306  1.3920 -0.0351  2.0750
  165SOPE  H11S18552   2.188   3.174   9.257 -0.0901 -0.5404  1.0005
  165SOPE  C21218553   2.380   3.174   9.153  0.3965  0.0012 -0.6310
  165SOPE  H12R18554   2.486   3.198   9.173  0.4899 -0.8380 -0.0453
  165SOPE  H12S18555   2.343   3.252   9.083  2.4552  0.6573 -1.0373
  165SOPE  C21318556   2.368   3.029   9.089 -0.9092  0.0985 -0.2047
  165SOPE  H13R18557   2.267   3.002   9.052 -1.0910 -1.2680  1.2198
  165SOPE  H13S18558   2.395   2.964   9.175 -0.3103  0.2970 -0.2333
  165SOPE  C21418559   2.468   3.006   8.969 -0.1661  0.2100 -0.7573
  165SOPE  H14R18560   2.555   3.074   8.978 -0.2959  0.5284 -1.7577
  165SOPE  H14S18561   2.417   3.030   8.873  2.1905  3.7033 -1.3347
  165SOPE  C21518562   2.517   2.857   8.964 -1.0254 -0.0512 -0.2012
  165SOPE  H15R18563   2.433   2.795   9.004 -1.5459  0.8479  0.1464
  165SOPE  H15S18564   2.604   2.846   9.032 -0.1763 -1.4500 -1.4769
  165SOPE  C21618565   2.541   2.817   8.824 -0.1121 -0.3588 -0.1531
  165SOPE  H16R18566   2.622   2.878   8.780  0.1334  0.4704  1.3808
  165SOPE  H16S18567   2.447   2.827   8.766 -0.6934  2.4418  1.1267
  165SOPE  C21718568   2.599   2.677   8.811  0.6846  0.3974  0.6037
  165SOPE  H17R18569   2.521   2.611   8.855 -1.2975  0.9137 -1.9622
  165SOPE  H17S18570   2.699   2.669   8.860  0.5401 -0.8765  0.7448
  165SOPE  C21818571   2.631   2.636   8.667 -0.2590  0.4024 -0.9523
  165SOPE  H18R18572   2.690   2.712   8.613 -3.2331  1.4630 -3.0141
  165SOPE  H18S18573   2.540   2.610   8.608  0.5250 -2.2279 -1.1523
  165SOPE  H18T18574   2.685   2.539   8.668 -1.8818 -0.5692  1.4004
  165SOPE   C3318575   2.049   3.473  10.007  0.1486  0.4375  0.8134
  165SOPE   H3X18576   2.152   3.437  10.027  0.0102  0.7551  2.2005
  165SOPE   H3Y18577   2.061   3.569   9.953 -1.9994  1.2353  1.6432
  165SOPE   C3418578   1.976   3.366   9.927  0.4752 -0.4194  0.2783
  165SOPE   H4X18579   1.867   3.387   9.937  0.0714 -0.3863 -3.0751
  165SOPE   H4Y18580   2.005   3.267   9.969 -0.1493 -0.6472  0.1922
  165SOPE   C3518581   2.016   3.366   9.779 -0.4296 -0.1888  0.5035
  165SOPE   H5X18582   1.984   3.266   9.743 -1.3163  0.0567  0.5936
  165SOPE   H5Y18583   2.127   3.364   9.780 -0.3708 -1.0115 -1.8246
  165SOPE   C3618584   1.951   3.470   9.689  0.5813  0.1138 -0.0820
  165SOPE   H6X18585   1.968   3.570   9.734 -3.2139  1.3058 -0.9252
  165SOPE   H6Y18586   1.840   3.464   9.690  0.4780  0.8444 -2.1306
  165SOPE   C3718587   2.005   3.453   9.549 -0.0636  0.1529  0.3203
  165SOPE   H7X18588   1.983   3.353   9.507  2.7317  0.6657 -2.8164
  165SOPE   H7Y18589   2.116   3.452   9.560 -0.0309  1.5092  0.2893
  165SOPE   C3818590   1.951   3.551   9.440 -0.4618 -0.3698  0.1711
  165SOPE   H8X18591   1.953   3.657   9.474  0.0186 -0.7883  1.5210
  165SOPE   H8Y18592   1.843   3.530   9.433 -0.3732 -1.2554  1.3031
  165SOPE   C3918593   2.025   3.517   9.314 -0.3498 -0.1575  0.0470
  165SOPE   H9X18594   2.000   3.410   9.294 -2.3715 -0.0406  1.6004
  165SOPE   H9Y18595   2.136   3.509   9.311 -0.5036 -3.7494 -0.3593
  165SOPE  C31018596   1.989   3.585   9.183 -0.3032  0.5459 -0.1513
  165SOPE  H10X18597   2.064   3.659   9.148  2.5998 -2.2738 -0.3386
  165SOPE  H10Y18598   1.899   3.648   9.200 -1.8778 -1.3960 -0.8650
  165SOPE  C31118599   1.971   3.503   9.055 -0.2529  0.0946 -0.1336
  165SOPE  H11X18600   1.945   3.573   8.972  0.3056 -1.3598 -1.5876
  165SOPE  H11Y18601   1.884   3.435   9.069  0.3847 -0.3517  1.9988
  165SOPE  C31218602   2.099   3.430   9.005  0.9670 -0.1343 -0.9166
  165SOPE  H12X18603   2.157   3.368   9.077 -0.0039  0.6609  0.6002
  165SOPE  H12Y18604   2.169   3.514   8.987 -0.3990  0.8431 -1.8860
  165SOPE  C31318605   2.073   3.356   8.874  0.3873  0.4521  0.0862
  165SOPE  H13X18606   2.169   3.330   8.824  1.6480 -1.6556  3.2947
  165SOPE  H13Y18607   2.011   3.426   8.813 -2.5152 -3.7428 -2.2531
  165SOPE  C31418608   1.987   3.228   8.889 -0.1960 -0.2025 -0.2198
  165SOPE  H14X18609   1.885   3.248   8.928 -0.6308 -0.6399 -1.0894
  165SOPE  H14Y18610   2.036   3.157   8.959 -0.7445 -0.1873  0.1851
  165SOPE  C31518611   1.982   3.162   8.747 -0.0065 -0.2815 -0.0191
  165SOPE  H15X18612   2.080   3.158   8.696 -0.2484 -1.6092 -0.4316
  165SOPE  H15Y18613   1.915   3.218   8.678  1.2014 -0.1873 -1.1700
  165SOPE  C31618614   1.930   3.015   8.741  0.3374 -0.6612 -0.1442
  165SOPE  H16X18615   1.828   2.994   8.779  1.2817 -1.4147  2.2285
  165SOPE  H16Y18616   2.005   2.973   8.812  0.3959  0.6311  0.5835
  165SOPE  C31718617   1.958   2.945   8.606 -0.7316 -0.4533  0.1995
  165SOPE  H17X18618   2.051   2.994   8.569 -2.2001  1.1737 -1.6127
  165SOPE  H17Y18619   1.876   2.972   8.536 -0.6518 -0.2704  0.1766
  165SOPE  C31818620   1.981   2.794   8.610  0.5350 -0.0637 -0.2572
  165SOPE  H18X18621   2.066   2.779   8.681 -0.0540  0.7404  0.6524
  165SOPE  H18Y18622   2.009   2.761   8.508 -0.5761  0.1550 -0.6439
  165SOPE  H18Z18623   1.888   2.747   8.649 -0.5936  2.3249  0.0856
  166SOPE     N18624   5.311   2.139  10.871 -0.2335 -0.2193  0.2570
  166SOPE   HN118625   5.411   2.112  10.883  1.3350  3.4683 -2.4015
  166SOPE   HN218626   5.305   2.226  10.928  1.4955 -0.0206  0.1786
  166SOPE   HN318627   5.258   2.072  10.930  2.0573 -2.5221 -0.0822
  166SOPE   C1218628   5.288   2.152  10.716 -0.5401 -0.8315  0.0187
  166SOPE  H12A18629   5.200   2.215  10.692 -0.3369 -1.0022 -1.2578
  166SOPE  H12B18630   5.273   2.051  10.672 -0.7527 -0.7305 -0.1431
  166SOPE   C1118631   5.412   2.216  10.658  0.1118  1.0800  0.1766
  166SOPE  H11A18632   5.384   2.221  10.551  0.8433  0.4838 -0.0459
  166SOPE  H11B18633   5.494   2.143  10.668 -1.2767 -0.1997  3.7399
  166SOPE     P18634   5.577   2.406  10.709  0.1724 -0.0808 -0.0623
  166SOPE   O1318635   5.651   2.319  10.799  0.0689  0.2331 -0.5762
  166SOPE   O1418636   5.564   2.547  10.741  0.0066  0.7855  0.2788
  166SOPE   O1218637   5.432   2.346  10.713 -0.1520  0.1070 -0.3488
  166SOPE   O1118638   5.622   2.391  10.559 -0.1446 -0.0121 -0.1732
  166SOPE    C118639   5.586   2.481  10.457  0.2128  0.4466 -0.1272
  166SOPE    HA18640   5.627   2.582  10.479 -0.1409  0.3982  0.8114
  166SOPE    HB18641   5.476   2.469  10.467  0.5663 -2.4074  1.1915
  166SOPE    C218642   5.631   2.429  10.320  0.4482  0.1347  0.7033
  166SOPE    HS18643   5.612   2.500  10.237 -0.2272 -0.9562 -0.0914
  166SOPE   O2118644   5.577   2.298  10.283  0.0902 -0.7413  0.2454
  166SOPE   C2118645   5.458   2.301  10.221 -0.5642 -0.2841  0.5153
  166SOPE   O2218646   5.405   2.405  10.187 -0.0068  0.6242  0.8771
  166SOPE   C2218647   5.395   2.160  10.203  0.3938  0.2179  0.1488
  166SOPE   H2R18648   5.315   2.157  10.280 -0.0149  0.8177 -0.2437
  166SOPE   H2S18649   5.473   2.091  10.242 -2.2081 -2.0279  1.7168
  166SOPE    C318650   5.788   2.419  10.324  0.3403  0.5331  0.0584
  166SOPE    HX18651   5.818   2.349  10.404 -1.0392  0.7449  0.8039
  166SOPE    HY18652   5.818   2.521  10.357 -1.3825 -0.0189  3.7824
  166SOPE   O3118653   5.848   2.391  10.199  0.2636  0.3102  0.4395
  166SOPE   C3118654   5.853   2.266  10.151  0.1428  0.0504 -0.0835
  166SOPE   O3218655   5.821   2.169  10.213 -0.1504  0.2396 -0.0006
  166SOPE   C3218656   5.929   2.274  10.022 -0.3978 -0.3231  0.1910
  166SOPE   H2X18657   6.032   2.301  10.055 -0.5039 -0.5935  0.7631
  166SOPE   H2Y18658   5.897   2.364   9.965  1.5575  2.3191  2.9226
  166SOPE   C2318659   5.344   2.124  10.067 -0.3780  0.4504 -0.2082
  166SOPE   H3R18660   5.266   2.201  10.048  0.9609  2.1748  0.9110
  166SOPE   H3S18661   5.285   2.031  10.084  1.1478 -0.2020  1.9341
  166SOPE   C2418662   5.449   2.110   9.959 -0.0191 -0.5298 -0.0860
  166SOPE   H4R18663   5.514   2.198   9.977 -1.2051 -0.0757  2.3360
  166SOPE   H4S18664   5.510   2.019   9.974 -0.9342 -1.3173 -0.9791
  166SOPE   C2518665   5.378   2.097   9.826 -0.4095 -0.3431  0.1759
  166SOPE   H5R18666   5.319   2.003   9.832  0.6152 -1.1117 -1.2195
  166SOPE   H5S18667   5.317   2.189   9.810  1.0969  0.3241 -2.2906
  166SOPE   C2618668   5.476   2.097   9.708 -0.4769  0.0546 -0.4490
  166SOPE   H6R18669   5.570   2.047   9.740 -1.2802 -0.7963  0.6811
  166SOPE   H6S18670   5.430   2.044   9.622  0.0214 -0.4476 -0.4118
  166SOPE   C2718671   5.519   2.243   9.673 -0.7398  0.0588 -0.7294
  166SOPE   H7R18672   5.431   2.306   9.649  0.8543  2.3648 -0.9346
  166SOPE   H7S18673   5.571   2.286   9.761  0.6854 -0.6645 -1.1840
  166SOPE   C2818674   5.623   2.235   9.556 -0.5883  0.2530  0.3439
  166SOPE   H8R18675   5.711   2.184   9.601 -0.1967 -0.2833 -0.9600
  166SOPE   H8S18676   5.593   2.159   9.480  1.9219 -0.0155 -0.4865
  166SOPE   C2918677   5.669   2.367   9.498  0.2542  0.5425 -0.8712
  166SOPE   H9118678   5.758   2.421   9.535  1.6637 -1.2214 -1.5376
  166SOPE  C21018679   5.597   2.419   9.400  0.3612 -0.1747 -0.1018
  166SOPE  H10118680   5.637   2.506   9.344  2.6777 -1.3953 -0.4620
  166SOPE  C21118681   5.473   2.366   9.334 -0.1870 -1.2690 -0.0802
  166SOPE  H11R18682   5.386   2.411   9.385  0.1327 -1.7036  0.8711
  166SOPE  H11S18683   5.473   2.255   9.340 -0.7108 -1.4696 -2.5956
  166SOPE  C21218684   5.461   2.409   9.187 -0.6194  0.8027  0.9567
  166SOPE  H12R18685   5.552   2.389   9.126 -0.7739  0.7222  0.7543
  166SOPE  H12S18686   5.443   2.519   9.184  1.0566  1.1805  2.4582
  166SOPE  C21318687   5.335   2.352   9.113  0.5835  0.6253  0.1479
  166SOPE  H13R18688   5.300   2.404   9.021  1.4094  1.0353  0.0499
  166SOPE  H13S18689   5.255   2.344   9.189  1.2227 -2.0728  0.6399
  166SOPE  C21418690   5.356   2.208   9.052  0.1622 -0.6786  0.3877
  166SOPE  H14R18691   5.372   2.130   9.130 -0.6933 -0.0900  1.1841
  166SOPE  H14S18692   5.432   2.219   8.972 -0.4370  0.3372 -0.0733
  166SOPE  C21518693   5.226   2.178   8.964  0.0879  0.0967 -0.3199
  166SOPE  H15R18694   5.223   2.251   8.880 -1.0783  0.7137  0.2448
  166SOPE  H15S18695   5.129   2.183   9.018 -0.4259 -1.3936 -1.0491
  166SOPE  C21618696   5.237   2.038   8.899 -0.2838 -0.1141 -0.3138
  166SOPE  H16R18697   5.220   1.962   8.977  1.1718  0.6308  0.7847
  166SOPE  H16S18698   5.345   2.020   8.878 -0.1721 -0.3813  0.4842
  166SOPE  C21718699   5.150   2.019   8.782  0.8547  0.1503  0.2496
  166SOPE  H17R18700   5.172   2.099   8.707  0.8203 -0.2503 -0.1897
  166SOPE  H17S18701   5.042   2.023   8.807  0.0739  0.6600 -2.7746
  166SOPE  C21818702   5.166   1.891   8.702 -0.0259 -0.3148  0.6016
  166SOPE  H18R18703   5.163   1.806   8.774  1.0665  2.6231  4.4912
  166SOPE  H18S18704   5.269   1.886   8.660 -0.3961 -1.2127 -0.2458
  166SOPE  H18T18705   5.079   1.871   8.636 -0.2602 -0.0393  0.8235
  166SOPE   C3318706   5.924   2.143   9.940  0.2756  0.4012  0.2377
  166SOPE   H3X18707   5.827   2.126   9.888 -0.6086  0.2967  1.8447
  166SOPE   H3Y18708   5.941   2.056  10.006  1.9778  1.9349  1.9207
  166SOPE   C3418709   6.028   2.136   9.822  0.2190  0.0277  0.1261
  166SOPE   H4X18710   6.006   2.045   9.763 -3.2968  0.4555  0.5602
  166SOPE   H4Y18711   6.132   2.130   9.861  0.4463  3.0065  0.2480
  166SOPE   C3518712   6.023   2.250   9.724  0.0398  0.1094  0.1075
  166SOPE   H5X18713   6.071   2.331   9.782  0.3739 -0.6893  0.9754
  166SOPE   H5Y18714   5.917   2.278   9.707 -0.2831  0.0203  1.7775
  166SOPE   C3618715   6.099   2.226   9.594  0.3124 -0.1185  0.5646
  166SOPE   H6X18716   6.066   2.128   9.553 -0.7945  0.6348 -0.4597
  166SOPE   H6Y18717   6.207   2.225   9.619  0.1913 -0.0798  1.1029
  166SOPE   C3718718   6.070   2.347   9.500 -1.1447  0.1164  0.2762
  166SOPE   H7X18719   6.116   2.431   9.556  0.2278 -0.4254 -0.0050
  166SOPE   H7Y18720   5.962   2.368   9.484 -1.1458 -0.0087  0.1116
  166SOPE   C3818721   6.135   2.358   9.357 -0.6058  0.1550  0.2794
  166SOPE   H8X18722   6.237   2.313   9.349 -1.4609 -1.8731  0.2112
  166SOPE   H8Y18723   6.142   2.464   9.327 -1.5196 -0.1674 -1.1838
  166SOPE   C3918724   6.050   2.291   9.253  0.0354 -0.3292 -0.6425
  166SOPE   H9X18725   5.952   2.343   9.257  1.0970  1.7390  2.6825
  166SOPE   H9Y18726   6.041   2.181   9.271  0.8187 -0.4629 -1.0188
  166SOPE  C31018727   6.097   2.315   9.109 -0.6731  0.7385  0.1456
  166SOPE  H10X18728   6.201   2.276   9.102 -0.3317  1.3510  1.4116
  166SOPE  H10Y18729   6.097   2.424   9.085  2.2134  0.9382  0.6361
  166SOPE  C31118730   6.026   2.224   9.014 -0.1856 -0.1743 -0.0433
  166SOPE  H11X18731   5.917   2.230   9.032 -0.6269 -0.8420 -2.1747
  166SOPE  H11Y18732   6.050   2.116   9.026 -1.3493 -0.3365  1.0287
  166SOPE  C31218733   6.052   2.270   8.870 -0.0605 -0.0331  0.2308
  166SOPE  H12X18734   6.127   2.205   8.821  1.5733  1.7428  0.2745
  166SOPE  H12Y18735   6.098   2.370   8.866  0.3851 -0.2715 -1.0218
  166SOPE  C31318736   5.926   2.280   8.779 -0.0835  0.0188 -0.1026
  166SOPE  H13X18737   5.900   2.173   8.766  2.1205 -0.9921  2.7590
  166SOPE  H13Y18738   5.972   2.315   8.684  0.0111 -1.3551 -0.5887
  166SOPE  C31418739   5.817   2.377   8.831 -0.0598  0.6761  0.3459
  166SOPE  H14X18740   5.865   2.475   8.852 -0.9412  1.2689 -0.3180
  166SOPE  H14Y18741   5.777   2.346   8.930 -1.4486  1.3720  0.0394
  166SOPE  C31518742   5.708   2.394   8.731  0.5613  0.1098  0.1898
  166SOPE  H15X18743   5.678   2.295   8.689 -0.2038 -0.0352  1.0477
  166SOPE  H15Y18744   5.741   2.451   8.642 -1.5995 -1.5839 -1.8486
  166SOPE  C31618745   5.584   2.459   8.797  0.0678 -0.0303 -0.0290
  166SOPE  H16X18746   5.611   2.541   8.866  0.6548  0.2347 -0.5645
  166SOPE  H16Y18747   5.528   2.377   8.847 -1.6659  1.7688  1.1004
  166SOPE  C31718748   5.492   2.526   8.695 -0.6074 -0.3269  0.2130
  166SOPE  H17X18749   5.466   2.451   8.617  0.3523 -0.7865  0.3182
  166SOPE  H17Y18750   5.546   2.597   8.629 -0.2147 -1.5176 -0.7872
  166SOPE  C31818751   5.362   2.603   8.746 -0.1309  0.0809  0.4695
  166SOPE  H18X18752   5.397   2.695   8.797  2.3420 -0.4790 -0.0663
  166SOPE  H18Y18753   5.302   2.548   8.821 -1.9506 -0.7310 -1.4650
  166SOPE  H18Z18754   5.302   2.634   8.658  0.6915 -0.2219 -0.2201
  167SOPE     N18755   0.237   1.323   6.299  0.1224 -0.1841 -0.5795
  167SOPE   HN118756   0.228   1.238   6.238  0.5207 -0.5517 -0.1296
  167SOPE   HN218757   0.269   1.298   6.394  0.3788 -1.7710 -1.0485
  167SOPE   HN318758   0.140   1.358   6.315  0.6614  0.8366  0.5441
  167SOPE   C1218759   0.318   1.433   6.246 -0.3663 -0.0081  0.1024
  167SOPE  H12A18760   0.425   1.405   6.246  0.0656  1.4494 -1.6404
  167SOPE  H12B18761   0.318   1.521   6.314  2.1067  0.0272  0.1178
  167SOPE   C1118762   0.249   1.480   6.119  0.1302  0.5891 -0.4087
  167SOPE  H11A18763   0.247   1.395   6.048  1.1914  0.1872  0.0262
  167SOPE  H11B18764   0.321   1.554   6.078 -1.4063  1.8318 -0.9999
  167SOPE     P18765   0.048   1.609   6.019 -0.4243  0.1971 -0.0790
  167SOPE   O1318766  -0.021   1.517   5.927  0.0826 -0.0391 -0.2212
  167SOPE   O1418767   0.144   1.700   5.958  0.1269 -0.3115 -0.3922
  167SOPE   O1218768   0.120   1.538   6.138  0.1165 -0.0745 -0.9358
  167SOPE   O1118769  -0.058   1.707   6.087 -0.0069  0.3268 -0.8252
  167SOPE    C118770  -0.014   1.813   6.174 -0.3128  0.2452  0.0365
  167SOPE    HA18771  -0.099   1.884   6.182  0.1053  0.6403  1.1663
  167SOPE    HB18772   0.072   1.871   6.135 -0.8652  0.5897 -0.7058
  167SOPE    C218773   0.015   1.765   6.320 -0.6923  0.1519  0.2786
  167SOPE    HS18774   0.090   1.684   6.320 -0.9970 -0.2139  3.0322
  167SOPE   O2118775  -0.104   1.716   6.384 -0.0619  0.8185  0.3493
  167SOPE   C2118776  -0.100   1.584   6.419 -0.1460 -0.3033 -0.0438
  167SOPE   O2218777  -0.016   1.500   6.396 -0.4378  0.0737 -0.0663
  167SOPE   C2218778  -0.235   1.551   6.468 -0.4192 -0.1740  0.7257
  167SOPE   H2R18779  -0.235   1.440   6.482  2.3761 -0.4819 -0.9269
  167SOPE   H2S18780  -0.309   1.569   6.388  0.1446 -1.0359 -0.0047
  167SOPE    C318781   0.087   1.874   6.407  0.3521  0.3792  0.2380
  167SOPE    HX18782   0.022   1.962   6.389 -0.9838 -0.8343 -1.0606
  167SOPE    HY18783   0.191   1.900   6.376 -0.6356  2.2323 -1.7728
  167SOPE   O3118784   0.073   1.845   6.547  0.0332  0.0360  0.1388
  167SOPE   C3118785   0.171   1.778   6.602 -0.2946  0.5537  0.2285
  167SOPE   O3218786   0.271   1.742   6.543  0.4046 -0.4472 -0.2702
  167SOPE   C3218787   0.144   1.752   6.750  0.5551 -0.8755  0.3241
  167SOPE   H2X18788   0.047   1.700   6.766 -1.2030  2.4815  1.4653
  167SOPE   H2Y18789   0.149   1.845   6.810  0.9245  0.7806 -2.1510
  167SOPE   C2318790  -0.265   1.612   6.609  1.1690 -0.1425 -0.0124
  167SOPE   H3R18791  -0.373   1.635   6.620  1.0346 -1.4436  1.7213
  167SOPE   H3S18792  -0.216   1.712   6.610 -1.0630  1.0608 -1.5931
  167SOPE   C2418793  -0.220   1.525   6.723 -0.0591 -0.0353  0.2529
  167SOPE   H4R18794  -0.282   1.433   6.724  1.8194 -1.3605  1.0967
  167SOPE   H4S18795  -0.119   1.485   6.700 -0.4380 -1.8646  1.5146
  167SOPE   C2518796  -0.216   1.602   6.858  0.5760  0.8349 -0.5304
  167SOPE   H5R18797  -0.168   1.701   6.845  0.1629  1.2779  1.0799
  167SOPE   H5S18798  -0.319   1.618   6.895  0.6603  0.8393 -0.2977
  167SOPE   C2618799  -0.134   1.527   6.962 -0.7169 -0.0892 -0.3516
  167SOPE   H6R18800  -0.027   1.529   6.930 -0.6114 -0.4865 -0.0411
  167SOPE   H6S18801  -0.137   1.593   7.052 -0.5685 -0.4201 -0.1004
  167SOPE   C2718802  -0.178   1.383   6.991 -0.2718 -0.0316 -0.6110
  167SOPE   H7R18803  -0.283   1.367   7.027  0.3150  0.5658  1.5178
  167SOPE   H7S18804  -0.150   1.308   6.914  1.0153 -2.2584  1.8501
  167SOPE   C2818805  -0.103   1.330   7.117  0.0018 -0.3719  0.0116
  167SOPE   H8R18806  -0.132   1.224   7.134  1.5878 -0.4979  2.2625
  167SOPE   H8S18807   0.002   1.323   7.081  0.3392  1.3394  0.5728
  167SOPE   C2918808  -0.114   1.420   7.240  0.3265 -0.5935 -0.4170
  167SOPE   H9118809  -0.204   1.483   7.248  1.4882  0.8709  2.7443
  167SOPE  C21018810  -0.020   1.423   7.336  0.2636 -0.0041  0.2131
  167SOPE  H10118811  -0.031   1.498   7.416 -1.2125 -0.8460  0.8345
  167SOPE  C21118812   0.107   1.344   7.351 -0.0318  0.5084 -0.3786
  167SOPE  H11R18813   0.194   1.410   7.334  0.8541  0.3061  2.6973
  167SOPE  H11S18814   0.105   1.258   7.281 -3.6664  0.8646 -0.8826
  167SOPE  C21218815   0.135   1.294   7.491  0.2370  0.4368 -0.1723
  167SOPE  H12R18816   0.215   1.217   7.484 -0.6017 -0.3483 -1.2392
  167SOPE  H12S18817   0.044   1.238   7.520 -0.6648  2.2919  0.7544
  167SOPE  C21318818   0.160   1.414   7.589  0.4838 -0.1730  0.2097
  167SOPE  H13R18819   0.066   1.472   7.603  0.5986  0.2947 -0.8335
  167SOPE  H13S18820   0.225   1.493   7.544 -0.2413 -1.5021 -3.5821
  167SOPE  C21418821   0.193   1.353   7.728  0.5704 -0.2674 -0.2918
  167SOPE  H14R18822   0.250   1.429   7.787  1.3996 -0.7341 -0.4856
  167SOPE  H14S18823   0.265   1.269   7.720  0.3071 -0.5603  0.3169
  167SOPE  C21518824   0.077   1.304   7.817  0.4995 -0.0351  0.8769
  167SOPE  H15R18825   0.129   1.254   7.902 -1.0217 -2.4854  0.4826
  167SOPE  H15S18826   0.008   1.230   7.770  0.0847  1.4039 -0.8984
  167SOPE  C21618827  -0.007   1.425   7.860 -0.0582 -0.1298  0.4497
  167SOPE  H16R18828  -0.094   1.441   7.793  0.3462  1.1383  0.2060
  167SOPE  H16S18829   0.062   1.512   7.865 -1.4925  1.1265 -0.9313
  167SOPE  C21718830  -0.068   1.400   7.999 -0.3155  0.1844  0.1834
  167SOPE  H17R18831  -0.130   1.492   8.009 -0.0373  0.3292  0.6219
  167SOPE  H17S18832   0.012   1.396   8.076 -0.6940  0.8001  0.6210
  167SOPE  C21818833  -0.162   1.277   8.013 -0.0689  0.0329 -0.4343
  167SOPE  H18R18834  -0.232   1.297   8.097  1.4219 -0.4606  0.9666
  167SOPE  H18S18835  -0.109   1.183   8.041 -1.6455 -0.8298 -0.2544
  167SOPE  H18T18836  -0.211   1.250   7.917  0.2732  0.7326 -0.8139
  167SOPE   C3318837   0.254   1.656   6.811  0.3815 -0.1722  0.0646
  167SOPE   H3X18838   0.354   1.698   6.783 -1.2187  3.3988 -0.9109
  167SOPE   H3Y18839   0.247   1.553   6.772  0.5120 -0.5963  1.1289
  167SOPE   C3418840   0.238   1.660   6.956 -0.0066 -0.1843  0.3844
  167SOPE   H4X18841   0.149   1.613   7.003  1.1523 -0.1662  2.7455
  167SOPE   H4Y18842   0.224   1.768   6.979 -1.7353 -0.2299 -0.3618
  167SOPE   C3518843   0.360   1.625   7.034 -0.6096  0.4776 -0.4753
  167SOPE   H5X18844   0.456   1.656   6.987  0.7967 -2.9501 -0.2057
  167SOPE   H5Y18845   0.360   1.514   7.033  1.0363  0.4400  0.3779
  167SOPE   C3618846   0.349   1.655   7.189 -0.1198  0.0638  0.6550
  167SOPE   H6X18847   0.411   1.589   7.253  1.3884  1.4816  0.7421
  167SOPE   H6Y18848   0.250   1.625   7.229  0.5785 -1.6383  1.1963
  167SOPE   C3718849   0.382   1.807   7.236  0.5906  0.4435 -0.2177
  167SOPE   H7X18850   0.348   1.813   7.341  0.5243 -0.0810 -0.2054
  167SOPE   H7Y18851   0.315   1.865   7.169 -0.1911 -0.9411 -0.6828
  167SOPE   C3818852   0.526   1.851   7.217  0.3478  0.1025  0.5244
  167SOPE   H8X18853   0.555   1.876   7.113 -0.5383 -1.0525 -0.0209
  167SOPE   H8Y18854   0.582   1.756   7.230  1.4768  0.7268  0.3960
  167SOPE   C3918855   0.568   1.970   7.305 -0.2487  0.4060  0.1028
  167SOPE   H9X18856   0.498   2.053   7.283  0.3940  0.7702 -0.6178
  167SOPE   H9Y18857   0.667   1.997   7.261 -0.6663  1.1693 -0.3805
  167SOPE  C31018858   0.573   1.946   7.460 -0.1429  0.8588  0.3347
  167SOPE  H10X18859   0.638   1.857   7.478  0.0302  0.1961 -2.9570
  167SOPE  H10Y18860   0.472   1.915   7.494 -1.2369  1.3277 -2.2291
  167SOPE  C31118861   0.618   2.073   7.534 -0.0350 -0.3125 -0.0734
  167SOPE  H11X18862   0.554   2.156   7.495 -0.8422 -0.2551  1.3098
  167SOPE  H11Y18863   0.725   2.085   7.508  0.5760 -0.4740  2.1824
  167SOPE  C31218864   0.616   2.071   7.687 -0.3708  0.2975  0.3521
  167SOPE  H12X18865   0.661   1.973   7.713 -0.0275  0.1574 -0.6993
  167SOPE  H12Y18866   0.513   2.089   7.724  0.1885  1.3869  1.4269
  167SOPE  C31318867   0.701   2.181   7.746 -0.1823 -0.5113 -0.1038
  167SOPE  H13X18868   0.673   2.264   7.677  0.3492  0.6671  1.0406
  167SOPE  H13Y18869   0.807   2.158   7.728  0.2905  1.0895  0.4182
  167SOPE  C31418870   0.684   2.220   7.895  0.3874 -0.4954 -0.5177
  167SOPE  H14X18871   0.761   2.158   7.946 -0.2612 -0.7220  0.2185
  167SOPE  H14Y18872   0.583   2.189   7.932  1.0800  1.5124  3.6590
  167SOPE  C31518873   0.709   2.372   7.908 -0.0454  0.4714  0.4937
  167SOPE  H15X18874   0.633   2.429   7.851 -0.0782 -0.7701 -0.7412
  167SOPE  H15Y18875   0.807   2.392   7.858  2.1755 -0.3025  4.1389
  167SOPE  C31618876   0.732   2.423   8.056  0.4144 -0.1835  0.7959
  167SOPE  H16X18877   0.757   2.529   8.038  1.4811 -0.6220 -0.5068
  167SOPE  H16Y18878   0.827   2.386   8.102  1.7392  0.8139 -1.0105
  167SOPE  C31718879   0.609   2.406   8.146 -0.0088  0.3460 -0.0563
  167SOPE  H17X18880   0.582   2.298   8.143 -1.8774  0.7971 -0.3803
  167SOPE  H17Y18881   0.521   2.453   8.097 -1.0432 -1.3936  0.0217
  167SOPE  C31818882   0.624   2.456   8.284 -0.3286  0.6808 -0.3857
  167SOPE  H18X18883   0.700   2.536   8.293 -0.0948  0.3604  0.5706
  167SOPE  H18Y18884   0.666   2.370   8.340 -1.6535  0.3187  0.1004
  167SOPE  H18Z18885   0.535   2.474   8.348  0.0342 -2.6713  1.2830
  168SOPE     N18886   6.064   5.318   6.205  0.8753 -0.7806  0.4611
  168SOPE   HN118887   5.998   5.339   6.128  1.0200 -2.4008 -0.1615
  168SOPE   HN218888   6.151   5.372   6.188  0.7757 -0.6882  0.2341
  168SOPE   HN318889   6.086   5.221   6.174 -0.2923 -0.1863 -2.6621
  168SOPE   C1218890   6.002   5.328   6.337  0.6559 -0.5607 -0.6828
  168SOPE  H12A18891   5.960   5.430   6.345 -0.9986 -1.0405 -2.4619
  168SOPE  H12B18892   6.075   5.311   6.419 -0.3940  1.4589  0.7651
  168SOPE   C1118893   5.882   5.226   6.348 -0.5082  0.1633  0.0038
  168SOPE  H11A18894   5.808   5.269   6.277 -0.9605  0.0415  0.3903
  168SOPE  H11B18895   5.838   5.229   6.450  0.7065 -2.1790  0.6560
  168SOPE     P18896   5.917   4.970   6.387 -0.0549  0.0729 -0.1391
  168SOPE   O1318897   5.928   4.854   6.297  0.3939  0.1194 -0.1042
  168SOPE   O1418898   5.811   4.972   6.485 -0.3479 -0.5514 -0.6796
  168SOPE   O1218899   5.918   5.098   6.298  0.0220 -0.3710  0.1338
  168SOPE   O1118900   6.052   4.985   6.465  0.2664 -0.1889 -0.0963
  168SOPE    C118901   6.184   5.004   6.407  0.3018 -0.2390 -0.2366
  168SOPE    HA18902   6.187   5.106   6.362  0.0446 -0.3696 -0.5535
  168SOPE    HB18903   6.203   4.928   6.329  0.4670 -1.9176  1.3712
  168SOPE    C218904   6.292   4.998   6.505 -0.0296 -0.2649 -0.5456
  168SOPE    HS18905   6.303   4.902   6.561 -2.7738 -0.1217  0.3649
  168SOPE   O2118906   6.280   5.113   6.592  0.2732 -0.0297  0.2015
  168SOPE   C2118907   6.312   5.090   6.715  0.6576  0.3664 -0.1567
  168SOPE   O2218908   6.339   4.979   6.763 -0.1428  0.0889 -0.0127
  168SOPE   C2218909   6.305   5.214   6.800 -0.2068 -0.2243  0.0891
  168SOPE   H2R18910   6.202   5.253   6.787  0.4187  0.9288 -1.7139
  168SOPE   H2S18911   6.386   5.286   6.774  2.6071 -1.7353  3.6603
  168SOPE    C318912   6.428   5.009   6.421 -0.5032 -0.2341  0.0625
  168SOPE    HX18913   6.426   5.093   6.348  0.4289 -2.6534 -2.9910
  168SOPE    HY18914   6.427   4.921   6.353  2.3460  0.7933 -1.4827
  168SOPE   O3118915   6.544   5.019   6.507  0.4832  0.7433 -0.4973
  168SOPE   C3118916   6.602   4.896   6.528  0.1356  0.0179  0.6237
  168SOPE   O3218917   6.565   4.786   6.486  0.3504 -1.0913  0.7204
  168SOPE   C3218918   6.740   4.917   6.605  0.0172 -0.4669  0.2761
  168SOPE   H2X18919   6.753   5.027   6.615  0.0574  0.0169 -3.4711
  168SOPE   H2Y18920   6.811   4.887   6.525 -1.0645  0.1671 -0.9766
  168SOPE   C2318921   6.340   5.181   6.949 -0.8623  0.0263  0.3259
  168SOPE   H3R18922   6.445   5.144   6.940 -0.7521  0.1076  1.1938
  168SOPE   H3S18923   6.292   5.087   6.984  0.5674 -0.0211  2.3282
  168SOPE   C2418924   6.336   5.292   7.048 -0.1208 -0.2878 -0.4234
  168SOPE   H4R18925   6.416   5.367   7.030 -0.2594 -0.0336  0.0197
  168SOPE   H4S18926   6.237   5.342   7.050 -0.3478 -0.6805 -1.1334
  168SOPE   C2518927   6.364   5.254   7.192 -0.2135 -0.3772  0.1587
  168SOPE   H5R18928   6.302   5.167   7.223 -0.0951 -0.5066  0.0299
  168SOPE   H5S18929   6.471   5.228   7.206  0.5158  1.6370 -1.1386
  168SOPE   C2618930   6.334   5.355   7.297 -0.3601 -0.5463 -0.4632
  168SOPE   H6R18931   6.371   5.447   7.246  1.9586 -1.1324  0.0440
  168SOPE   H6S18932   6.228   5.381   7.318  0.7408  1.9151  2.8764
  168SOPE   C2718933   6.412   5.328   7.425  0.7136  0.4327  0.3203
  168SOPE   H7R18934   6.370   5.231   7.458 -1.4254  1.4751  0.8368
  168SOPE   H7S18935   6.520   5.314   7.403  0.8804  1.0658  0.7028
  168SOPE   C2818936   6.379   5.431   7.529 -0.1403 -0.1108  0.0025
  168SOPE   H8R18937   6.401   5.532   7.487  0.1178  0.8531  2.2859
  168SOPE   H8S18938   6.271   5.434   7.557 -0.2467  1.1143 -0.4791
  168SOPE   C2918939   6.463   5.410   7.643  0.6417 -0.1336 -0.1307
  168SOPE   H9118940   6.535   5.329   7.624 -0.8104 -1.2154 -1.3108
  168SOPE  C21018941   6.464   5.472   7.758  0.9820  0.0920  0.2408
  168SOPE  H10118942   6.540   5.448   7.834  1.6290  2.5135  0.4326
  168SOPE  C21118943   6.367   5.568   7.815 -0.0699 -0.4033  0.2138
  168SOPE  H11R18944   6.284   5.598   7.748  0.3807 -1.3681 -0.8037
  168SOPE  H11S18945   6.419   5.665   7.829 -2.8116  1.6645 -2.5427
  168SOPE  C21218946   6.302   5.523   7.946 -0.3019  0.0844 -0.1239
  168SOPE  H12R18947   6.374   5.510   8.028  0.8587  0.3368 -1.0734
  168SOPE  H12S18948   6.264   5.419   7.935  0.4163 -0.2574  0.5567
  168SOPE  C21318949   6.185   5.618   7.991 -0.2505  0.5412  0.0752
  168SOPE  H13R18950   6.093   5.613   7.929  1.3758  2.8248 -2.7893
  168SOPE  H13S18951   6.212   5.725   7.978 -0.4587  0.8040  1.5680
  168SOPE  C21418952   6.145   5.595   8.141 -0.6947 -0.5305  0.4031
  168SOPE  H14R18953   6.197   5.503   8.174  2.7814  1.4825  0.9581
  168SOPE  H14S18954   6.035   5.593   8.162 -0.6293  0.0177  0.8132
  168SOPE  C21518955   6.196   5.695   8.243  0.1800  0.0808  0.2230
  168SOPE  H15R18956   6.160   5.658   8.342 -0.3933  1.5421  0.5821
  168SOPE  H15S18957   6.162   5.798   8.220 -0.9645 -0.5785 -1.1726
  168SOPE  C21618958   6.348   5.719   8.248 -0.1745  0.1945  0.8596
  168SOPE  H16R18959   6.374   5.785   8.162  1.0322 -0.1435  0.9465
  168SOPE  H16S18960   6.396   5.619   8.234  0.8410  0.7895 -0.1821
  168SOPE  C21718961   6.392   5.783   8.380 -0.0674 -0.5683 -0.0079
  168SOPE  H17R18962   6.321   5.861   8.415  1.7035  0.7352  0.8485
  168SOPE  H17S18963   6.489   5.838   8.385 -0.8406  0.9582 -1.0664
  168SOPE  C21818964   6.406   5.682   8.492  0.0039  0.3848 -0.1928
  168SOPE  H18R18965   6.478   5.603   8.463  0.2474 -0.1118  1.6767
  168SOPE  H18S18966   6.314   5.625   8.513 -0.0521 -0.9243 -3.4429
  168SOPE  H18T18967   6.447   5.730   8.584 -1.1452  1.0572 -0.0121
  168SOPE   C3318968   6.754   4.833   6.737  0.5620  0.0897 -0.0017
  168SOPE   H3X18969   6.849   4.863   6.786  1.1102 -2.2466  0.4857
  168SOPE   H3Y18970   6.756   4.722   6.727 -0.9420 -0.1340  1.5670
  168SOPE   C3418971   6.651   4.869   6.840  0.7069 -0.2174 -0.0526
  168SOPE   H4X18972   6.553   4.853   6.789 -0.4854  0.0221  2.0434
  168SOPE   H4Y18973   6.652   4.979   6.849  1.2332 -0.1409 -0.9575
  168SOPE   C3518974   6.655   4.793   6.975  0.4425 -0.4510 -0.0691
  168SOPE   H5X18975   6.761   4.794   7.012 -0.1476  1.3519  1.8057
  168SOPE   H5Y18976   6.627   4.693   6.937 -0.1759 -0.0196 -0.7613
  168SOPE   C3618977   6.557   4.853   7.071  0.1407 -0.1652 -0.1994
  168SOPE   H6X18978   6.457   4.858   7.023  0.4783  4.0338 -0.8967
  168SOPE   H6Y18979   6.575   4.959   7.099 -0.8972 -0.3632  1.3979
  168SOPE   C3718980   6.538   4.784   7.210  0.9863 -0.0261 -0.1827
  168SOPE   H7X18981   6.638   4.802   7.255  2.3948 -1.8063 -2.3896
  168SOPE   H7Y18982   6.539   4.673   7.211  0.5069 -0.0422  1.6959
  168SOPE   C3818983   6.424   4.849   7.287  0.6225 -0.2744 -0.2032
  168SOPE   H8X18984   6.323   4.824   7.248  0.6160  0.9645 -1.0637
  168SOPE   H8Y18985   6.447   4.958   7.297  1.9766 -0.6379  1.0444
  168SOPE   C3918986   6.429   4.809   7.436  0.1349 -1.3453 -0.3553
  168SOPE   H9X18987   6.441   4.699   7.441 -1.8444 -1.5581  0.9624
  168SOPE   H9Y18988   6.329   4.827   7.480  1.1619  0.9104  1.2525
  168SOPE  C31018989   6.532   4.883   7.527 -0.0855 -0.2841 -0.8658
  168SOPE  H10X18990   6.550   4.985   7.487  1.8180 -0.3359 -0.2239
  168SOPE  H10Y18991   6.624   4.822   7.516  1.2785  1.2517  1.2378
  168SOPE  C31118992   6.477   4.897   7.674 -0.6788 -0.4044  0.6898
  168SOPE  H11X18993   6.489   4.802   7.732 -0.7629 -1.8407 -1.5494
  168SOPE  H11Y18994   6.370   4.926   7.669 -0.6121 -0.3841 -2.1241
  168SOPE  C31218995   6.559   5.007   7.743 -0.7104 -0.7851 -0.1227
  168SOPE  H12X18996   6.550   5.101   7.684  3.4829  1.4836  2.3331
  168SOPE  H12Y18997   6.667   4.982   7.742 -0.6863 -0.6760 -1.2240
  168SOPE  C31318998   6.500   5.048   7.879  0.3692  0.6049  0.2375
  168SOPE  H13X18999   6.447   4.961   7.921 -0.4786  1.2786  0.5887
  168SOPE  H13Y19000   6.422   5.124   7.855  0.2319  0.0085 -1.3317
  168SOPE  C31419001   6.596   5.111   7.979 -0.1523 -0.3948  0.5797
  168SOPE  H14X19002   6.641   5.194   7.922  0.6279 -1.8651 -1.0229
  168SOPE  H14Y19003   6.668   5.027   7.987 -1.6649 -2.0515 -1.8577
  168SOPE  C31519004   6.553   5.143   8.121  0.9798  0.2629 -0.2210
  168SOPE  H15X19005   6.554   5.046   8.176 -1.8368  0.7092  0.7937
  168SOPE  H15Y19006   6.451   5.188   8.121  0.7195 -0.2507 -2.0425
  168SOPE  C31619007   6.645   5.244   8.194 -0.2734  0.8899 -0.2825
  168SOPE  H16X19008   6.655   5.338   8.134  1.2385 -0.1166 -1.7145
  168SOPE  H16Y19009   6.747   5.200   8.199 -1.0531 -1.8946 -4.1201
  168SOPE  C31719010   6.595   5.285   8.335  0.4227  0.0289  0.4099
  168SOPE  H17X19011   6.599   5.201   8.408  2.9662 -1.4884 -1.3263
  168SOPE  H17Y19012   6.491   5.324   8.326  0.9498  1.1396 -1.1481
  168SOPE  C31819013   6.698   5.389   8.395  0.0572  0.4721  0.0513
  168SOPE  H18X19014   6.687   5.420   8.501 -0.8480  0.3349  0.0012
  168SOPE  H18Y19015   6.720   5.476   8.330 -1.7524  1.9369  1.2983
  168SOPE  H18Z19016   6.794   5.332   8.397 -0.0718  0.2498 -0.0255
  169SOPE     N19017   3.277   6.491   6.426  0.1568  0.5973  0.2867
  169SOPE   HN119018   3.329   6.412   6.382  1.8380  2.3491 -1.0346
  169SOPE   HN219019   3.285   6.467   6.527  1.7666 -1.9409 -0.3402
  169SOPE   HN319020   3.178   6.484   6.395  0.1426 -0.0092  0.4604
  169SOPE   C1219021   3.360   6.607   6.407  0.4718 -0.1906 -0.2100
  169SOPE  H12A19022   3.301   6.700   6.419  2.7366  1.2713  0.1889
  169SOPE  H12B19023   3.401   6.607   6.304 -0.8096 -0.9679 -0.7416
  169SOPE   C1119024   3.460   6.613   6.519 -0.6296 -0.5975 -0.1183
  169SOPE  H11A19025   3.426   6.663   6.613  2.1442  1.4915 -0.0819
  169SOPE  H11B19026   3.537   6.692   6.505 -0.5636  0.1031  3.2643
  169SOPE     P19027   3.664   6.457   6.526  0.4782 -0.0978 -0.2587
  169SOPE   O1319028   3.677   6.429   6.384 -0.4153  0.2120  0.8223
  169SOPE   O1419029   3.699   6.344   6.621 -0.0613 -0.3393 -0.4985
  169SOPE   O1219030   3.514   6.489   6.554  0.6617  0.1098 -0.2760
  169SOPE   O1119031   3.737   6.593   6.562  0.6779  0.0352 -0.3454
  169SOPE    C119032   3.756   6.636   6.698 -0.4322 -0.0383  0.1689
  169SOPE    HA19033   3.674   6.605   6.766  0.3980 -1.5989  0.5145
  169SOPE    HB19034   3.741   6.746   6.698 -1.5508 -0.1750  1.2323
  169SOPE    C219035   3.889   6.581   6.753 -0.2108  0.2839  0.1040
  169SOPE    HS19036   3.897   6.473   6.728 -1.8460  0.2551 -0.4616
  169SOPE   O2119037   3.887   6.595   6.897  0.1110 -0.5818 -0.1226
  169SOPE   C2119038   3.969   6.508   6.959 -0.7365  0.1128 -0.1771
  169SOPE   O2219039   4.018   6.408   6.907 -0.1880  0.0258  0.2401
  169SOPE   C2219040   3.963   6.522   7.112  0.0220 -0.0478  0.6142
  169SOPE   H2R19041   3.932   6.624   7.142 -1.6029 -0.4265  0.3230
  169SOPE   H2S19042   4.069   6.509   7.141  0.1538  0.4232  0.3503
  169SOPE    C319043   4.012   6.652   6.690  0.3674 -0.5163 -0.0005
  169SOPE    HX19044   4.004   6.636   6.580 -3.2813  1.2395 -0.1582
  169SOPE    HY19045   4.106   6.603   6.719 -0.0296 -1.0138  0.4607
  169SOPE   O3119046   4.003   6.799   6.728 -0.2452  0.0462  0.4548
  169SOPE   C3119047   4.036   6.824   6.853  0.1086  0.6092 -0.0074
  169SOPE   O3219048   4.105   6.750   6.927  0.0298 -0.9348  0.3655
  169SOPE   C3219049   3.969   6.952   6.900  0.4039  0.2046 -0.0421
  169SOPE   H2X19050   3.904   6.984   6.816 -1.2244  1.9741  1.7832
  169SOPE   H2Y19051   4.050   7.022   6.933  0.7733 -0.3785  0.3009
  169SOPE   C2319052   3.886   6.403   7.177 -0.8526 -0.0516  0.0298
  169SOPE   H3R19053   3.928   6.382   7.278 -1.4507  1.0833  0.5445
  169SOPE   H3S19054   3.913   6.309   7.124  0.8596  1.3555 -1.7375
  169SOPE   C2419055   3.729   6.431   7.177 -0.2357  0.0016  0.8948
  169SOPE   H4R19056   3.685   6.466   7.082  1.9132  1.3573  0.3128
  169SOPE   H4S19057   3.680   6.346   7.229 -0.1860 -0.8071 -0.3454
  169SOPE   C2519058   3.690   6.555   7.254 -0.3769  1.0676  0.3069
  169SOPE   H5R19059   3.730   6.649   7.211 -0.4769  0.7160 -0.5819
  169SOPE   H5S19060   3.580   6.567   7.245 -0.7241 -1.7117 -0.2017
  169SOPE   C2619061   3.721   6.557   7.403 -0.1003  0.0392 -1.0189
  169SOPE   H6R19062   3.689   6.464   7.455  1.1263  0.6351  0.9143
  169SOPE   H6S19063   3.828   6.583   7.420 -0.6347  1.4261  0.5769
  169SOPE   C2719064   3.629   6.663   7.463 -0.2193  0.0058 -0.3173
  169SOPE   H7R19065   3.658   6.748   7.398  0.5893 -0.8002 -1.0414
  169SOPE   H7S19066   3.525   6.633   7.440 -0.3293 -0.3927  0.6269
  169SOPE   C2819067   3.644   6.690   7.615  0.4171 -0.4362 -0.5895
  169SOPE   H8R19068   3.739   6.744   7.638  0.8488 -1.5511  0.3115
  169SOPE   H8S19069   3.560   6.758   7.641 -0.5881 -1.6546 -0.5508
  169SOPE   C2919070   3.630   6.572   7.710  0.7707 -0.5375  0.3159
  169SOPE   H9119071   3.527   6.534   7.719 -0.7668  3.3716  1.5829
  169SOPE  C21019072   3.716   6.532   7.809 -0.3674  0.7905  0.6513
  169SOPE  H10119073   3.691   6.445   7.872  0.6536 -0.4199 -0.5630
  169SOPE  C21119074   3.855   6.587   7.832  0.3117 -0.4786  0.3775
  169SOPE  H11R19075   3.873   6.685   7.784  1.0535 -0.5038  0.5947
  169SOPE  H11S19076   3.932   6.518   7.792  0.0894  0.3220 -1.5229
  169SOPE  C21219077   3.871   6.611   7.989 -0.1918  0.1024 -0.1984
  169SOPE  H12R19078   3.873   6.514   8.044 -1.0640  0.4248  0.4169
  169SOPE  H12S19079   3.786   6.668   8.031 -3.1025 -2.9458 -1.5119
  169SOPE  C21319080   4.004   6.677   8.024  0.5373 -0.1083  0.1238
  169SOPE  H13R19081   4.012   6.765   7.957 -1.3471  0.4910  0.6237
  169SOPE  H13S19082   4.089   6.609   8.004 -0.0929 -1.3929  1.6020
  169SOPE  C21419083   4.004   6.719   8.174  0.0360 -0.1848  0.7340
  169SOPE  H14R19084   4.001   6.621   8.228  0.4884 -1.7044 -1.8494
  169SOPE  H14S19085   3.918   6.784   8.199  0.2735  1.0472 -1.4640
  169SOPE  C21519086   4.127   6.795   8.222 -0.0397  0.3602 -0.3426
  169SOPE  H15R19087   4.153   6.881   8.155  2.1542  0.9878  1.2012
  169SOPE  H15S19088   4.208   6.724   8.197 -0.6610 -0.0873 -1.1178
  169SOPE  C21619089   4.131   6.840   8.371  0.6463  0.4395 -0.1516
  169SOPE  H16R19090   4.046   6.908   8.391  1.8127  1.9539 -0.1916
  169SOPE  H16S19091   4.222   6.900   8.392  1.0566  0.4581 -1.8518
  169SOPE  C21719092   4.115   6.713   8.463 -0.5199  0.2940 -0.1515
  169SOPE  H17R19093   4.194   6.636   8.449 -0.4082  0.0468  1.6248
  169SOPE  H17S19094   4.012   6.681   8.437 -0.7380  0.5842  0.3308
  169SOPE  C21819095   4.118   6.757   8.616 -0.7547  0.0991 -0.4654
  169SOPE  H18R19096   4.222   6.777   8.652 -0.6841 -0.3670 -0.4098
  169SOPE  H18S19097   4.084   6.670   8.676  0.1752  0.0751  0.0458
  169SOPE  H18T19098   4.048   6.841   8.636 -1.3437 -0.5691  0.3259
  169SOPE   C3319099   3.874   6.919   7.013 -0.6770 -0.4217 -0.4957
  169SOPE   H3X19100   3.848   6.810   7.009 -0.0562 -0.5273 -2.6111
  169SOPE   H3Y19101   3.772   6.964   7.011 -0.7736 -0.6453 -0.7791
  169SOPE   C3419102   3.941   6.962   7.152 -0.2807  0.3378 -0.9132
  169SOPE   H4X19103   3.973   7.068   7.145 -3.1752  1.3780 -0.0869
  169SOPE   H4Y19104   4.026   6.891   7.165  0.0567  1.0007  0.7928
  169SOPE   C3519105   3.853   6.944   7.277  0.4714  0.1367  0.5621
  169SOPE   H5X19106   3.883   6.852   7.332  0.8587 -0.3333 -0.4232
  169SOPE   H5Y19107   3.746   6.939   7.245  1.1352 -0.4775 -1.7688
  169SOPE   C3619108   3.859   7.048   7.390 -0.1825  0.2159 -0.3023
  169SOPE   H6X19109   3.829   7.146   7.345  3.1952  1.0944 -0.8985
  169SOPE   H6Y19110   3.967   7.065   7.408 -0.1219  1.7685 -1.8287
  169SOPE   C3719111   3.793   7.016   7.525  0.2172  0.0205 -0.2312
  169SOPE   H7X19112   3.840   6.927   7.573 -0.9421 -0.8079 -0.5747
  169SOPE   H7Y19113   3.685   6.989   7.522  0.1400  0.2113  0.6111
  169SOPE   C3819114   3.819   7.141   7.621  0.2486 -0.1250  0.4402
  169SOPE   H8X19115   3.930   7.153   7.615  0.1995 -0.3657 -1.9734
  169SOPE   H8Y19116   3.787   7.229   7.561 -0.2140 -0.5762  0.0241
  169SOPE   C3919117   3.759   7.144   7.761  0.4668 -0.5678  0.1714
  169SOPE   H9X19118   3.650   7.124   7.758  0.0545  1.5686 -0.6411
  169SOPE   H9Y19119   3.762   7.248   7.800  1.8991 -0.2817 -0.6540
  169SOPE  C31019120   3.821   7.043   7.857  0.2908  0.4955  0.3356
  169SOPE  H10X19121   3.932   7.041   7.861  0.2730 -0.8032  0.6169
  169SOPE  H10Y19122   3.795   6.943   7.815 -1.1051  0.3658  1.4243
  169SOPE  C31119123   3.756   7.070   7.996  0.0101  0.1360  0.1582
  169SOPE  H11X19124   3.645   7.078   7.990 -0.1954 -1.2596  1.5491
  169SOPE  H11Y19125   3.799   7.167   8.030  2.4608 -0.7669 -0.1265
  169SOPE  C31219126   3.792   6.968   8.103 -0.7944 -0.0019  0.6765
  169SOPE  H12X19127   3.902   6.972   8.117 -0.1044 -1.1065 -3.3201
  169SOPE  H12Y19128   3.765   6.868   8.063  3.0835 -2.0451  2.5678
  169SOPE  C31319129   3.717   6.988   8.236 -0.4147  0.4151  1.0691
  169SOPE  H13X19130   3.739   6.893   8.290 -0.2887 -0.3394 -0.2758
  169SOPE  H13Y19131   3.607   6.993   8.224 -0.2853  0.1024 -0.4457
  169SOPE  C31419132   3.771   7.101   8.328 -0.3065 -0.3104  0.0859
  169SOPE  H14X19133   3.747   7.198   8.280  0.5848  1.9350  3.8293
  169SOPE  H14Y19134   3.878   7.089   8.353  0.6684  2.5679 -2.1918
  169SOPE  C31519135   3.709   7.105   8.467  0.1134 -0.5323 -0.3875
  169SOPE  H15X19136   3.737   7.012   8.522  0.8827 -0.7411 -1.1046
  169SOPE  H15Y19137   3.598   7.108   8.463  0.0458 -0.4240  1.0588
  169SOPE  C31619138   3.745   7.228   8.557 -0.2489 -0.0368  1.1183
  169SOPE  H16X19139   3.702   7.203   8.657  3.2710 -1.0853  2.5326
  169SOPE  H16Y19140   3.703   7.322   8.516 -0.8829 -0.6736  0.2845
  169SOPE  C31719141   3.894   7.246   8.584 -0.4475  0.0665 -0.1899
  169SOPE  H17X19142   3.944   7.273   8.489 -1.6878  1.4145 -0.4960
  169SOPE  H17Y19143   3.936   7.147   8.614 -1.0541 -1.1413 -2.9956
  169SOPE  C31819144   3.926   7.360   8.680 -0.2797  0.2558 -0.1012
  169SOPE  H18X19145   4.034   7.383   8.695 -0.5723 -0.5030  4.8624
  169SOPE  H18Y19146   3.911   7.341   8.788  0.9689 -0.8631 -0.0929
  169SOPE  H18Z19147   3.879   7.456   8.650 -1.1364 -0.6075 -1.6511
  170SOPE     N19148   3.146   5.847   6.244 -0.1904  0.3910  0.4550
  170SOPE   HN119149   3.109   5.942   6.225 -0.6948 -0.1548 -1.5444
  170SOPE   HN219150   3.080   5.773   6.213 -0.8310  1.4054 -0.7040
  170SOPE   HN319151   3.159   5.842   6.346  1.9203  1.8092  0.3096
  170SOPE   C1219152   3.283   5.817   6.185  0.0622  0.6754  0.7900
  170SOPE  H12A19153   3.279   5.836   6.076  0.0376  2.3488  1.0635
  170SOPE  H12B19154   3.302   5.708   6.196  0.7496  0.5896 -0.9446
  170SOPE   C1119155   3.383   5.905   6.256  0.7131  0.3362  0.2058
  170SOPE  H11A19156   3.469   5.914   6.186  0.4927 -1.2494 -0.3076
  170SOPE  H11B19157   3.420   5.867   6.354  1.0417  2.1060  0.8200
  170SOPE     P19158   3.413   6.144   6.355  0.3465 -0.0956  0.0814
  170SOPE   O1319159   3.369   6.278   6.304  0.0800  0.8425 -0.2950
  170SOPE   O1419160   3.558   6.114   6.342  0.0830 -0.6035  0.4705
  170SOPE   O1219161   3.327   6.035   6.273 -0.4785 -0.4304 -0.1383
  170SOPE   O1119162   3.360   6.137   6.502  0.1470  0.1807  0.4552
  170SOPE    C119163   3.224   6.144   6.531  0.8226  0.9929 -0.0078
  170SOPE    HA19164   3.173   6.057   6.483 -0.3923  1.7133 -0.0624
  170SOPE    HB19165   3.178   6.236   6.488 -1.1664  0.0639  0.0072
  170SOPE    C219166   3.185   6.133   6.684  0.2455 -0.5327  0.0663
  170SOPE    HS19167   3.088   6.183   6.706 -0.2696 -1.6104  0.3262
  170SOPE   O2119168   3.293   6.191   6.762  0.0124 -0.3642 -0.5290
  170SOPE   C2119169   3.309   6.324   6.746 -0.0447  0.3388 -0.2943
  170SOPE   O2219170   3.227   6.390   6.686  0.2607  0.5131 -0.5765
  170SOPE   C2219171   3.428   6.381   6.826  0.0620 -1.1804  0.4402
  170SOPE   H2R19172   3.405   6.488   6.843 -3.4315 -1.1328 -3.1604
  170SOPE   H2S19173   3.517   6.367   6.760 -0.6049  0.6043 -0.8965
  170SOPE    C319174   3.167   5.989   6.736 -0.3458  0.5661 -0.9188
  170SOPE    HX19175   3.256   5.924   6.730 -0.2809  0.5483  0.0742
  170SOPE    HY19176   3.099   5.953   6.655 -1.5722  0.6394  0.0368
  170SOPE   O3119177   3.094   5.988   6.860  0.2241 -0.1478 -0.5323
  170SOPE   C3119178   3.167   5.972   6.974 -0.2200 -0.3038  0.0885
  170SOPE   O3219179   3.284   5.942   6.970 -0.2758  0.0262  0.2793
  170SOPE   C3219180   3.079   5.984   7.096 -0.1476  1.1822 -0.3367
  170SOPE   H2X19181   2.986   5.924   7.085 -1.0557  1.3314  4.5428
  170SOPE   H2Y19182   3.049   6.091   7.100 -0.6459  1.0664 -0.8474
  170SOPE   C2319183   3.440   6.308   6.965 -0.5668  0.4385  0.2647
  170SOPE   H3R19184   3.540   6.335   7.005 -0.5436 -0.4881  0.8681
  170SOPE   H3S19185   3.446   6.198   6.950 -2.2865  0.5523 -1.7700
  170SOPE   C2419186   3.321   6.363   7.053  0.0715  0.8770  0.4491
  170SOPE   H4R19187   3.314   6.474   7.052 -1.1920  0.8227  1.0132
  170SOPE   H4S19188   3.227   6.323   7.008  0.3539  1.9759 -1.1777
  170SOPE   C2519189   3.314   6.326   7.202 -0.0466  0.8295 -0.9945
  170SOPE   H5R19190   3.273   6.223   7.206  0.6057  0.6041  0.6093
  170SOPE   H5S19191   3.419   6.320   7.237 -0.8083 -1.4995  1.1131
  170SOPE   C2619192   3.250   6.427   7.298  0.1325 -0.0311  0.4249
  170SOPE   H6R19193   3.305   6.520   7.273  0.0375 -0.6280 -2.3196
  170SOPE   H6S19194   3.142   6.444   7.278  0.6715  1.6965 -1.2828
  170SOPE   C2719195   3.262   6.383   7.447 -0.1616 -0.8456  0.3927
  170SOPE   H7R19196   3.225   6.280   7.465  2.9381 -2.0262  0.7824
  170SOPE   H7S19197   3.371   6.380   7.470 -0.1709 -3.0128  0.4189
  170SOPE   C2819198   3.187   6.480   7.542  0.4687  0.6742 -0.2318
  170SOPE   H8R19199   3.082   6.479   7.508 -0.1339 -1.3377  1.4931
  170SOPE   H8S19200   3.186   6.419   7.635 -1.4801  2.1496  0.8089
  170SOPE   C2919201   3.247   6.616   7.547 -0.4141  0.6078  0.0419
  170SOPE   H9119202   3.276   6.657   7.449 -0.7046  0.0204 -0.3012
  170SOPE  C21019203   3.280   6.683   7.660 -0.0449  0.1626 -0.6872
  170SOPE  H10119204   3.313   6.788   7.653  1.1868 -0.0882  0.8290
  170SOPE  C21119205   3.262   6.637   7.809 -0.4425  0.3151  1.0687
  170SOPE  H11R19206   3.362   6.621   7.855  0.7837  1.0801 -1.1470
  170SOPE  H11S19207   3.216   6.536   7.824  1.8302 -1.0110 -0.2885
  170SOPE  C21219208   3.202   6.749   7.892 -0.9615  0.3213 -0.2826
  170SOPE  H12R19209   3.097   6.771   7.861 -1.2406 -0.1849  0.2842
  170SOPE  H12S19210   3.264   6.840   7.877 -0.3063  0.0823  0.8928
  170SOPE  C21319211   3.211   6.729   8.039 -0.1584 -0.1283 -0.3274
  170SOPE  H13R19212   3.317   6.730   8.071 -0.3430  1.9142  0.3430
  170SOPE  H13S19213   3.169   6.629   8.064 -1.0493 -0.8338 -3.9915
  170SOPE  C21419214   3.142   6.839   8.124  0.8893  0.1208 -0.0191
  170SOPE  H14R19215   3.032   6.825   8.125  0.0783  4.6400  2.1215
  170SOPE  H14S19216   3.157   6.940   8.079  0.3751  0.5741  0.8168
  170SOPE  C21519217   3.186   6.843   8.267 -1.1595 -0.3680 -0.1654
  170SOPE  H15R19218   3.293   6.870   8.278 -1.0832 -0.5068 -0.5643
  170SOPE  H15S19219   3.161   6.741   8.303 -1.1259 -0.7658 -1.2398
  170SOPE  C21619220   3.101   6.932   8.367  0.0195 -0.0935 -0.0812
  170SOPE  H16R19221   2.992   6.919   8.348 -0.7821  0.1867  3.6601
  170SOPE  H16S19222   3.114   7.042   8.360  0.4424 -0.1449 -0.1268
  170SOPE  C21719223   3.110   6.897   8.515  0.5834  0.0139 -1.0526
  170SOPE  H17R19224   3.207   6.933   8.555  1.0641 -2.7485  0.5077
  170SOPE  H17S19225   3.100   6.786   8.517  1.2415 -0.0439 -0.3273
  170SOPE  C21819226   2.999   6.954   8.608 -0.7293  0.3606 -0.3275
  170SOPE  H18R19227   3.021   6.925   8.713  0.4940 -1.2158 -0.9778
  170SOPE  H18S19228   2.901   6.919   8.569 -0.5356 -0.5200 -0.0539
  170SOPE  H18T19229   2.995   7.065   8.604  0.6722  0.4500  0.1512
  170SOPE   C3319230   3.147   5.949   7.229  0.0149  0.6604 -0.1768
  170SOPE   H3X19231   3.108   6.011   7.313 -0.7953 -0.7462  0.5114
  170SOPE   H3Y19232   3.258   5.961   7.229 -0.0304  1.0985  0.1140
  170SOPE   C3419233   3.130   5.803   7.281  0.3044  0.2568  0.4654
  170SOPE   H4X19234   3.192   5.749   7.206  2.1943  2.1101  0.6087
  170SOPE   H4Y19235   3.028   5.766   7.254  1.0600 -0.9782 -0.8446
  170SOPE   C3519236   3.165   5.795   7.430  0.2565  0.2057  0.4523
  170SOPE   H5X19237   3.102   5.864   7.491  0.5870  0.4688  0.4917
  170SOPE   H5Y19238   3.272   5.820   7.446  0.6425 -1.2256  0.2556
  170SOPE   C3619239   3.146   5.646   7.463  0.1967 -0.2343  0.1973
  170SOPE   H6X19240   3.237   5.588   7.433  0.4205  0.6105 -0.8317
  170SOPE   H6Y19241   3.068   5.613   7.392  0.5081 -1.0638  0.2288
  170SOPE   C3719242   3.118   5.619   7.613  0.3098 -0.2301  0.1566
  170SOPE   H7X19243   3.047   5.695   7.649  1.2668  0.4901  0.5590
  170SOPE   H7Y19244   3.216   5.632   7.665  0.6669 -1.8525 -0.0263
  170SOPE   C3819245   3.083   5.472   7.640 -0.0226 -0.7109 -0.1336
  170SOPE   H8X19246   3.007   5.452   7.562 -0.0043  0.6988 -0.5468
  170SOPE   H8Y19247   3.023   5.464   7.733  1.6463 -1.2294  0.9479
  170SOPE   C3919248   3.189   5.363   7.629  0.3405 -0.1170 -0.3514
  170SOPE   H9X19249   3.269   5.404   7.694  0.1402  1.2401 -0.9255
  170SOPE   H9Y19250   3.227   5.359   7.524 -0.4147 -2.3051 -0.6055
  170SOPE  C31019251   3.149   5.226   7.678  0.2393  0.3018  0.1364
  170SOPE  H10X19252   3.064   5.204   7.609  0.3069  2.1956 -0.5958
  170SOPE  H10Y19253   3.120   5.216   7.784 -2.5650 -0.2217 -0.6054
  170SOPE  C31119254   3.265   5.124   7.658  0.5296  0.2714 -0.0440
  170SOPE  H11X19255   3.338   5.127   7.741  0.5656 -1.6985  0.0226
  170SOPE  H11Y19256   3.320   5.166   7.572 -0.4658  2.9912  0.5219
  170SOPE  C31219257   3.220   4.982   7.629  0.0662 -0.1763  0.2002
  170SOPE  H12X19258   3.318   4.929   7.622  1.4044  2.2680 -1.0123
  170SOPE  H12Y19259   3.183   4.979   7.524 -2.0886 -0.3354  0.9249
  170SOPE  C31319260   3.123   4.911   7.731 -0.0386 -0.6475 -0.6783
  170SOPE  H13X19261   3.114   4.808   7.692  0.8276 -1.0430  0.1378
  170SOPE  H13Y19262   3.024   4.963   7.728  1.1206  1.7604  0.1125
  170SOPE  C31419263   3.180   4.919   7.871  0.6491 -0.1874 -0.9270
  170SOPE  H14X19264   3.196   5.023   7.907 -0.3459  0.1335 -1.3754
  170SOPE  H14Y19265   3.271   4.858   7.889  0.6559  0.5953  2.1494
  170SOPE  C31519266   3.073   4.857   7.974 -0.1743 -0.3790 -0.5015
  170SOPE  H15X19267   3.048   4.755   7.938 -0.5029 -0.0745 -1.1593
  170SOPE  H15Y19268   2.979   4.917   7.966  0.1254  0.0546 -0.8796
  170SOPE  C31619269   3.121   4.863   8.118  0.1668 -0.0754  0.0680
  170SOPE  H16X19270   3.147   4.968   8.142 -1.1212  0.4650 -0.7704
  170SOPE  H16Y19271   3.214   4.810   8.147 -0.3912 -1.5021 -0.6592
  170SOPE  C31719272   3.015   4.829   8.221  0.0993  0.8332  0.5534
  170SOPE  H17X19273   2.962   4.737   8.189 -1.3190  2.4213 -2.1243
  170SOPE  H17Y19274   2.935   4.906   8.229 -2.4816 -1.6505  0.2340
  170SOPE  C31819275   3.079   4.806   8.361 -0.5775  0.0215  0.7253
  170SOPE  H18X19276   3.121   4.905   8.388 -0.2658  0.1069 -0.0323
  170SOPE  H18Y19277   3.159   4.730   8.354 -1.7693 -1.1447 -1.3807
  170SOPE  H18Z19278   2.994   4.777   8.426 -1.0012 -1.8296 -0.5585
  171SOPE     N19279   2.329   2.354   6.173 -0.5360  0.8325 -0.3039
  171SOPE   HN119280   2.350   2.444   6.124 -1.7524  0.8068 -0.9122
  171SOPE   HN219281   2.420   2.317   6.208 -0.4491  1.2416 -0.0873
  171SOPE   HN319282   2.303   2.280   6.106  1.7811 -1.0553  0.7240
  171SOPE   C1219283   2.242   2.357   6.291  0.3871  0.1660 -0.4783
  171SOPE  H12A19284   2.138   2.371   6.252 -0.4412 -0.7269  1.3041
  171SOPE  H12B19285   2.278   2.448   6.343 -0.9195  1.8674 -2.3955
  171SOPE   C1119286   2.259   2.239   6.380  0.0410  0.1347 -0.2719
  171SOPE  H11A19287   2.183   2.253   6.461 -1.8075 -1.6511 -1.5928
  171SOPE  H11B19288   2.354   2.233   6.437  0.8542  2.0361 -1.3408
  171SOPE     P19289   2.118   2.026   6.299  0.5521  0.3950 -0.1021
  171SOPE   O1319290   2.150   1.896   6.230  0.1115 -0.0642  0.0275
  171SOPE   O1419291   1.996   2.087   6.247  0.5153  0.6056 -0.1791
  171SOPE   O1219292   2.246   2.119   6.302 -0.1802 -0.1163  0.0420
  171SOPE   O1119293   2.079   1.997   6.450 -0.3187 -0.0359 -0.1359
  171SOPE    C119294   2.175   1.932   6.530 -1.0410 -0.2490 -0.2818
  171SOPE    HA19295   2.166   1.963   6.636  0.7205  0.2717 -0.2653
  171SOPE    HB19296   2.279   1.953   6.500 -1.5678  2.8557 -0.2688
  171SOPE    C219297   2.146   1.772   6.528  0.7178  0.5154 -0.0539
  171SOPE    HS19298   2.117   1.736   6.427 -0.9176  0.1585  0.5108
  171SOPE   O2119299   2.045   1.744   6.631  0.5481  0.3381 -0.4881
  171SOPE   C2119300   1.935   1.681   6.598 -0.5060  0.2339 -0.0767
  171SOPE   O2219301   1.908   1.648   6.479  0.1073 -0.3278 -0.1721
  171SOPE   C2219302   1.853   1.637   6.720 -0.2649  0.1129 -0.1222
  171SOPE   H2R19303   1.852   1.526   6.713 -1.2272 -0.2632  3.8333
  171SOPE   H2S19304   1.748   1.672   6.707  1.1268  4.2311 -2.0440
  171SOPE    C319305   2.272   1.702   6.578 -0.5781 -0.3642 -0.3454
  171SOPE    HX19306   2.347   1.715   6.497 -0.4457  0.0153 -0.1644
  171SOPE    HY19307   2.268   1.591   6.579  1.3688 -0.5565 -2.8630
  171SOPE   O3119308   2.321   1.768   6.699  0.4755  0.1523  0.0020
  171SOPE   C3119309   2.329   1.703   6.809 -0.0120 -0.2204 -0.3152
  171SOPE   O3219310   2.309   1.584   6.822  0.8661  0.0858 -0.8208
  171SOPE   C3219311   2.373   1.793   6.925 -0.0227 -0.0413 -0.5628
  171SOPE   H2X19312   2.320   1.890   6.912 -0.3120 -0.3511 -1.8043
  171SOPE   H2Y19313   2.482   1.802   6.905 -0.3763  2.2759 -1.7656
  171SOPE   C2319314   1.915   1.675   6.849  0.4858  0.2648 -0.7733
  171SOPE   H3R19315   2.026   1.664   6.846  0.6232  0.4815  1.5886
  171SOPE   H3S19316   1.872   1.606   6.926 -0.5085 -0.0566 -1.5992
  171SOPE   C2419317   1.877   1.809   6.904 -0.2620  0.6629 -0.4129
  171SOPE   H4R19318   1.920   1.890   6.842  0.1983 -0.2297 -1.2991
  171SOPE   H4S19319   1.766   1.812   6.900 -0.2389  0.8991 -0.8959
  171SOPE   C2519320   1.940   1.840   7.042 -0.5135 -0.1922 -0.2801
  171SOPE   H5R19321   1.913   1.767   7.121  1.0311  0.2137  0.6605
  171SOPE   H5S19322   2.049   1.822   7.038 -0.4662  0.2229 -1.4929
  171SOPE   C2619323   1.904   1.979   7.079  0.0844 -0.0588  0.5376
  171SOPE   H6R19324   1.944   2.039   6.995 -0.1139 -1.4166 -0.5549
  171SOPE   H6S19325   1.794   1.987   7.085  0.0535  0.9322 -0.9431
  171SOPE   C2719326   1.976   2.024   7.217  0.8554  0.4014  0.2276
  171SOPE   H7R19327   2.082   1.995   7.203  0.5244 -1.1120  0.6272
  171SOPE   H7S19328   1.971   2.134   7.223 -1.0095  0.3494  0.3220
  171SOPE   C2819329   1.918   1.960   7.342 -0.2354  0.8365  0.4346
  171SOPE   H8R19330   1.906   1.852   7.319  0.5346  0.4904  1.5893
  171SOPE   H8S19331   2.000   1.968   7.417 -0.8229 -1.1588  1.3619
  171SOPE   C2919332   1.786   2.025   7.386 -0.7703 -0.9814 -1.1332
  171SOPE   H9119333   1.709   2.014   7.308 -1.3014 -1.7360 -0.5168
  171SOPE  C21019334   1.759   2.079   7.507  1.2654 -0.3440 -0.0810
  171SOPE  H10119335   1.653   2.104   7.521  2.2104  2.8894  2.4606
  171SOPE  C21119336   1.848   2.077   7.628 -0.8505 -0.4122 -0.3811
  171SOPE  H11R19337   1.924   2.158   7.628 -0.0996 -1.0963 -0.9814
  171SOPE  H11S19338   1.909   1.986   7.613 -2.3142 -1.2146 -1.7570
  171SOPE  C21219339   1.785   2.080   7.770 -0.1831  0.0779  0.0373
  171SOPE  H12R19340   1.717   1.993   7.773  1.9263 -1.7210 -1.2771
  171SOPE  H12S19341   1.713   2.165   7.776 -0.2561  0.1565 -1.6195
  171SOPE  C21319342   1.886   2.074   7.885 -0.1486 -0.5927  0.3086
  171SOPE  H13R19343   1.974   2.133   7.853  0.3492 -0.8865  1.0963
  171SOPE  H13S19344   1.921   1.970   7.903 -0.4100 -0.9854 -1.2778
  171SOPE  C21419345   1.817   2.129   8.022 -0.1930  0.1058 -0.3443
  171SOPE  H14R19346   1.887   2.109   8.106 -1.3050  1.1279  0.8922
  171SOPE  H14S19347   1.718   2.083   8.044  0.8893 -1.9972  0.4076
  171SOPE  C21519348   1.804   2.282   8.027  0.0903 -0.2146  0.5072
  171SOPE  H15R19349   1.713   2.320   7.977  0.8913 -0.4105 -1.1567
  171SOPE  H15S19350   1.892   2.325   7.973 -0.8566 -1.3893 -2.1169
  171SOPE  C21619351   1.811   2.338   8.166 -0.2062 -0.8994 -0.2277
  171SOPE  H16R19352   1.793   2.447   8.148  1.8514 -0.7521 -1.8290
  171SOPE  H16S19353   1.910   2.339   8.218 -0.3775  1.4363  0.1846
  171SOPE  C21719354   1.702   2.278   8.252  0.6571  0.2810 -0.4141
  171SOPE  H17R19355   1.623   2.225   8.195  0.3060 -1.9376  1.9392
  171SOPE  H17S19356   1.636   2.358   8.293 -2.8574 -2.3682 -0.3996
  171SOPE  C21819357   1.753   2.185   8.368  0.5363  0.2534  0.2719
  171SOPE  H18R19358   1.667   2.135   8.418 -0.7087  0.4462 -1.5961
  171SOPE  H18S19359   1.808   2.257   8.432  2.4562 -0.1295 -0.8782
  171SOPE  H18T19360   1.825   2.115   8.322  0.1817 -0.0515  0.1851
  171SOPE   C3319361   2.356   1.732   7.068 -0.7877  0.6027  0.2653
  171SOPE   H3X19362   2.406   1.633   7.072 -1.1289  0.4479  0.6607
  171SOPE   H3Y19363   2.247   1.719   7.080 -0.3627 -2.3886  1.6357
  171SOPE   C3419364   2.407   1.826   7.175  0.1878  0.4803 -0.0266
  171SOPE   H4X19365   2.388   1.932   7.150  1.1804  1.4035  2.7705
  171SOPE   H4Y19366   2.517   1.816   7.186  0.0987 -1.1913 -0.2919
  171SOPE   C3519367   2.350   1.786   7.315 -0.2162  0.6855 -0.8151
  171SOPE   H5X19368   2.394   1.687   7.341 -1.6583  0.4629  0.9088
  171SOPE   H5Y19369   2.239   1.785   7.312 -0.2362  2.0871 -2.7668
  171SOPE   C3619370   2.408   1.892   7.418  0.2066  0.4179  0.2752
  171SOPE   H6X19371   2.393   1.999   7.391  1.2632  0.4611 -0.1995
  171SOPE   H6Y19372   2.518   1.873   7.418 -0.0076 -1.0192  1.7460
  171SOPE   C3719373   2.347   1.847   7.554  0.0887 -0.8883 -0.4795
  171SOPE   H7X19374   2.383   1.744   7.574 -1.0429 -1.2248 -0.1015
  171SOPE   H7Y19375   2.238   1.847   7.533 -1.1250  2.4486  4.2149
  171SOPE   C3819376   2.392   1.948   7.665  0.4374 -0.8361 -0.0102
  171SOPE   H8X19377   2.327   2.038   7.666  1.9474  0.2749  0.2495
  171SOPE   H8Y19378   2.490   1.991   7.637  0.1895  0.0701  0.5018
  171SOPE   C3919379   2.400   1.869   7.801  0.1029 -0.3182 -0.0262
  171SOPE   H9X19380   2.458   1.775   7.787  0.1721 -0.7338  2.4908
  171SOPE   H9Y19381   2.294   1.840   7.814  0.1342 -0.5871 -0.3679
  171SOPE  C31019382   2.446   1.945   7.928  0.8312 -0.6849  1.0416
  171SOPE  H10X19383   2.552   1.971   7.912  0.3947 -0.0401 -1.1879
  171SOPE  H10Y19384   2.435   1.884   8.020  1.1347 -1.2771  0.6915
  171SOPE  C31119385   2.369   2.070   7.955 -0.5454  0.0661  0.3444
  171SOPE  H11X19386   2.260   2.048   7.963 -0.4724 -0.2611  0.4428
  171SOPE  H11Y19387   2.377   2.141   7.870  0.5474 -0.9237 -0.3981
  171SOPE  C31219388   2.418   2.136   8.087 -0.2999 -0.2276  0.3881
  171SOPE  H12X19389   2.527   2.154   8.082  0.3817 -3.8062 -1.8476
  171SOPE  H12Y19390   2.405   2.061   8.167  0.9178 -1.0855 -0.1807
  171SOPE  C31319391   2.331   2.265   8.115 -0.5031  0.2487  0.2198
  171SOPE  H13X19392   2.227   2.233   8.138 -1.1342  2.0043 -0.0297
  171SOPE  H13Y19393   2.323   2.333   8.027 -2.9057 -0.9827 -0.5751
  171SOPE  C31419394   2.379   2.325   8.249 -0.3231 -0.4412  0.2413
  171SOPE  H14X19395   2.488   2.346   8.244 -0.0481 -1.4987  1.3500
  171SOPE  H14Y19396   2.367   2.248   8.327 -2.8363  0.1678  0.5588
  171SOPE  C31519397   2.308   2.457   8.272  0.4593  0.1830  0.2651
  171SOPE  H15X19398   2.198   2.441   8.275  0.5073 -0.3503 -0.3374
  171SOPE  H15Y19399   2.323   2.522   8.183  0.5899  1.3227  1.1147
  171SOPE  C31619400   2.345   2.535   8.395  0.1165 -0.7761 -0.1135
  171SOPE  H16X19401   2.452   2.555   8.413  0.0590 -1.2685  0.8327
  171SOPE  H16Y19402   2.315   2.467   8.477 -1.5130 -1.8697 -1.5478
  171SOPE  C31719403   2.265   2.665   8.398  0.3355 -0.0005 -0.5506
  171SOPE  H17X19404   2.244   2.690   8.504  2.8894 -1.6615  0.4541
  171SOPE  H17Y19405   2.162   2.646   8.362  0.4302 -1.7759  0.0214
  171SOPE  C31819406   2.331   2.781   8.328 -0.1654 -0.3394 -0.1519
  171SOPE  H18X19407   2.355   2.760   8.222  3.2526  1.6759  0.0974
  171SOPE  H18Y19408   2.433   2.805   8.365 -0.1586  0.2389 -0.5411
  171SOPE  H18Z19409   2.260   2.866   8.331  1.7825  1.3166  0.6640
  172SOPE     N19410   3.672   2.214   6.322 -0.3212  0.3049  0.2489
  172SOPE   HN119411   3.774   2.206   6.306 -0.3748  1.6239 -0.9586
  172SOPE   HN219412   3.658   2.293   6.389 -0.7198 -0.8788  1.6134
  172SOPE   HN319413   3.631   2.132   6.372  1.7308 -0.6503  0.4604
  172SOPE   C1219414   3.586   2.234   6.201  0.4254  0.2931 -0.1063
  172SOPE  H12A19415   3.483   2.255   6.236  0.9899  0.2004  1.7591
  172SOPE  H12B19416   3.579   2.136   6.149  0.4118  0.8836 -1.2481
  172SOPE   C1119417   3.633   2.350   6.107 -0.3431 -0.0733 -0.3914
  172SOPE  H11A19418   3.564   2.345   6.020 -1.7197 -1.4713  0.7310
  172SOPE  H11B19419   3.737   2.316   6.088  0.3900  1.2434  1.0300
  172SOPE     P19420   3.751   2.568   6.205  0.0497 -0.0417 -0.1257
  172SOPE   O1319421   3.712   2.683   6.293  0.2666 -0.3326  0.4383
  172SOPE   O1419422   3.822   2.603   6.086  0.3166 -0.6260 -0.5130
  172SOPE   O1219423   3.627   2.482   6.166  0.0816  0.5247  0.3656
  172SOPE   O1119424   3.844   2.464   6.283  0.1734  0.7800 -0.8246
  172SOPE    C119425   3.966   2.505   6.338 -0.0522 -0.6495 -0.2554
  172SOPE    HA19426   3.979   2.615   6.329  0.7646 -0.8658 -2.3350
  172SOPE    HB19427   4.058   2.469   6.288  0.5543  2.4236 -1.5768
  172SOPE    C219428   3.970   2.472   6.490 -0.4364 -0.1651 -0.5327
  172SOPE    HS19429   3.968   2.361   6.496  0.8562 -0.1366  1.1603
  172SOPE   O2119430   3.868   2.541   6.566 -0.2903  0.3359 -0.2024
  172SOPE   C2119431   3.756   2.472   6.591 -0.2951 -0.1140 -0.7907
  172SOPE   O2219432   3.739   2.359   6.564  0.3093  0.5900 -0.3574
  172SOPE   C2219433   3.643   2.563   6.660 -0.0554 -0.0865  0.7811
  172SOPE   H2R19434   3.583   2.499   6.728  0.0570 -0.5581  0.4399
  172SOPE   H2S19435   3.580   2.601   6.577  0.6057  0.1683  0.3873
  172SOPE    C319436   4.103   2.522   6.557 -0.3438  0.3304  0.6450
  172SOPE    HX19437   4.109   2.629   6.526  0.5271 -0.0161 -0.4554
  172SOPE    HY19438   4.198   2.474   6.526  0.4623  0.5915  2.6141
  172SOPE   O3119439   4.091   2.506   6.700  0.3058 -0.2073 -0.3048
  172SOPE   C3119440   4.176   2.427   6.764  0.5270 -0.2608  0.2499
  172SOPE   O3219441   4.253   2.356   6.709  0.2675  0.3514  0.3980
  172SOPE   C3219442   4.176   2.451   6.910 -0.2482  0.2854 -0.5719
  172SOPE   H2X19443   4.106   2.535   6.929  0.5985  0.8045  0.3743
  172SOPE   H2Y19444   4.274   2.491   6.943 -0.2599 -0.5007  0.4740
  172SOPE   C2319445   3.692   2.687   6.740  0.3780 -0.2179 -0.3273
  172SOPE   H3R19446   3.606   2.756   6.749 -1.2566 -2.0851 -0.9610
  172SOPE   H3S19447   3.772   2.742   6.686  1.7079 -1.0337  0.7468
  172SOPE   C2419448   3.743   2.657   6.882  0.1029  0.3124  0.7661
  172SOPE   H4R19449   3.664   2.599   6.935 -0.3219 -0.1421 -0.3194
  172SOPE   H4S19450   3.837   2.599   6.881  1.0011  1.7023 -1.1820
  172SOPE   C2519451   3.775   2.785   6.967 -0.4802  0.3120 -0.6351
  172SOPE   H5R19452   3.847   2.842   6.904  1.7143 -1.2601  0.3241
  172SOPE   H5S19453   3.680   2.838   6.986  0.3223  1.3891  0.4987
  172SOPE   C2619454   3.847   2.768   7.096 -0.2067 -0.1440  0.8676
  172SOPE   H6R19455   3.930   2.698   7.073 -3.0032 -3.3073 -0.2407
  172SOPE   H6S19456   3.892   2.867   7.121 -0.1500  1.2537 -3.8253
  172SOPE   C2719457   3.767   2.713   7.214 -0.6476 -0.1246  0.2723
  172SOPE   H7R19458   3.679   2.777   7.237  0.1934  1.0760  0.2532
  172SOPE   H7S19459   3.727   2.611   7.197 -0.2065 -0.8795  3.2009
  172SOPE   C2819460   3.845   2.707   7.348 -0.0626  0.0248 -0.4825
  172SOPE   H8R19461   3.932   2.637   7.347  0.9642  1.1569  1.8231
  172SOPE   H8S19462   3.876   2.810   7.373 -1.1981 -0.1355  1.9164
  172SOPE   C2919463   3.763   2.651   7.462 -0.2674 -0.1942  0.1841
  172SOPE   H9119464   3.713   2.558   7.429  1.2454 -1.4684  1.3068
  172SOPE  C21019465   3.761   2.674   7.594  0.2513  0.1707  0.1369
  172SOPE  H10119466   3.684   2.630   7.658  1.2716 -1.1798  0.4979
  172SOPE  C21119467   3.832   2.785   7.658 -0.7808  0.0371  0.3494
  172SOPE  H11R19468   3.768   2.871   7.687 -0.0403  0.3233  1.1977
  172SOPE  H11S19469   3.913   2.828   7.594  2.3756 -1.3505  3.1191
  172SOPE  C21219470   3.899   2.741   7.783  0.1988 -0.2692 -0.7108
  172SOPE  H12R19471   3.938   2.830   7.836 -1.5390 -0.2200  0.5663
  172SOPE  H12S19472   3.983   2.668   7.772  1.5645  0.6852  2.2857
  172SOPE  C21319473   3.801   2.696   7.893 -0.3874  0.3485  0.2782
  172SOPE  H13R19474   3.769   2.590   7.883  0.0330  0.3034 -0.6857
  172SOPE  H13S19475   3.708   2.748   7.862  0.5310  1.4606 -0.7050
  172SOPE  C21419476   3.852   2.730   8.031  0.2727  0.0353 -0.0771
  172SOPE  H14R19477   3.879   2.837   8.047 -1.0805  0.4856 -0.6079
  172SOPE  H14S19478   3.943   2.668   8.045  1.6526  1.9701 -0.0956
  172SOPE  C21519479   3.755   2.671   8.146 -0.0194  0.5150  0.6242
  172SOPE  H15R19480   3.792   2.567   8.161 -1.6893  0.0038  1.3678
  172SOPE  H15S19481   3.656   2.679   8.097  0.2809  0.3253 -0.0265
  172SOPE  C21619482   3.763   2.761   8.276 -0.4483  0.3408 -0.1152
  172SOPE  H16R19483   3.677   2.749   8.345 -3.2269  3.0544 -2.7585
  172SOPE  H16S19484   3.743   2.863   8.237 -2.5107 -0.6387 -1.8093
  172SOPE  C21719485   3.901   2.756   8.357  0.1527 -0.2335  0.2382
  172SOPE  H17R19486   3.980   2.734   8.282 -0.9202 -2.5539 -0.2893
  172SOPE  H17S19487   3.909   2.670   8.427  2.9979  0.0978  0.4511
  172SOPE  C21819488   3.934   2.890   8.431  0.0604  0.1391  0.6012
  172SOPE  H18R19489   3.862   2.913   8.512 -1.1778 -1.0877 -0.1247
  172SOPE  H18S19490   3.931   2.977   8.361 -2.2520 -0.6402 -0.3784
  172SOPE  H18T19491   4.032   2.870   8.479  0.1342  0.6856  0.6841
  172SOPE   C3319492   4.132   2.329   6.985 -0.1382  0.1520 -0.5576
  172SOPE   H3X19493   4.194   2.242   6.956 -1.4277 -2.3470  3.3975
  172SOPE   H3Y19494   4.025   2.307   6.965 -0.1532 -0.9435  0.6160
  172SOPE   C3419495   4.134   2.339   7.139  0.3837  0.3872 -0.2477
  172SOPE   H4X19496   4.080   2.429   7.176  1.8248  0.7176  1.1610
  172SOPE   H4Y19497   4.233   2.354   7.187 -0.6715 -0.4294  2.3469
  172SOPE   C3519498   4.068   2.219   7.208 -0.8983 -0.3261 -1.0819
  172SOPE   H5X19499   4.103   2.126   7.158  0.1780 -0.5204 -0.0384
  172SOPE   H5Y19500   3.957   2.220   7.202 -1.1249 -0.0745  1.6495
  172SOPE   C3619501   4.089   2.213   7.357  0.3880 -0.3882 -0.3808
  172SOPE   H6X19502   4.189   2.242   7.396 -0.0635 -1.0489  1.3386
  172SOPE   H6Y19503   4.059   2.113   7.393 -0.9924  1.1390  3.1948
  172SOPE   C3719504   3.979   2.305   7.431  0.7719 -0.2709 -0.3926
  172SOPE   H7X19505   3.875   2.291   7.393  0.4523 -0.1659  0.4085
  172SOPE   H7Y19506   4.011   2.411   7.417 -3.6844  1.4454  0.6592
  172SOPE   C3819507   3.965   2.285   7.580 -0.0618 -0.3964  0.2938
  172SOPE   H8X19508   3.942   2.187   7.625 -0.9926  0.7669  2.4961
  172SOPE   H8Y19509   3.879   2.341   7.622  0.0514 -0.4597  0.6171
  172SOPE   C3919510   4.085   2.341   7.665  0.3331  0.7130  0.9479
  172SOPE   H9X19511   4.136   2.423   7.610 -1.1831  0.9763 -0.1278
  172SOPE   H9Y19512   4.151   2.253   7.679 -0.2766  0.1823  0.5407
  172SOPE  C31019513   4.049   2.377   7.804 -0.0781  0.1061  0.0429
  172SOPE  H10X19514   3.971   2.455   7.786  0.6142  0.2824 -2.7323
  172SOPE  H10Y19515   4.132   2.428   7.857 -1.9342  2.0529  1.2010
  172SOPE  C31119516   3.979   2.273   7.896 -1.1813 -0.4078 -0.3038
  172SOPE  H11X19517   4.057   2.200   7.926 -0.7093  0.9984  2.1567
  172SOPE  H11Y19518   3.894   2.224   7.843 -1.9138  0.9620 -0.4395
  172SOPE  C31219519   3.941   2.336   8.028  0.4523  0.1684 -0.7718
  172SOPE  H12X19520   3.853   2.292   8.079  1.1107  0.1803  0.4149
  172SOPE  H12Y19521   3.909   2.442   8.017  1.7503  0.7515  0.5911
  172SOPE  C31319522   4.047   2.339   8.140 -0.8081  0.5583  0.2079
  172SOPE  H13X19523   4.123   2.418   8.122 -1.4289  0.6343 -2.5555
  172SOPE  H13Y19524   4.092   2.241   8.167 -1.9381 -0.0093  0.0981
  172SOPE  C31419525   3.987   2.375   8.278  0.6974  0.9714 -0.8911
  172SOPE  H14X19526   3.900   2.307   8.291  2.0761 -1.3353 -2.8552
  172SOPE  H14Y19527   3.955   2.481   8.275  0.4944  1.0438  1.4960
  172SOPE  C31519528   4.084   2.358   8.401 -0.1317  0.6317  0.3394
  172SOPE  H15X19529   4.175   2.414   8.370 -0.5062  0.7865 -0.5057
  172SOPE  H15Y19530   4.117   2.252   8.409  2.3131  1.4603  3.2116
  172SOPE  C31619531   4.024   2.401   8.537 -0.2497  0.2026 -0.0057
  172SOPE  H16X19532   3.950   2.321   8.557  0.7956 -0.7862 -0.0093
  172SOPE  H16Y19533   3.956   2.489   8.529  0.5232  0.7879 -0.2736
  172SOPE  C31719534   4.118   2.413   8.661 -0.3350 -0.0426 -0.2632
  172SOPE  H17X19535   4.145   2.311   8.697 -0.6561 -0.2323 -0.5457
  172SOPE  H17Y19536   4.053   2.437   8.748  1.5710 -0.3981  1.3133
  172SOPE  C31819537   4.230   2.517   8.642 -0.6224 -0.4396 -0.0194
  172SOPE  H18X19538   4.191   2.621   8.643 -0.5501 -0.3950 -0.7351
  172SOPE  H18Y19539   4.290   2.495   8.550 -1.0870 -0.8761 -0.2213
  172SOPE  H18Z19540   4.302   2.511   8.726 -0.9911 -0.6784  0.2779
  173SAPI   C1219541   5.044   0.460  10.464 -0.4442  0.0025 -0.5564
  173SAPI    H219542   4.940   0.496  10.478 -0.9801 -1.7728  0.4347
  173SAPI    O219543   5.081   0.382  10.582  0.2277  0.0122 -0.1373
  173SAPI   HO219544   5.023   0.413  10.652 -0.1172 -0.8232 -0.0363
  173SAPI   C1319545   5.023   0.365  10.347  0.0676  0.2477 -0.2683
  173SAPI    H319546   4.987   0.415  10.255 -2.2927 -3.4230 -1.5680
  173SAPI    O319547   4.926   0.264  10.378 -0.4948 -0.4439 -0.2540
  173SAPI   HO319548   4.955   0.208  10.450 -2.1184 -0.3661  0.5118
  173SAPI   C1419549   5.156   0.297  10.313  0.2342 -0.4157 -0.0542
  173SAPI    H419550   5.187   0.232  10.398  0.4724 -0.6719 -0.3368
  173SAPI    O419551   5.145   0.202  10.203  0.8219  0.1529  0.1322
  173SAPI   HO419552   5.060   0.162  10.223  0.2988  1.2881  0.2805
  173SAPI   C1519553   5.262   0.402  10.278  0.4660 -0.1609  0.5333
  173SAPI    H519554   5.223   0.457  10.190 -1.3359  1.5759  2.3199
  173SAPI    O519555   5.389   0.339  10.256  0.0194  0.4318 -0.0239
  173SAPI   HO519556   5.377   0.262  10.200  1.5217  0.2033 -0.0923
  173SAPI   C1619557   5.276   0.504  10.391  0.1496  0.3210 -0.2308
  173SAPI    H619558   5.318   0.456  10.481 -0.7418 -0.5443 -0.2644
  173SAPI    O619559   5.366   0.610  10.359  0.4329 -0.1575  0.4918
  173SAPI   HO619560   5.404   0.646  10.440  2.6752 -2.4814  0.6039
  173SAPI   C1119561   5.143   0.567  10.428 -0.0600  0.3522 -0.1147
  173SAPI    H119562   5.100   0.611  10.335 -0.7599  0.9209  0.4692
  173SAPI     P19563   5.066   0.777  10.584 -0.0037  0.2068  0.1719
  173SAPI   O1319564   5.121   0.821  10.713  0.6263  0.2531 -0.0019
  173SAPI   O1419565   4.927   0.726  10.581 -0.0029 -0.0695  0.2056
  173SAPI   O1219566   5.168   0.657  10.534  0.2955 -0.0454 -0.1164
  173SAPI   O1119567   5.083   0.890  10.475 -0.6929  0.6286  0.1047
  173SAPI    C119568   5.217   0.941  10.445 -0.1354 -0.4325 -0.4871
  173SAPI    HA19569   5.243   1.017  10.522 -1.2487  1.2586 -1.7035
  173SAPI    HB19570   5.296   0.863  10.438  3.0753  2.5932 -1.1550
  173SAPI    C219571   5.229   0.992  10.300  0.6993 -0.6093  0.3808
  173SAPI    HS19572   5.138   1.052  10.275 -1.6595 -3.5600  1.2916
  173SAPI   O2119573   5.244   0.875  10.209  0.0438 -0.0076  0.8575
  173SAPI   C2119574   5.129   0.841  10.157  0.4843  0.0668 -0.4016
  173SAPI   O2219575   5.021   0.893  10.176  0.1185 -0.1148 -0.7384
  173SAPI   C2219576   5.151   0.720  10.065  0.2307 -0.4176 -0.1766
  173SAPI   H2R19577   5.179   0.746   9.961 -1.0032 -2.4433 -1.0847
  173SAPI   H2S19578   5.235   0.667  10.115  1.9142  2.5292  0.3545
  173SAPI    C319579   5.347   1.088  10.280  0.8174  0.1510 -0.0487
  173SAPI    HX19580   5.442   1.031  10.282  0.5853 -0.3209 -1.2876
  173SAPI    HY19581   5.342   1.169  10.356 -0.7877  0.3419 -0.3131
  173SAPI   O3119582   5.329   1.137  10.149 -0.5693  0.2999 -0.6381
  173SAPI   C3119583   5.417   1.234  10.115  0.3486  0.8478 -0.2456
  173SAPI   O3219584   5.502   1.279  10.190  0.0829  0.4464  0.2617
  173SAPI   C3219585   5.392   1.270   9.963 -0.0644  0.1113  0.2231
  173SAPI   H2X19586   5.358   1.375   9.962 -1.0447 -0.1835 -0.9829
  173SAPI   H2Y19587   5.309   1.205   9.926 -0.5408  1.6448 -1.5301
  173SAPI   C2319588   5.028   0.629  10.039 -0.2699 -1.0538  0.4805
  173SAPI   H3R19589   4.961   0.693   9.978  2.0748 -0.1127 -1.2463
  173SAPI   H3S19590   4.998   0.599  10.142  2.6052 -0.8022  1.5018
  173SAPI   C2419591   5.054   0.505   9.939  0.0535 -0.0776 -0.2374
  173SAPI   H4R19592   4.955   0.461   9.915 -1.1519  2.0658  0.5525
  173SAPI   H4S19593   5.100   0.422   9.997  1.0969 -1.0350 -2.3327
  173SAPI   C2519594   5.132   0.534   9.809  0.1980  0.7837 -0.0678
  173SAPI   H5R19595   5.123   0.638   9.775 -1.9685  0.0017 -2.1031
  173SAPI   C2619596   5.225   0.452   9.757 -0.3925  0.7126  0.6884
  173SAPI   H6R19597   5.281   0.499   9.674  2.2606 -1.0125  1.3884
  173SAPI   C2719598   5.268   0.316   9.795  0.1179  0.6691 -0.7078
  173SAPI   H7R19599   5.279   0.249   9.707 -2.2388 -2.1771  0.9691
  173SAPI   H7S19600   5.184   0.264   9.847  0.7547  0.6911  0.3829
  173SAPI   C2819601   5.384   0.317   9.891 -0.7507 -0.1852  0.6037
  173SAPI   H8R19602   5.356   0.358   9.989  0.3741 -2.8742  2.1711
  173SAPI   C2919603   5.511   0.272   9.877 -0.3324 -0.7415 -0.4315
  173SAPI   H9R19604   5.581   0.292   9.959  0.5538 -2.0822 -0.8291
  173SAPI  C21019605   5.567   0.199   9.764  0.0816 -0.1977 -0.6603
  173SAPI  H10R19606   5.678   0.210   9.761  0.3604 -0.9918  2.6042
  173SAPI  H10S19607   5.510   0.227   9.673  0.0108  1.6039 -0.0922
  173SAPI  C21119608   5.550   0.052   9.785  0.3032  0.6948  0.1063
  173SAPI  H11R19609   5.540   0.008   9.886  0.4625  0.3763 -0.0171
  173SAPI  C21219610   5.565  -0.037   9.686  0.1049 -0.4402  0.1301
  173SAPI  H12R19611   5.566  -0.146   9.703 -1.6792 -0.4858  0.1288
  173SAPI  C21319612   5.599  -0.014   9.543 -0.0181 -0.2952  0.0088
  173SAPI  H13R19613   5.680  -0.086   9.518  0.1509 -0.1815  0.2273
  173SAPI  H13S19614   5.639   0.089   9.532  0.0605  0.1793  3.5213
  173SAPI  C21419615   5.482  -0.045   9.448 -0.0522 -0.6121  0.1998
  173SAPI  H14R19616   5.414  -0.124   9.481  0.3558 -0.5887  1.1173
  173SAPI  C21519617   5.473   0.014   9.327 -0.0814  0.4184 -0.3056
  173SAPI  H15R19618   5.383  -0.016   9.272  0.1667  2.1803 -1.7958
  173SAPI  C21619619   5.569   0.116   9.261 -0.0629 -0.0410 -0.1122
  173SAPI  H16R19620   5.645   0.140   9.338 -1.6793  0.4914  1.3895
  173SAPI  H16S19621   5.512   0.211   9.259 -2.1960 -1.2022  1.1761
  173SAPI  C21719622   5.603   0.081   9.111  0.5665  0.5912  0.1176
  173SAPI  H17R19623   5.610   0.183   9.068  1.5625  0.1163 -0.9053
  173SAPI  H17S19624   5.507   0.030   9.086  0.6485  0.3276  0.3342
  173SAPI  C21819625   5.725   0.003   9.090  0.0965  0.4283 -0.1932
  173SAPI  H18R19626   5.719  -0.088   9.154  1.2215  1.5111  1.5570
  173SAPI  H18S19627   5.813   0.053   9.137  0.7080 -0.6153 -0.2091
  173SAPI  C21919628   5.760  -0.029   8.947  0.9913 -0.2006  0.0243
  173SAPI  H19R19629   5.867  -0.058   8.944  0.3501 -3.1274  1.1843
  173SAPI  H19S19630   5.739   0.059   8.883  0.3182 -0.1946  0.2378
  173SAPI  C22019631   5.683  -0.155   8.894  0.3953 -0.6195 -0.4887
  173SAPI  H20R19632   5.711  -0.202   8.797  3.8985 -0.3610  0.2798
  173SAPI  H20S19633   5.572  -0.146   8.898  0.0741 -3.8109  2.8206
  173SAPI  H20T19634   5.699  -0.237   8.967 -0.3846 -2.4350 -2.2287
  173SAPI   C3319635   5.515   1.258   9.878 -0.1999 -0.3315 -0.4222
  173SAPI   H3X19636   5.577   1.167   9.889 -1.9704 -1.8593 -2.2272
  173SAPI   H3Y19637   5.583   1.341   9.905 -0.9748  0.1624  0.0379
  173SAPI   C3419638   5.473   1.266   9.733 -0.3117  0.6953 -0.4500
  173SAPI   H4X19639   5.388   1.335   9.715  0.1433  1.5533  0.5673
  173SAPI   H4Y19640   5.437   1.163   9.714  1.1780 -0.1520  1.0703
  173SAPI   C3519641   5.590   1.295   9.639 -0.6776 -0.0664  0.3256
  173SAPI   H5X19642   5.674   1.225   9.662 -1.8190 -0.9000  2.1549
  173SAPI   H5Y19643   5.642   1.391   9.660  0.7594 -0.4137 -1.3428
  173SAPI   C3619644   5.560   1.295   9.488 -0.0650 -0.8534 -0.6651
  173SAPI   H6X19645   5.647   1.338   9.433  1.5413 -0.0752  2.2500
  173SAPI   H6Y19646   5.471   1.354   9.459  0.1478  2.1097  3.6783
  173SAPI   C3719647   5.549   1.145   9.436  0.1726  0.2951 -0.2637
  173SAPI   H7X19648   5.480   1.083   9.497  0.8673 -2.8935 -2.4800
  173SAPI   H7Y19649   5.644   1.104   9.477 -0.2770 -0.8614 -0.3376
  173SAPI   C3819650   5.536   1.134   9.285  0.6124 -0.5460  0.3433
  173SAPI   H8X19651   5.620   1.186   9.236  0.2502 -0.7561 -0.5127
  173SAPI   H8Y19652   5.454   1.201   9.253 -0.7028  0.0756  4.3539
  173SAPI   C3919653   5.514   0.991   9.234 -0.5782 -0.4501 -0.3753
  173SAPI   H9X19654   5.427   0.934   9.275 -1.4405 -0.0322 -1.5759
  173SAPI   H9Y19655   5.595   0.920   9.261 -0.7175 -0.4144  0.1483
  173SAPI  C31019656   5.496   0.993   9.080  0.6754  0.4481  0.3840
  173SAPI  H10X19657   5.572   1.063   9.040  0.9074 -0.9162 -1.7011
  173SAPI  H10Y19658   5.395   1.025   9.047  0.2752 -0.4126  0.7547
  173SAPI  C31119659   5.536   0.861   9.015 -0.4288 -0.5471 -0.2470
  173SAPI  H11X19660   5.462   0.783   9.045  0.1166  0.0871  3.1150
  173SAPI  H11Y19661   5.628   0.825   9.064  0.2263  0.9205 -0.3461
  173SAPI  C31219662   5.559   0.858   8.864 -0.0208  0.1185 -0.4743
  173SAPI  H12X19663   5.659   0.898   8.838 -0.1248  0.9537  0.3692
  173SAPI  H12Y19664   5.485   0.928   8.818  2.2662  3.3794  0.4196
  173SAPI  C31319665   5.550   0.719   8.815  0.4835  0.5047  0.4062
  173SAPI  H13X19666   5.455   0.673   8.848  1.3367 -1.8962 -0.2864
  173SAPI  H13Y19667   5.628   0.662   8.870 -1.8700 -2.2747  1.1142
  173SAPI  C31419668   5.560   0.705   8.666 -0.3320 -1.0529  0.0240
  173SAPI  H14X19669   5.587   0.600   8.641 -0.0325 -0.3726 -2.8632
  173SAPI  H14Y19670   5.650   0.765   8.639 -0.8148 -0.7276 -0.8807
  173SAPI  C31519671   5.422   0.737   8.605 -0.5131  0.1758 -0.1497
  173SAPI  H15X19672   5.390   0.843   8.612  1.1825  0.5967  3.4547
  173SAPI  H15Y19673   5.334   0.684   8.647  0.2670 -1.7882 -0.8978
  173SAPI  C31619674   5.416   0.689   8.458 -0.2539 -0.2234 -0.6837
  173SAPI  H16X19675   5.310   0.686   8.427 -0.7456 -0.3942  0.8983
  173SAPI  H16Y19676   5.449   0.583   8.454  0.7691  0.0097  0.6484
  173SAPI  C31719677   5.501   0.774   8.356 -0.7535  0.5456 -0.7510
  173SAPI  H17X19678   5.609   0.754   8.370 -0.6699  1.0286 -0.6802
  173SAPI  H17Y19679   5.469   0.878   8.379 -2.0850 -0.1458  0.7484
  173SAPI  C31819680   5.467   0.750   8.213  0.0024  0.2122  0.6388
  173SAPI  H18X19681   5.507   0.833   8.150 -0.0399 -0.2956 -0.0773
  173SAPI  H18Y19682   5.360   0.740   8.182  0.2411 -1.2757  0.2035
  173SAPI  H18Z19683   5.517   0.661   8.169 -0.9397 -0.1622  0.2824
  174SAPI   C1219684   1.241   2.316  10.901 -0.8914  0.4414  0.2354
  174SAPI    H219685   1.206   2.211  10.908  0.7923 -0.0555  2.4223
  174SAPI    O219686   1.193   2.386  11.016 -0.1468 -0.0670 -0.4918
  174SAPI   HO219687   1.178   2.316  11.081  1.8318 -1.1111 -1.0859
  174SAPI   C1319688   1.387   2.305  10.896 -0.2870 -0.5427  0.2691
  174SAPI    H319689   1.420   2.247  10.807  0.4769  2.8351 -1.8403
  174SAPI    O319690   1.432   2.227  11.006 -0.0129  0.5016 -0.2082
  174SAPI   HO319691   1.415   2.278  11.085  0.2256  0.6874 -0.2746
  174SAPI   C1419692   1.453   2.445  10.887  0.1643  0.1760  0.0824
  174SAPI    H419693   1.435   2.499  10.982  2.1792  1.4132 -0.1725
  174SAPI    O419694   1.597   2.434  10.875  0.0214  0.0327 -0.2253
  174SAPI   HO419695   1.622   2.350  10.836  0.8925 -0.2979  0.9654
  174SAPI   C1519696   1.392   2.522  10.771  0.4647 -0.5283  0.0979
  174SAPI    H519697   1.427   2.471  10.678 -1.9760 -0.8574 -0.6911
  174SAPI    O519698   1.449   2.648  10.757 -0.1354  0.0319 -0.1646
  174SAPI   HO519699   1.500   2.673  10.834 -0.1295 -1.6616  0.4234
  174SAPI   C1619700   1.241   2.524  10.774  0.3296 -0.1303 -0.3997
  174SAPI    H619701   1.216   2.590  10.860  3.0216 -1.5261  1.5812
  174SAPI    O619702   1.204   2.580  10.647  0.2904 -0.3785 -0.3111
  174SAPI   HO619703   1.118   2.547  10.617 -0.3371  2.5308 -2.2291
  174SAPI   C1119704   1.178   2.391  10.778 -0.5325  0.4064 -0.1206
  174SAPI    H119705   1.216   2.341  10.685  1.1715  2.5276 -0.6447
  174SAPI     P19706   0.941   2.277  10.741 -0.3412  0.1848  0.0879
  174SAPI   O1319707   0.804   2.333  10.759 -0.0196  0.1526  0.6898
  174SAPI   O1419708   0.975   2.157  10.823 -0.1595 -0.4304 -0.8947
  174SAPI   O1219709   1.038   2.402  10.774 -0.4990 -0.1024  0.3503
  174SAPI   O1119710   0.969   2.235  10.590 -0.1943 -0.1215 -0.0865
  174SAPI    C119711   0.862   2.219  10.496  0.5407 -0.1216 -0.2442
  174SAPI    HA19712   0.836   2.112  10.483 -1.1298  0.1215  0.7100
  174SAPI    HB19713   0.771   2.270  10.535 -0.0694  0.6293 -2.5023
  174SAPI    C219714   0.897   2.289  10.360  0.1930  1.2489  0.5190
  174SAPI    HS19715   0.803   2.298  10.300  0.2256 -2.2685 -0.3271
  174SAPI   O2119716   0.988   2.203  10.290 -0.3696 -0.6269 -0.1130
  174SAPI   C2119717   0.941   2.103  10.226 -0.8809 -0.2635 -0.8120
  174SAPI   O2219718   0.824   2.076  10.218 -0.2720  0.0924  0.1027
  174SAPI   C2219719   1.060   2.021  10.173  0.1021  0.3651  0.1349
  174SAPI   H2R19720   1.140   2.024  10.250 -0.6637  0.0402  0.9701
  174SAPI   H2S19721   1.030   1.915  10.164 -0.0491  0.1973  2.1160
  174SAPI    C319722   0.953   2.431  10.374 -0.0226 -0.2297 -0.0848
  174SAPI    HX19723   1.047   2.428  10.433 -0.4491  1.7630  0.7866
  174SAPI    HY19724   0.874   2.482  10.434  1.6698  2.3625  0.1180
  174SAPI   O3119725   0.967   2.498  10.248 -0.0565 -0.0495  0.0921
  174SAPI   C3119726   1.078   2.477  10.170 -0.4150 -0.1032  0.1179
  174SAPI   O3219727   1.181   2.425  10.210 -0.0301 -0.8668  0.0882
  174SAPI   C3219728   1.057   2.524  10.026 -0.6488 -0.2391  0.4288
  174SAPI   H2X19729   1.036   2.633  10.022  2.3777  0.4110 -2.4596
  174SAPI   H2Y19730   0.967   2.474   9.983 -0.9208  0.2304  0.4410
  174SAPI   C2319731   1.112   2.069  10.036 -0.6734 -0.2805 -0.1402
  174SAPI   H3R19732   1.203   2.010  10.010  0.7380  1.3742  0.8244
  174SAPI   H3S19733   1.141   2.176  10.043  1.0946 -0.7206 -0.3894
  174SAPI   C2419734   1.003   2.058   9.929 -0.3165  0.2238  0.7162
  174SAPI   H4R19735   0.911   2.109   9.966 -0.5949  1.4618 -1.5106
  174SAPI   H4S19736   0.976   1.950   9.926 -0.3639  0.0908  3.2612
  174SAPI   C2519737   1.038   2.124   9.799  0.5257 -0.4302  0.1573
  174SAPI   H5R19738   0.994   2.224   9.793  2.2536  0.3318 -0.2591
  174SAPI   C2619739   1.105   2.071   9.694  0.3438 -0.2238 -0.3238
  174SAPI   H6R19740   1.097   2.134   9.604 -3.2816  0.9435  0.6884
  174SAPI   C2719741   1.167   1.940   9.658  0.4996 -0.2337 -0.0817
  174SAPI   H7R19742   1.091   1.882   9.601  2.5603 -1.6456 -1.5404
  174SAPI   H7S19743   1.197   1.880   9.746  0.7142 -0.7355 -0.4920
  174SAPI   C2819744   1.302   1.944   9.594  0.4717 -0.3736 -0.2153
  174SAPI   H8R19745   1.380   1.937   9.671  1.7402 -1.1894 -1.5176
  174SAPI   C2919746   1.321   1.962   9.462  0.5964 -0.2727 -0.2720
  174SAPI   H9R19747   1.426   1.965   9.427 -0.0822 -0.5728 -2.5521
  174SAPI  C21019748   1.214   1.986   9.356 -0.1797 -0.4782 -0.4808
  174SAPI  H10R19749   1.273   2.030   9.272 -0.9942  4.4716  1.2345
  174SAPI  H10S19750   1.131   2.053   9.386 -0.6755 -0.7614 -1.1903
  174SAPI  C21119751   1.159   1.860   9.302 -0.4337 -0.5942 -0.0370
  174SAPI  H11R19752   1.191   1.766   9.350 -1.7737 -0.9004  0.3162
  174SAPI  C21219753   1.078   1.853   9.194 -0.2289  0.7783  0.0995
  174SAPI  H12R19754   1.058   1.754   9.149 -1.2218  1.3228 -0.6973
  174SAPI  C21319755   1.038   1.968   9.108  0.1597 -0.2283 -0.0581
  174SAPI  H13R19756   1.089   1.964   9.009  0.5280  2.4264 -0.0392
  174SAPI  H13S19757   1.072   2.063   9.154 -1.1116  1.0622 -1.6131
  174SAPI  C21419758   0.891   1.986   9.095  0.4624  0.5769 -0.1749
  174SAPI  H14R19759   0.835   2.008   9.188  1.6052 -0.6000  0.8142
  174SAPI  C21519760   0.822   1.995   8.977 -0.0858  0.7895 -0.9379
  174SAPI  H15R19761   0.713   1.989   8.975 -0.0360 -3.9685 -3.1057
  174SAPI  C21619762   0.886   1.969   8.838  0.2028 -0.3215 -0.1252
  174SAPI  H16R19763   0.844   1.879   8.787  1.6783 -0.7945 -0.5524
  174SAPI  H16S19764   0.992   1.937   8.833  1.0296  2.1996 -0.2283
  174SAPI  C21719765   0.856   2.074   8.735  0.8459 -0.1859 -0.3347
  174SAPI  H17R19766   0.895   2.168   8.780  2.1507 -0.5934 -0.5647
  174SAPI  H17S19767   0.746   2.074   8.721  0.9242  1.7320 -1.3120
  174SAPI  C21819768   0.934   2.053   8.599 -0.1496 -0.4035 -0.2085
  174SAPI  H18R19769   0.890   1.984   8.523 -0.2738  0.5159 -0.9840
  174SAPI  H18S19770   1.028   1.998   8.622  0.6850  0.7155 -0.8105
  174SAPI  C21919771   0.972   2.186   8.534 -0.8891  0.0276  0.5763
  174SAPI  H19R19772   1.080   2.204   8.557 -0.2693 -3.1317  0.7008
  174SAPI  H19S19773   0.923   2.269   8.589  1.5401  1.4270  0.7624
  174SAPI  C22019774   0.940   2.191   8.390 -0.9465  0.2772 -0.2262
  174SAPI  H20R19775   0.931   2.296   8.353 -0.7375  0.2080 -0.4741
  174SAPI  H20S19776   0.839   2.149   8.371 -0.1238 -1.6417 -0.5618
  174SAPI  H20T19777   1.016   2.137   8.329 -0.4015 -0.6092  1.1845
  174SAPI   C3319778   1.173   2.484   9.934  0.1735  0.2293  0.5230
  174SAPI   H3X19779   1.191   2.374   9.938  5.1388  0.7584 -0.9905
  174SAPI   H3Y19780   1.266   2.540   9.954  0.1682  0.8732 -1.0767
  174SAPI   C3419781   1.134   2.510   9.789 -0.3888 -0.3919 -0.1473
  174SAPI   H4X19782   1.128   2.620   9.781  0.7526 -0.3109 -0.0631
  174SAPI   H4Y19783   1.031   2.467   9.779 -0.0124 -2.1870  2.7120
  174SAPI   C3519784   1.222   2.444   9.690 -0.1212  0.5385 -0.1563
  174SAPI   H5X19785   1.222   2.335   9.712 -1.0816  0.6237  0.3197
  174SAPI   H5Y19786   1.329   2.473   9.699  0.0180 -0.1685  0.5248
  174SAPI   C3619787   1.173   2.462   9.542  0.5390  0.4501  0.3632
  174SAPI   H6X19788   1.173   2.569   9.511 -1.3505  1.5118  3.6238
  174SAPI   H6Y19789   1.070   2.421   9.541 -0.2276  2.2583  0.6993
  174SAPI   C3719790   1.242   2.382   9.431 -0.2018  0.7225 -0.0344
  174SAPI   H7X19791   1.259   2.277   9.462 -2.9983 -0.3191 -1.6822
  174SAPI   H7Y19792   1.335   2.438   9.407  1.1138  0.6058  3.9657
  174SAPI   C3819793   1.153   2.379   9.300 -0.4507 -0.5673 -0.4853
  174SAPI   H8X19794   1.126   2.486   9.290  0.6414 -0.1154  1.0362
  174SAPI   H8Y19795   1.075   2.308   9.335  0.6764 -1.3366  0.5763
  174SAPI   C3919796   1.223   2.338   9.176 -0.1326  0.6845  0.4920
  174SAPI   H9X19797   1.261   2.234   9.186 -1.0490 -0.2797 -3.8262
  174SAPI   H9Y19798   1.307   2.410   9.165  0.0471  0.5640  1.0345
  174SAPI  C31019799   1.149   2.348   9.040 -0.2934  0.1068 -0.1440
  174SAPI  H10X19800   1.097   2.446   9.041 -1.1540 -0.3096 -1.4358
  174SAPI  H10Y19801   1.073   2.267   9.038 -0.6169  0.3801  0.7246
  174SAPI  C31119802   1.255   2.340   8.919  0.1197 -0.5219 -0.0897
  174SAPI  H11X19803   1.341   2.400   8.957 -2.1717  1.8845  1.7441
  174SAPI  H11Y19804   1.205   2.379   8.828  1.1354  1.6452  0.2060
  174SAPI  C31219805   1.291   2.195   8.899  0.1984  0.2128  0.9582
  174SAPI  H12X19806   1.202   2.132   8.876  1.3149 -1.0192 -0.1561
  174SAPI  H12Y19807   1.335   2.146   8.989  0.4497 -0.5044  0.4561
  174SAPI  C31319808   1.369   2.172   8.774  0.2196 -0.0853  0.4444
  174SAPI  H13X19809   1.475   2.207   8.774  0.6376 -1.2832  0.0549
  174SAPI  H13Y19810   1.310   2.222   8.694 -0.9557 -1.1799  0.5896
  174SAPI  C31419811   1.383   2.018   8.738 -0.6158 -0.2616 -0.3618
  174SAPI  H14X19812   1.277   1.984   8.750 -0.8756  0.3296 -0.9090
  174SAPI  H14Y19813   1.461   1.989   8.811 -1.7204  1.0509  1.4029
  174SAPI  C31519814   1.418   1.984   8.590  0.4591 -0.2527 -0.0564
  174SAPI  H15X19815   1.527   1.997   8.572 -0.0447  1.8777 -2.0404
  174SAPI  H15Y19816   1.363   2.052   8.521  1.0476 -0.0491 -0.3305
  174SAPI  C31619817   1.378   1.843   8.539  0.7239 -0.7608 -0.5190
  174SAPI  H16X19818   1.272   1.824   8.564 -0.2684  2.4570 -1.7670
  174SAPI  H16Y19819   1.430   1.776   8.611  0.8465 -0.7323 -0.5786
  174SAPI  C31719820   1.409   1.807   8.398  0.7363  0.1482  0.8781
  174SAPI  H17X19821   1.515   1.837   8.382  0.9278 -0.8183  0.2669
  174SAPI  H17Y19822   1.326   1.853   8.339 -1.2449 -2.5554  1.3949
  174SAPI  C31819823   1.384   1.664   8.374  0.2557 -0.8774 -0.6434
  174SAPI  H18X19824   1.464   1.604   8.423 -0.0852  0.3114  1.5084
  174SAPI  H18Y19825   1.394   1.631   8.268  2.7759  0.3437 -0.8674
  174SAPI  H18Z19826   1.285   1.631   8.412  0.8113 -0.0407  1.6560
  175SAPI   C1219827   5.074   0.187   5.967  0.3207  0.2155  0.0540
  175SAPI    H219828   5.014   0.094   5.981  1.0518 -0.1608  0.7794
  175SAPI    O219829   5.210   0.139   5.970  0.5554  0.9691 -0.2060
  175SAPI   HO219830   5.213   0.061   5.914 -1.3062 -0.5708  1.6522
  175SAPI   C1319831   5.031   0.251   5.840 -0.5373  0.0251 -0.5305
  175SAPI    H319832   4.921   0.265   5.838 -0.4297  0.8707 -1.4109
  175SAPI    O319833   5.054   0.162   5.736  0.0606 -0.0196  0.2716
  175SAPI   HO319834   5.132   0.190   5.687 -1.3742 -0.9540 -2.7882
  175SAPI   C1419835   5.110   0.382   5.825 -0.9105 -0.1053  0.7045
  175SAPI    H419836   5.218   0.356   5.820 -0.8985  0.1530 -0.8267
  175SAPI    O419837   5.079   0.444   5.700  0.6839  0.0634 -0.9082
  175SAPI   HO419838   4.983   0.455   5.698  0.7034  0.7800  0.8503
  175SAPI   C1519839   5.086   0.477   5.940  0.1698 -0.0938 -0.1653
  175SAPI    H519840   4.983   0.517   5.932  0.7784  1.2450 -1.8261
  175SAPI    O519841   5.179   0.590   5.945 -0.2138 -0.0996 -0.0564
  175SAPI   HO519842   5.196   0.597   6.039  0.7719  0.1384 -0.2408
  175SAPI   C1619843   5.114   0.409   6.068 -0.3241 -0.1971  0.6485
  175SAPI    H619844   5.220   0.381   6.080  0.0662  0.8689 -0.1848
  175SAPI    O619845   5.085   0.497   6.182 -0.0214  0.4818 -0.3236
  175SAPI   HO619846   4.991   0.479   6.193 -0.0089 -0.4633 -1.5733
  175SAPI   C1119847   5.042   0.280   6.081  0.9188  0.0289 -0.0606
  175SAPI    H119848   4.932   0.292   6.076  0.8498 -1.1386 -2.7638
  175SAPI     P19849   4.967   0.123   6.278  0.1986 -0.2130 -0.1230
  175SAPI   O1319850   5.038   0.009   6.328 -0.4412  0.0689 -0.5007
  175SAPI   O1419851   4.852   0.095   6.192 -0.4907  0.9260 -0.1296
  175SAPI   O1219852   5.078   0.221   6.210  0.0590  0.5498 -0.2212
  175SAPI   O1119853   4.918   0.213   6.402 -0.0048  0.0794  0.1178
  175SAPI    C119854   5.019   0.285   6.488 -0.8855 -0.5792  0.0294
  175SAPI    HA19855   5.104   0.318   6.425 -2.3417 -0.1246 -1.7685
  175SAPI    HB19856   4.976   0.380   6.526 -1.0522 -0.6946  0.1321
  175SAPI    C219857   5.085   0.188   6.601 -0.4559  0.5335  0.2207
  175SAPI    HS19858   5.153   0.119   6.546 -1.5792 -0.3662 -0.0843
  175SAPI   O2119859   4.982   0.125   6.680  1.0673 -0.0394 -0.0617
  175SAPI   C2119860   4.999  -0.001   6.719  0.5025 -0.1618 -0.1797
  175SAPI   O2219861   5.099  -0.069   6.695  0.2094  0.9049 -0.0279
  175SAPI   C2219862   4.889  -0.029   6.817 -0.2292  0.2719  0.1451
  175SAPI   H2R19863   4.796  -0.046   6.759 -0.5347  3.3793 -0.4056
  175SAPI   H2S19864   4.914  -0.121   6.874 -1.1882  1.5334  2.7285
  175SAPI    C319865   5.185   0.277   6.678 -0.6575 -0.1533 -0.4111
  175SAPI    HX19866   5.130   0.363   6.722  0.9383 -0.1166  1.6494
  175SAPI    HY19867   5.255   0.321   6.605 -0.1244  1.7964  1.2062
  175SAPI   O3119868   5.249   0.220   6.794  0.5228 -0.3891  0.5269
  175SAPI   C3119869   5.350   0.142   6.765 -0.5039  0.2902 -0.4011
  175SAPI   O3219870   5.403   0.128   6.654  0.3487  0.1972 -0.1548
  175SAPI   C3219871   5.400   0.079   6.891  0.2705  0.3092  0.6191
  175SAPI   H2X19872   5.311   0.037   6.942 -0.1810  2.3776  1.6004
  175SAPI   H2Y19873   5.440   0.156   6.959  0.1259  0.5078  0.4805
  175SAPI   C2319874   4.861   0.085   6.919  0.2613 -0.0983 -0.0384
  175SAPI   H3R19875   4.756   0.074   6.955  0.2557  0.0774 -0.0011
  175SAPI   H3S19876   4.884   0.179   6.865  0.4602 -0.8094 -1.2236
  175SAPI   C2419877   4.960   0.074   7.035 -0.6107  0.0649  0.2541
  175SAPI   H4R19878   5.062   0.093   6.995  0.6259 -4.1265  0.9862
  175SAPI   H4S19879   4.958  -0.033   7.063 -5.2859  0.0356  0.5769
  175SAPI   C2519880   4.942   0.160   7.157 -0.6950  1.0389  0.2740
  175SAPI   H5R19881   4.851   0.145   7.216 -0.6836 -1.9698 -0.3189
  175SAPI   C2619882   5.033   0.248   7.208  0.1821 -0.5574  0.0723
  175SAPI   H6R19883   4.997   0.302   7.296 -0.4346  1.8509 -1.5562
  175SAPI   C2719884   5.175   0.266   7.159  0.3104 -0.5711  0.5002
  175SAPI   H7R19885   5.212   0.366   7.190  2.9799 -0.3937 -2.7393
  175SAPI   H7S19886   5.178   0.275   7.048  3.0364  0.7727  0.6092
  175SAPI   C2819887   5.255   0.151   7.209 -0.4884  0.8597 -0.6166
  175SAPI   H8R19888   5.293   0.077   7.137  0.3538  2.2447 -1.6644
  175SAPI   C2919889   5.283   0.133   7.342  0.2143  0.3055 -0.5911
  175SAPI   H9R19890   5.347   0.046   7.365 -0.7161 -0.0711  0.6468
  175SAPI  C21019891   5.244   0.203   7.462  0.6393 -0.2655  0.0940
  175SAPI  H10R19892   5.154   0.148   7.496  0.0357 -0.1826 -1.3036
  175SAPI  H10S19893   5.218   0.308   7.437 -0.6970 -0.0608  2.1378
  175SAPI  C21119894   5.345   0.214   7.578 -0.4833  0.0713 -0.5972
  175SAPI  H11R19895   5.404   0.121   7.588 -1.8104 -0.7994 -0.6699
  175SAPI  C21219896   5.332   0.306   7.675 -0.0148  0.0599 -0.5656
  175SAPI  H12R19897   5.407   0.294   7.755 -1.2356 -0.5304  0.5319
  175SAPI  C21319898   5.227   0.414   7.693 -0.8399  0.4637 -0.2927
  175SAPI  H13R19899   5.140   0.356   7.731  0.7152  0.1748  3.2177
  175SAPI  H13S19900   5.196   0.460   7.597 -0.1477  3.3882  0.7806
  175SAPI  C21419901   5.262   0.535   7.774 -0.0572  0.4569 -0.1671
  175SAPI  H14R19902   5.350   0.591   7.739  1.5536 -1.3174  0.8802
  175SAPI  C21519903   5.213   0.570   7.895  0.6523  0.3792 -0.7262
  175SAPI  H15R19904   5.245   0.664   7.943 -1.7606 -0.0960  2.1304
  175SAPI  C21619905   5.103   0.485   7.964 -0.7164 -0.5718 -0.2658
  175SAPI  H16R19906   5.050   0.404   7.908 -3.2780  0.5540  0.3759
  175SAPI  H16S19907   5.027   0.563   7.982  1.3970  1.5783 -0.2232
  175SAPI  C21719908   5.151   0.447   8.102  0.4005 -0.0494  0.5576
  175SAPI  H17R19909   5.059   0.419   8.158  0.5771  1.0353  1.4386
  175SAPI  H17S19910   5.204   0.528   8.155  1.6418 -1.5623  1.7204
  175SAPI  C21819911   5.244   0.323   8.109  0.2418  0.5272 -0.0413
  175SAPI  H18R19912   5.344   0.350   8.071 -0.2141  0.4653 -1.3495
  175SAPI  H18S19913   5.201   0.255   8.032 -1.9665  1.4420  0.2865
  175SAPI  C21919914   5.260   0.275   8.250 -0.1821  1.1413  0.1748
  175SAPI  H19R19915   5.155   0.266   8.284  0.0984  1.5690  1.2182
  175SAPI  H19S19916   5.311   0.358   8.303  0.3524  0.4407  0.7823
  175SAPI  C22019917   5.339   0.141   8.268 -0.9940  0.4505 -0.3873
  175SAPI  H20R19918   5.432   0.142   8.207  0.8394  0.5435  2.2373
  175SAPI  H20S19919   5.286   0.043   8.262 -0.3235  0.0472  0.1647
  175SAPI  H20T19920   5.392   0.141   8.366 -0.3383  0.1113 -0.7380
  175SAPI   C3319921   5.516  -0.022   6.872 -0.4159  0.0610 -0.3640
  175SAPI   H3X19922   5.606   0.032   6.838  0.4414 -0.9489  0.2330
  175SAPI   H3Y19923   5.498  -0.105   6.800  2.4846 -1.3143  0.3456
  175SAPI   C3419924   5.534  -0.107   6.998 -0.9457 -0.0597 -0.5184
  175SAPI   H4X19925   5.596  -0.193   6.964 -0.7839 -0.5410  0.9404
  175SAPI   H4Y19926   5.431  -0.142   7.018 -1.5202  2.4217  1.2823
  175SAPI   C3519927   5.603  -0.044   7.127  0.3661  0.0338  0.7082
  175SAPI   H5X19928   5.571   0.061   7.146  2.9654  0.9075  0.6714
  175SAPI   H5Y19929   5.712  -0.035   7.110  0.1011  1.8234 -0.3719
  175SAPI   C3619930   5.590  -0.138   7.252 -1.4315 -0.0487  0.9888
  175SAPI   H6X19931   5.639  -0.232   7.219  0.5506  1.6739 -1.3227
  175SAPI   H6Y19932   5.480  -0.142   7.269 -1.4782  0.8843  0.9871
  175SAPI   C3719933   5.677  -0.091   7.366 -0.2362  0.3038  0.8117
  175SAPI   H7X19934   5.781  -0.092   7.328 -0.4976 -0.0033  0.0991
  175SAPI   H7Y19935   5.662  -0.161   7.451 -2.5989  0.0567  0.2345
  175SAPI   C3819936   5.663   0.048   7.420 -0.2976  0.1884 -0.4092
  175SAPI   H8X19937   5.571   0.054   7.482  0.2582  0.0050  0.4497
  175SAPI   H8Y19938   5.656   0.118   7.334  1.5433  0.4359 -0.3991
  175SAPI   C3919939   5.781   0.093   7.511 -0.5208  0.2774  0.6845
  175SAPI   H9X19940   5.866   0.121   7.444 -2.1464 -0.8936 -2.0515
  175SAPI   H9Y19941   5.837   0.014   7.564  0.6443 -0.7339 -1.8639
  175SAPI  C31019942   5.743   0.211   7.610 -0.1703 -0.2494  0.5694
  175SAPI  H10X19943   5.657   0.181   7.673 -0.1629 -0.1299  0.6381
  175SAPI  H10Y19944   5.707   0.290   7.541 -2.2287  1.5902  3.5056
  175SAPI  C31119945   5.860   0.261   7.699 -0.3782  0.0137 -0.2633
  175SAPI  H11X19946   5.853   0.367   7.733 -0.7954  0.0314 -0.4010
  175SAPI  H11Y19947   5.952   0.262   7.637  0.1998  0.6943  0.5842
  175SAPI  C31219948   5.888   0.162   7.812 -0.9507  0.9600 -0.2898
  175SAPI  H12X19949   5.995   0.151   7.840 -1.2067  0.6625  0.5975
  175SAPI  H12Y19950   5.864   0.057   7.782 -0.2087  0.9874 -1.0278
  175SAPI  C31319951   5.819   0.189   7.947 -0.3386 -0.2389 -0.3321
  175SAPI  H13X19952   5.710   0.208   7.945 -0.4165 -0.5132  0.6396
  175SAPI  H13Y19953   5.871   0.276   7.993 -2.1346  1.3015 -1.1230
  175SAPI  C31419954   5.823   0.072   8.046  0.1270 -0.0017 -0.0600
  175SAPI  H14X19955   5.927   0.032   8.052  0.2248  0.3589  0.9137
  175SAPI  H14Y19956   5.754  -0.007   8.010  1.7288 -0.8603 -1.3934
  175SAPI  C31519957   5.778   0.117   8.186 -0.0976  0.4437  0.2313
  175SAPI  H15X19958   5.677   0.162   8.180 -0.0772  0.9244  2.4095
  175SAPI  H15Y19959   5.852   0.190   8.227  2.0805 -1.1392 -0.6804
  175SAPI  C31619960   5.771   0.001   8.287  0.0200  0.1652 -0.4246
  175SAPI  H16X19961   5.871  -0.024   8.326 -0.4070 -0.5275  0.2621
  175SAPI  H16Y19962   5.722  -0.094   8.256 -0.3020 -0.0026  0.5578
  175SAPI  C31719963   5.690   0.032   8.414  0.7661  0.0142  0.1170
  175SAPI  H17X19964   5.587   0.055   8.381  0.3701 -1.1148  0.5155
  175SAPI  H17Y19965   5.720   0.127   8.464 -0.0911 -0.2709  1.2275
  175SAPI  C31819966   5.695  -0.071   8.523 -0.3102  0.4364  0.6667
  175SAPI  H18X19967   5.674  -0.168   8.474 -0.3087  0.8079 -0.0874
  175SAPI  H18Y19968   5.614  -0.058   8.598  0.5723 -1.5361  2.0362
  175SAPI  H18Z19969   5.795  -0.073   8.571  0.4914  1.5718 -0.8397
  176SAPI   C1219970   4.088   6.040   6.542 -0.3484  0.4725 -0.0933
  176SAPI    H219971   4.147   5.993   6.623 -2.6385 -2.0433  0.2713
  176SAPI    O219972   3.965   5.959   6.543  0.1289 -1.2023  0.5124
  176SAPI   HO219973   3.990   5.867   6.542  0.7657 -1.1022 -3.0059
  176SAPI   C1319974   4.065   6.187   6.569 -0.1413  0.1363  0.0898
  176SAPI    H319975   4.167   6.229   6.587  0.1700 -0.7465  0.4276
  176SAPI    O319976   3.988   6.199   6.689 -0.3604 -0.8834 -0.1568
  176SAPI   HO319977   3.986   6.294   6.705 -1.7025 -0.8000 -0.6403
  176SAPI   C1419978   4.004   6.251   6.451 -0.9232  0.2691  0.1540
  176SAPI    H419979   3.896   6.225   6.447 -0.9667  0.5923 -1.0797
  176SAPI    O419980   3.999   6.388   6.480 -0.2855 -0.4191  0.2523
  176SAPI   HO419981   3.914   6.417   6.444 -0.3700  0.0819  0.8386
  176SAPI   C1519982   4.075   6.214   6.324  0.0138 -0.8042  0.2571
  176SAPI    H519983   4.179   6.255   6.321 -1.1185  2.3178 -0.2937
  176SAPI    O519984   4.002   6.266   6.212  0.1813  0.3911  0.0022
  176SAPI   HO519985   4.063   6.314   6.155 -0.5603 -0.2529 -1.3690
  176SAPI   C1619986   4.085   6.070   6.306 -0.0030  0.3988 -0.1831
  176SAPI    H619987   3.987   6.017   6.310  0.1088  0.2588  0.8378
  176SAPI    O619988   4.143   6.029   6.180 -0.7596  0.1147 -0.0452
  176SAPI   HO619989   4.092   6.054   6.103  0.2249  0.8910 -0.4646
  176SAPI   C1119990   4.171   6.016   6.418  0.7274 -0.1272 -0.1139
  176SAPI    H119991   4.262   6.080   6.417 -0.5898  2.1523  3.9653
  176SAPI     P19992   4.368   5.823   6.441  0.1559  0.2776 -0.1902
  176SAPI   O1319993   4.461   5.906   6.369  0.0269  0.5930 -0.2760
  176SAPI   O1419994   4.381   5.675   6.437  0.1223 -0.1213 -0.3637
  176SAPI   O1219995   4.215   5.879   6.418 -0.0024  0.0699 -0.2522
  176SAPI   O1119996   4.395   5.854   6.592  0.2131  0.5536 -0.3740
  176SAPI    C119997   4.342   5.783   6.709 -0.3404 -0.4885  0.2794
  176SAPI    HA19998   4.231   5.785   6.711 -0.4331  3.7320 -0.7928
  176SAPI    HB19999   4.375   5.677   6.707 -1.9804 -1.0577 -2.6519
  176SAPI    C220000   4.402   5.837   6.840 -0.9155 -0.0456  0.1633
  176SAPI    HS20001   4.373   5.766   6.921  0.8293 -1.8731 -0.7143
  176SAPI   O2120002   4.349   5.976   6.870 -0.7681 -0.5279  0.0733
  176SAPI   C2120003   4.233   5.975   6.934  0.4917  0.1310  0.0126
  176SAPI   O2220004   4.177   5.873   6.964  0.1149  0.2284 -0.1971
  176SAPI   C2220005   4.183   6.116   6.969 -0.0145 -0.4009  0.0894
  176SAPI   H2R20006   4.159   6.164   6.872  2.3343  0.5799 -0.0829
  176SAPI   H2S20007   4.089   6.111   7.028 -0.9730 -1.9596 -1.4621
  176SAPI    C320008   4.561   5.834   6.831  0.4720  0.4603  0.1741
  176SAPI    HX20009   4.580   5.924   6.768 -1.0964  1.1714  0.6499
  176SAPI    HY20010   4.582   5.744   6.770  2.2759  1.8935 -1.4577
  176SAPI   O3120011   4.631   5.839   6.957 -0.5358  0.1127  0.0093
  176SAPI   C3120012   4.759   5.861   6.930 -0.7832 -0.0410  0.0427
  176SAPI   O3220013   4.811   5.873   6.818 -0.5603 -0.1085 -0.6599
  176SAPI   C3220014   4.835   5.883   7.061  0.1512 -0.5385 -0.2920
  176SAPI   H2X20015   4.764   5.929   7.132  2.3252  1.9460  0.4536
  176SAPI   H2Y20016   4.919   5.954   7.046  0.4593 -0.1003  2.7749
  176SAPI   C2320017   4.284   6.197   7.049 -0.3322  0.6597  0.4501
  176SAPI   H3R20018   4.235   6.296   7.048 -1.2712  0.2054 -0.6394
  176SAPI   H3S20019   4.379   6.194   6.990  0.3449  0.4248  1.5227
  176SAPI   C2420020   4.301   6.153   7.196 -0.2795 -0.1690 -0.4863
  176SAPI   H4R20021   4.357   6.059   7.183 -0.6824 -0.2984 -1.3638
  176SAPI   H4S20022   4.209   6.121   7.248  0.0491  0.9079  0.8138
  176SAPI   C2520023   4.381   6.254   7.281  0.0252 -0.1431  0.3299
  176SAPI   H5R20024   4.490   6.241   7.276 -0.0986 -0.6001 -2.0880
  176SAPI   C2620025   4.334   6.350   7.364 -0.3502  0.0217  0.2327
  176SAPI   H6R20026   4.405   6.425   7.402 -2.2733  2.3578 -0.5588
  176SAPI   C2720027   4.189   6.385   7.412  0.8772  0.5079 -0.1649
  176SAPI   H7R20028   4.126   6.297   7.388  0.1097  1.2268 -0.8680
  176SAPI   H7S20029   4.140   6.469   7.358 -0.9857 -0.2260  0.3260
  176SAPI   C2820030   4.182   6.404   7.565 -0.7315 -0.2678 -0.1114
  176SAPI   H8R20031   4.180   6.307   7.617  2.2790 -0.0602  0.5823
  176SAPI   C2920032   4.186   6.519   7.641  0.3241  0.0964  0.3684
  176SAPI   H9R20033   4.188   6.507   7.751  0.0408  1.6489  0.5653
  176SAPI  C21020034   4.190   6.658   7.579 -0.2599  0.5121 -1.2519
  176SAPI  H10R20035   4.122   6.657   7.491 -0.5947 -0.4607 -0.9880
  176SAPI  H10S20036   4.294   6.671   7.541 -0.4842  1.4867 -1.5620
  176SAPI  C21120037   4.165   6.777   7.677 -0.2317 -0.2554  0.3810
  176SAPI  H11R20038   4.061   6.812   7.690  0.0628  0.5051  0.7373
  176SAPI  C21220039   4.241   6.831   7.771 -0.0961  0.5135  0.6818
  176SAPI  H12R20040   4.194   6.907   7.835 -0.5834  1.5170 -0.8285
  176SAPI  C21320041   4.385   6.792   7.808 -0.6780  0.4645  0.1530
  176SAPI  H13R20042   4.426   6.693   7.778 -0.1966 -0.4513  3.4782
  176SAPI  H13S20043   4.395   6.784   7.918 -1.1446  0.7749  0.2181
  176SAPI  C21420044   4.478   6.891   7.749  0.4758  0.3550  0.0142
  176SAPI  H14R20045   4.484   6.912   7.641  1.6095  0.1921  0.0323
  176SAPI  C21520046   4.579   6.948   7.814 -0.0322 -0.0673  0.6906
  176SAPI  H15R20047   4.639   7.023   7.761 -1.4860  0.0864 -0.7841
  176SAPI  C21620048   4.624   6.937   7.958  0.3478 -0.2388 -0.1489
  176SAPI  H16R20049   4.734   6.939   7.971  0.1631 -1.0608  1.8817
  176SAPI  H16S20050   4.608   6.832   7.990  0.6243 -0.3154 -0.2545
  176SAPI  C21720051   4.563   7.047   8.046 -0.3715  0.3587  0.3879
  176SAPI  H17R20052   4.455   7.029   8.069 -0.5641  0.3156 -0.5201
  176SAPI  H17S20053   4.576   7.138   7.984 -0.4376 -0.2809 -0.5945
  176SAPI  C21820054   4.640   7.060   8.174 -0.3615 -0.5496 -0.0477
  176SAPI  H18R20055   4.741   7.104   8.157 -0.9981  0.4146 -1.4320
  176SAPI  H18S20056   4.664   6.958   8.211  1.6683  0.2675  1.0651
  176SAPI  C21920057   4.575   7.152   8.274 -0.0374  0.1800 -0.7307
  176SAPI  H19R20058   4.468   7.128   8.289  0.3966 -0.3777  2.1378
  176SAPI  H19S20059   4.577   7.251   8.223 -0.5790  0.0618 -0.9816
  176SAPI  C22020060   4.652   7.158   8.409  0.1847  0.0637 -0.3387
  176SAPI  H20R20061   4.634   7.067   8.471 -2.6068  0.9055  0.2378
  176SAPI  H20S20062   4.610   7.239   8.472  0.3241 -1.0079  1.1976
  176SAPI  H20T20063   4.761   7.170   8.390  0.6811 -2.7255  0.2872
  176SAPI   C3320064   4.896   5.753   7.110  0.2601 -0.7869  0.2338
  176SAPI   H3X20065   4.956   5.715   7.024  0.1169  0.6104 -0.5031
  176SAPI   H3Y20066   4.822   5.674   7.135 -0.3883 -0.1938  0.2060
  176SAPI   C3420067   4.986   5.774   7.236 -0.3289  0.5202  0.2861
  176SAPI   H4X20068   5.037   5.872   7.232 -0.1516  0.4707  1.2443
  176SAPI   H4Y20069   5.054   5.687   7.242  0.5481  1.1582 -0.2002
  176SAPI   C3520070   4.892   5.780   7.355 -0.6409  0.0367  0.4867
  176SAPI   H5X20071   4.818   5.697   7.365 -1.9890  1.4247  3.4464
  176SAPI   H5Y20072   4.828   5.868   7.335  0.9168  1.3995  1.2747
  176SAPI   C3620073   4.948   5.799   7.491  0.5313 -0.3913  0.0865
  176SAPI   H6X20074   4.994   5.897   7.515 -1.6327 -0.0708  3.6785
  176SAPI   H6Y20075   5.020   5.716   7.508 -0.5714 -0.8141  3.5202
  176SAPI   C3720076   4.835   5.777   7.599  0.2650 -0.5553  0.2280
  176SAPI   H7X20077   4.795   5.675   7.580  0.1934 -0.5107  0.1387
  176SAPI   H7Y20078   4.747   5.844   7.587 -0.6466 -1.1897  2.6735
  176SAPI   C3820079   4.891   5.792   7.743  0.8443  0.1432  1.0391
  176SAPI   H8X20080   4.986   5.735   7.749  1.3550  0.6166 -1.4834
  176SAPI   H8Y20081   4.819   5.735   7.805  0.5169 -1.3955 -0.6905
  176SAPI   C3920082   4.907   5.938   7.794 -0.0207  0.8280  0.1429
  176SAPI   H9X20083   4.952   5.999   7.712  1.9097 -0.9760 -0.2509
  176SAPI   H9Y20084   4.967   5.935   7.887 -1.5948  1.7282  1.2215
  176SAPI  C31020085   4.770   5.999   7.840  0.0453  0.1989  0.0335
  176SAPI  H10X20086   4.694   5.986   7.760 -0.1128  1.0650  0.0323
  176SAPI  H10Y20087   4.786   6.107   7.859 -0.8199  0.8723 -2.6130
  176SAPI  C31120088   4.707   5.940   7.973 -0.0147  0.3547  0.8632
  176SAPI  H11X20089   4.799   5.931   8.036  0.8968 -0.5498 -0.5340
  176SAPI  H11Y20090   4.662   5.843   7.946  1.1067  0.1204 -0.2662
  176SAPI  C31220091   4.596   6.022   8.038  0.3465  1.0019  0.1350
  176SAPI  H12X20092   4.521   6.020   7.956  2.2580  0.5948 -1.7044
  176SAPI  H12Y20093   4.634   6.122   8.067  0.3302  0.2647  3.0281
  176SAPI  C31320094   4.525   5.951   8.163  0.2481 -1.0101  0.0344
  176SAPI  H13X20095   4.584   5.941   8.256  2.5285  0.5570 -1.1356
  176SAPI  H13Y20096   4.484   5.857   8.117 -0.8540 -0.0973 -0.9267
  176SAPI  C31420097   4.400   6.034   8.201  1.0493  0.1006 -0.5287
  176SAPI  H14X20098   4.348   6.059   8.106  1.5595 -0.2447 -0.9009
  176SAPI  H14Y20099   4.440   6.126   8.248  0.1671  1.6020 -2.5807
  176SAPI  C31520100   4.311   5.963   8.301  0.1648 -0.0219 -0.5849
  176SAPI  H15X20101   4.300   5.856   8.274  0.2936 -0.2812  0.3430
  176SAPI  H15Y20102   4.210   6.006   8.283  0.2791 -0.3921 -2.2174
  176SAPI  C31620103   4.347   5.977   8.449  0.6208 -0.1466  0.8022
  176SAPI  H16X20104   4.457   5.961   8.454  1.1242  1.5202 -2.3248
  176SAPI  H16Y20105   4.296   5.903   8.514 -1.1926  0.8091  0.5272
  176SAPI  C31720106   4.343   6.119   8.510 -0.0789 -0.4112 -0.0508
  176SAPI  H17X20107   4.380   6.191   8.434 -1.9553  1.0967  0.3794
  176SAPI  H17Y20108   4.416   6.135   8.593  0.5373  0.2306 -0.6994
  176SAPI  C31820109   4.200   6.155   8.549  0.1440  0.1201  0.5660
  176SAPI  H18X20110   4.192   6.220   8.639 -3.1478  2.0670 -0.9442
  176SAPI  H18Y20111   4.146   6.063   8.580 -0.9001  1.6046  3.5514
  176SAPI  H18Z20112   4.143   6.208   8.470  0.4582  1.1710  1.0259
  177SLPC     N20113   2.747   4.130  11.092  0.0549  0.0581  0.2363
  177SLPC   C1320114   2.607   4.176  11.107  0.7907  0.0666 -0.0972
  177SLPC  H13A20115   2.577   4.246  11.030 -2.1089 -1.0190 -0.0875
  177SLPC  H13B20116   2.534   4.099  11.125 -0.3505  1.1102 -0.0622
  177SLPC  H13C20117   2.600   4.210  11.210  1.9246 -1.3771  0.4844
  177SLPC   C1420118   2.782   4.040  11.210  0.2193 -0.4213  0.2925
  177SLPC  H14A20119   2.759   4.091  11.302  2.1561 -0.5612  0.8948
  177SLPC  H14B20120   2.720   3.951  11.214  0.9998 -0.9186  2.3088
  177SLPC  H14C20121   2.887   4.015  11.214  0.1087 -1.0376 -0.4297
  177SLPC   C1520122   2.841   4.245  11.097  0.0371 -0.0873 -0.4444
  177SLPC  H15A20123   2.942   4.207  11.096  0.3889  0.8376 -1.3186
  177SLPC  H15B20124   2.829   4.313  11.014  1.2382 -0.0081 -0.5686
  177SLPC  H15C20125   2.850   4.309  11.184 -1.7704  1.4829 -1.3378
  177SLPC   C1220126   2.767   4.053  10.965 -0.0328  0.5111 -0.0491
  177SLPC  H12A20127   2.730   4.106  10.878  0.3847  1.5053  0.3580
  177SLPC  H12B20128   2.708   3.963  10.961 -1.4166  1.3445  0.6538
  177SLPC   C1120129   2.911   4.008  10.930 -0.4382 -0.2090  0.3898
  177SLPC  H11A20130   2.905   3.928  10.852 -0.9116  1.3398 -1.2154
  177SLPC  H11B20131   2.960   3.977  11.025 -0.5789 -1.0873  0.1831
  177SLPC     P20132   3.132   4.082  10.823  0.1555  0.1648 -0.2612
  177SLPC   O1320133   3.222   4.146  10.923  0.6255 -0.2929  0.5311
  177SLPC   O1420134   3.154   3.939  10.794 -0.8374 -0.4679  0.0277
  177SLPC   O1220135   2.983   4.110  10.866 -0.5502 -0.4402 -0.4790
  177SLPC   O1120136   3.151   4.160  10.696  0.0558 -1.2057  0.4345
  177SLPC    C120137   3.064   4.269  10.646  0.1493 -0.4467 -0.3254
  177SLPC    HA20138   3.008   4.321  10.726 -1.8932 -1.5744 -0.9451
  177SLPC    HB20139   3.128   4.342  10.591 -0.5054  0.0933 -0.3770
  177SLPC    C220140   2.953   4.207  10.554  0.1812 -0.8178  0.4087
  177SLPC    HS20141   2.896   4.150  10.631  1.4842 -2.3428  0.3025
  177SLPC   O2120142   3.020   4.123  10.461 -0.7489 -0.2459  0.0321
  177SLPC   C2120143   2.943   4.024  10.419  0.5880  0.7594 -0.1882
  177SLPC   O2220144   2.835   3.989  10.470 -0.2102  0.1563  0.0126
  177SLPC   C2220145   3.011   3.944  10.306 -0.3394 -0.0071 -0.6808
  177SLPC   H2R20146   3.109   3.992  10.285 -0.8842  1.9748  0.9932
  177SLPC   H2S20147   3.035   3.840  10.339  2.3181  0.0953 -1.9547
  177SLPC    C320148   2.870   4.316  10.485 -0.2113 -0.5887  0.2750
  177SLPC    HX20149   2.830   4.384  10.563  0.0202  0.7887 -0.7769
  177SLPC    HY20150   2.787   4.261  10.434  0.8643 -3.1672  1.1057
  177SLPC   O3120151   2.953   4.394  10.392  0.4941  0.0111 -0.4278
  177SLPC   C3120152   2.963   4.356  10.260 -0.3719 -0.5218 -0.8004
  177SLPC   O3220153   2.906   4.258  10.218 -0.7356  0.0731  0.0568
  177SLPC   C3220154   3.050   4.448  10.194 -0.3639  0.0616  0.5693
  177SLPC   H2X20155   3.043   4.420  10.086  1.9425  1.2004  0.0485
  177SLPC   H2Y20156   3.154   4.420  10.222  0.1817 -2.7792 -3.3909
  177SLPC   C2320157   2.934   3.934  10.172 -0.0365  0.1524  0.1458
  177SLPC   H3R20158   2.920   4.031  10.118  2.2582 -0.5737 -1.9090
  177SLPC   H3S20159   2.839   3.877  10.182 -0.6409  0.8761 -1.1182
  177SLPC   C2420160   3.004   3.833  10.082  0.3975  0.7465 -0.0682
  177SLPC   H4R20161   3.019   3.736  10.133  1.3978  1.1242  0.3981
  177SLPC   H4S20162   3.108   3.873  10.080  1.5696 -1.9893  1.4454
  177SLPC   C2520163   2.939   3.830   9.945  0.2452  0.1530 -0.2353
  177SLPC   H5R20164   2.998   3.775   9.869 -0.7664 -1.7081  0.2728
  177SLPC   H5S20165   2.927   3.936   9.913  0.6963  0.4506  0.5570
  177SLPC   C2620166   2.795   3.764   9.939  0.1070 -0.4882  0.4534
  177SLPC   H6R20167   2.728   3.819  10.009  1.0027 -1.5293  2.1904
  177SLPC   H6S20168   2.807   3.663   9.983  3.6145 -0.3489  0.1509
  177SLPC   C2720169   2.733   3.768   9.797 -0.4059  0.6166  0.1959
  177SLPC   H7R20170   2.711   3.876   9.780 -2.2571  0.6569  2.3447
  177SLPC   H7S20171   2.631   3.724   9.799  0.2824 -1.0784  0.1873
  177SLPC   C2820172   2.814   3.695   9.689 -0.8554  0.2740 -0.3842
  177SLPC   H8R20173   2.828   3.589   9.721  2.6751  0.3316 -1.2833
  177SLPC   H8S20174   2.916   3.737   9.675 -0.4329 -0.4839  0.3136
  177SLPC   C2920175   2.747   3.695   9.557 -0.1425 -0.5600 -0.6608
  177SLPC   H9R20176   2.661   3.626   9.560  0.4680 -1.3073  0.8868
  177SLPC  C21020177   2.783   3.748   9.437  0.3774  0.3088 -0.5909
  177SLPC  H10R20178   2.714   3.727   9.354 -0.1558  0.6989 -0.2495
  177SLPC  C21120179   2.902   3.822   9.388 -0.1630 -0.0296  0.7327
  177SLPC  H11R20180   2.873   3.919   9.342  2.2490  0.4428  0.0569
  177SLPC  H11S20181   2.962   3.859   9.474 -1.5303 -1.1230  2.2256
  177SLPC  C21220182   2.975   3.743   9.281  0.3624  0.9116 -0.5738
  177SLPC  H12R20183   2.917   3.656   9.247 -0.4055  0.5967  1.3782
  177SLPC  C21320184   3.089   3.780   9.223 -1.1002 -0.2131 -0.0963
  177SLPC  H13R20185   3.122   3.718   9.138 -2.0023  1.2307 -1.5319
  177SLPC  C21420186   3.176   3.896   9.266 -0.4421 -1.1760 -0.1063
  177SLPC  H14R20187   3.258   3.847   9.323 -0.5081  1.5522  2.5744
  177SLPC  H14S20188   3.119   3.966   9.330  0.3788  0.5838 -1.2075
  177SLPC  C21520189   3.230   3.984   9.151 -0.0539 -0.5712  0.1642
  177SLPC  H15R20190   3.143   4.017   9.089 -1.5228 -2.8229  0.9136
  177SLPC  H15S20191   3.302   3.931   9.085 -0.6035  1.4334 -2.2403
  177SLPC  C21620192   3.297   4.111   9.203 -0.2675  0.3725  0.4361
  177SLPC  H16R20193   3.370   4.081   9.281 -1.3630 -2.7352  0.3877
  177SLPC  H16S20194   3.219   4.171   9.256 -2.1551 -0.4461 -1.2894
  177SLPC  C21720195   3.365   4.203   9.093  0.3448 -0.8202  0.4640
  177SLPC  H17R20196   3.380   4.310   9.118 -1.8214 -0.6412  1.2009
  177SLPC  H17S20197   3.288   4.209   9.014  0.4455 -0.0055  0.4203
  177SLPC  C21820198   3.491   4.145   9.027  0.9311 -0.4369 -0.2536
  177SLPC  H18R20199   3.513   4.222   8.951  0.9456  0.5081  0.6767
  177SLPC  H18S20200   3.463   4.045   8.987 -1.5383 -0.3029  0.9236
  177SLPC  H18T20201   3.575   4.127   9.098  0.3781 -3.0389 -0.1604
  177SLPC   C3320202   3.020   4.598  10.214  0.0623  0.0347  0.0497
  177SLPC   H3X20203   2.977   4.607  10.316 -1.1231 -0.9619 -0.3318
  177SLPC   H3Y20204   2.952   4.652  10.143 -0.1022 -0.4771 -0.1869
  177SLPC   C3420205   3.153   4.683  10.195 -0.2467 -0.2082  0.1163
  177SLPC   H4X20206   3.219   4.671  10.283 -0.2723  1.5920  0.4324
  177SLPC   H4Y20207   3.114   4.787  10.186 -0.5350 -0.2330  1.0032
  177SLPC   C3520208   3.221   4.650  10.060 -0.4989 -0.2693 -0.5009
  177SLPC   H5X20209   3.141   4.654   9.983 -2.0826  0.7766  1.1347
  177SLPC   H5Y20210   3.264   4.548  10.067 -0.8521 -0.3783  0.2003
  177SLPC   C3620211   3.335   4.754  10.044  0.3080  0.7023  0.2290
  177SLPC   H6X20212   3.397   4.748  10.136  0.4700 -3.7497  0.0680
  177SLPC   H6Y20213   3.302   4.858  10.025 -1.4951  0.2215  0.5510
  177SLPC   C3720214   3.414   4.703   9.924  0.5100  0.2916 -0.5029
  177SLPC   H7X20215   3.443   4.596   9.930 -0.0090  0.2009  0.5644
  177SLPC   H7Y20216   3.508   4.760   9.907 -0.0003  0.8179 -1.6877
  177SLPC   C3820217   3.333   4.718   9.790  0.8430  0.3957 -0.7187
  177SLPC   H8X20218   3.290   4.819   9.773 -2.8896 -0.9865 -0.5088
  177SLPC   H8Y20219   3.250   4.644   9.802 -0.4920  2.0285  0.6003
  177SLPC   C3920220   3.429   4.680   9.673  0.4543  0.1837  1.0726
  177SLPC   H9X20221   3.494   4.591   9.690  1.5460  0.5034 -1.0809
  177SLPC   H9Y20222   3.489   4.774   9.662  1.8442 -0.6049  1.6353
  177SLPC  C31020223   3.359   4.656   9.541 -0.5877 -0.2113 -0.2956
  177SLPC  H10X20224   3.435   4.669   9.461 -1.3032 -0.0829 -0.9724
  177SLPC  H10Y20225   3.296   4.747   9.534 -0.1184  0.3254  1.7582
  177SLPC  C31120226   3.284   4.522   9.531  0.1661 -0.4017  0.0757
  177SLPC  H11X20227   3.243   4.503   9.633  0.1444  1.5309  0.4585
  177SLPC  H11Y20228   3.358   4.442   9.506  1.6818  0.6056  1.2033
  177SLPC  C31220229   3.168   4.534   9.434  0.3942 -0.2896 -0.0812
  177SLPC  H12X20230   3.113   4.620   9.478 -0.1881  0.3903 -2.0207
  177SLPC  H12Y20231   3.105   4.443   9.446  3.3740 -2.2172  2.5168
  177SLPC  C31320232   3.202   4.571   9.291  0.1827 -0.6011  0.0626
  177SLPC  H13X20233   3.290   4.514   9.255  1.1416  0.0221  1.3253
  177SLPC  H13Y20234   3.227   4.679   9.284  0.2727 -0.6281 -0.0334
  177SLPC  C31420235   3.091   4.539   9.188  0.5537  0.2398 -0.1508
  177SLPC  H14X20236   3.002   4.603   9.207  0.0916 -0.0739 -1.1906
  177SLPC  H14Y20237   3.075   4.429   9.188  2.3215 -0.1524 -3.6330
  177SLPC  C31520238   3.139   4.589   9.050 -0.5862  0.1907  0.2355
  177SLPC  H15X20239   3.219   4.519   9.018  0.3193  1.7325 -0.9993
  177SLPC  H15Y20240   3.192   4.685   9.066  3.4282 -1.7515 -0.2104
  177SLPC  C31620241   3.026   4.588   8.945 -0.7258 -0.2626 -0.1861
  177SLPC  H16X20242   3.054   4.631   8.847  1.4526 -1.9525 -0.3870
  177SLPC  H16Y20243   2.954   4.661   8.989 -0.1492  2.0313 -2.7907
  177SLPC  C31720244   2.969   4.448   8.923 -1.0859  0.4132  0.7188
  177SLPC  H17X20245   2.873   4.461   8.870 -0.2308  2.7393 -0.3875
  177SLPC  H17Y20246   2.961   4.393   9.020  0.0408 -1.7862 -0.3500
  177SLPC  C31820247   3.051   4.365   8.826 -0.3561  0.4061 -0.3355
  177SLPC  H18X20248   3.153   4.335   8.858  0.2596  2.9171  0.2524
  177SLPC  H18Y20249   3.051   4.419   8.729 -1.0367  0.7963 -0.1224
  177SLPC  H18Z20250   3.001   4.266   8.820 -0.4904  0.5174 -1.1662
  178SLPC     N20251   5.417   5.127  10.903  0.0564  0.1218  0.4289
  178SLPC   C1320252   5.427   5.263  10.832  0.2252  0.2634  0.3771
  178SLPC  H13A20253   5.353   5.266  10.754 -0.7662 -1.8137  1.1457
  178SLPC  H13B20254   5.414   5.343  10.903  1.2574 -0.2625  1.2016
  178SLPC  H13C20255   5.531   5.265  10.801  1.2160 -1.2813  3.1679
  178SLPC   C1420256   5.289   5.105  10.973  0.0660 -0.3815 -0.3468
  178SLPC  H14A20257   5.270   5.178  11.050  4.2990  1.4129 -0.7580
  178SLPC  H14B20258   5.212   5.125  10.900 -0.0802 -0.7108 -0.2818
  178SLPC  H14C20259   5.272   5.008  11.016 -0.5154 -0.2031 -0.1561
  178SLPC   C1520260   5.528   5.130  11.006  0.0504 -0.2279  0.6765
  178SLPC  H15A20261   5.558   5.029  11.030  0.9770  0.1585  1.1955
  178SLPC  H15B20262   5.610   5.177  10.953 -1.5017  1.0877 -0.7108
  178SLPC  H15C20263   5.511   5.191  11.094  0.7461  0.5630  0.2783
  178SLPC   C1220264   5.431   5.017  10.802 -0.2193  0.1392  0.7651
  178SLPC  H12A20265   5.428   4.919  10.847 -1.4878  0.2612  0.9671
  178SLPC  H12B20266   5.526   5.023  10.751 -0.7729 -0.0447 -0.3243
  178SLPC   C1120267   5.332   5.021  10.685  0.6086  0.0798  0.0104
  178SLPC  H11A20268   5.373   4.950  10.609  0.7724  0.9406 -0.7169
  178SLPC  H11B20269   5.343   5.121  10.639 -2.8137  0.4945 -0.1931
  178SLPC     P20270   5.152   4.853  10.759 -0.1229 -0.0616 -0.0683
  178SLPC   O1320271   5.244   4.749  10.700 -0.2629 -0.4836 -0.1227
  178SLPC   O1420272   5.135   4.849  10.903 -0.0455  0.3335  0.0098
  178SLPC   O1220273   5.199   5.000  10.716 -0.4192  0.3984  0.4050
  178SLPC   O1120274   5.011   4.839  10.686 -0.8404  0.0550  0.0078
  178SLPC    C120275   4.951   4.929  10.603  0.5611 -0.0216 -0.2274
  178SLPC    HA20276   4.841   4.929  10.620  0.4405  0.0318 -0.9718
  178SLPC    HB20277   4.979   5.036  10.619 -1.2308  0.2822  1.2591
  178SLPC    C220278   4.956   4.897  10.451  0.2917  0.6808  0.9027
  178SLPC    HS20279   4.883   4.962  10.398  2.2907  2.3303  0.0267
  178SLPC   O2120280   4.933   4.757  10.432 -0.0650 -0.4761  0.3162
  178SLPC   C2120281   4.804   4.725  10.408  0.1540 -0.5037  0.0115
  178SLPC   O2220282   4.711   4.808  10.415  0.2473  0.4303  0.1004
  178SLPC   C2220283   4.781   4.577  10.362  0.2714 -0.9113 -0.9646
  178SLPC   H2R20284   4.881   4.536  10.339  0.8153 -0.1960  0.0467
  178SLPC   H2S20285   4.732   4.522  10.445 -2.1491 -0.6392 -2.1148
  178SLPC    C320286   5.093   4.929  10.385  0.3852 -0.7238  0.7385
  178SLPC    HX20287   5.153   4.837  10.399  1.3621 -0.3952 -0.9695
  178SLPC    HY20288   5.137   5.014  10.440 -2.9087  0.0143  2.5078
  178SLPC   O3120289   5.088   4.955  10.244  0.1213 -0.2328  0.1890
  178SLPC   C3120290   5.073   5.081  10.206  0.9232 -0.4396 -0.0079
  178SLPC   O3220291   5.070   5.177  10.282 -0.0233 -0.5960 -0.1012
  178SLPC   C3220292   5.042   5.086  10.067  0.0072 -0.2002  0.4902
  178SLPC   H2X20293   4.960   5.015  10.045  1.5705 -1.8173 -0.4137
  178SLPC   H2Y20294   5.131   5.048  10.012 -0.5223 -1.0317  0.1885
  178SLPC   C2320295   4.689   4.571  10.236  0.5426 -0.1773  0.5397
  178SLPC   H3R20296   4.591   4.614  10.269  0.7118  0.0114  0.8050
  178SLPC   H3S20297   4.662   4.463  10.237 -0.0236 -0.0410  0.7000
  178SLPC   C2420298   4.751   4.621  10.103 -0.8536  0.1481  0.2002
  178SLPC   H4R20299   4.825   4.547  10.065 -0.2668  1.1700 -0.7295
  178SLPC   H4S20300   4.798   4.718  10.131 -1.6826  0.7717 -0.5281
  178SLPC   C2520301   4.642   4.646   9.999  0.1860  0.0742 -0.5042
  178SLPC   H5R20302   4.566   4.725  10.022  0.1183 -0.5927  1.8295
  178SLPC   H5S20303   4.582   4.553   9.990 -0.4405  0.4599 -0.4216
  178SLPC   C2620304   4.709   4.684   9.870  1.0522  0.0282 -0.2022
  178SLPC   H6R20305   4.635   4.728   9.801  2.5045  0.3886 -1.5984
  178SLPC   H6S20306   4.738   4.587   9.824 -0.8244 -1.8078  2.1789
  178SLPC   C2720307   4.825   4.777   9.892 -0.9312  0.1093  0.3637
  178SLPC   H7R20308   4.907   4.725   9.945  1.9716  1.2087 -2.6887
  178SLPC   H7S20309   4.801   4.869   9.949  0.1459 -0.0618  1.1179
  178SLPC   C2820310   4.880   4.837   9.762  0.1535 -0.4297  0.0745
  178SLPC   H8R20311   4.929   4.749   9.715  0.4254  0.5277 -1.5125
  178SLPC   H8S20312   4.967   4.906   9.768  0.6357 -0.7177 -2.3261
  178SLPC   C2920313   4.772   4.908   9.681  0.2130  0.4814 -0.8777
  178SLPC   H9R20314   4.721   4.990   9.735 -0.8114 -0.6893 -0.0033
  178SLPC  C21020315   4.729   4.871   9.560  0.5461  0.7014 -0.0158
  178SLPC  H10R20316   4.655   4.932   9.505  0.0988  1.0410  0.9444
  178SLPC  C21120317   4.769   4.759   9.469 -0.9072 -0.2641 -0.7371
  178SLPC  H11R20318   4.871   4.732   9.503 -0.8577  0.8155  0.0180
  178SLPC  H11S20319   4.791   4.807   9.371  0.7830  3.1471  1.1245
  178SLPC  C21220320   4.674   4.642   9.466 -0.6760 -0.5026 -0.2316
  178SLPC  H12R20321   4.671   4.585   9.560  2.9079 -1.1204 -0.3326
  178SLPC  C21320322   4.588   4.612   9.364 -0.6618 -0.7080  0.0979
  178SLPC  H13R20323   4.520   4.526   9.360 -1.8597  0.1707  1.0222
  178SLPC  C21420324   4.591   4.689   9.235 -0.1746 -0.8964 -0.4382
  178SLPC  H14R20325   4.641   4.788   9.249  0.0694 -0.8010 -1.7852
  178SLPC  H14S20326   4.486   4.715   9.208 -0.1022  3.2490  2.3442
  178SLPC  C21520327   4.664   4.617   9.119 -0.3968 -0.0138  1.0711
  178SLPC  H15R20328   4.631   4.513   9.102 -0.3921  0.1598 -0.0477
  178SLPC  H15S20329   4.773   4.607   9.141 -0.4214 -1.0670  0.7493
  178SLPC  C21620330   4.652   4.692   8.983  0.2517 -0.2799  0.0883
  178SLPC  H16R20331   4.730   4.771   8.985 -2.2996  2.4837 -1.6053
  178SLPC  H16S20332   4.552   4.737   8.970 -0.7659 -2.6714 -0.9165
  178SLPC  C21720333   4.694   4.605   8.864  0.1541 -0.5855  0.6353
  178SLPC  H17R20334   4.607   4.540   8.842 -0.5034  0.7536 -1.0137
  178SLPC  H17S20335   4.785   4.546   8.889 -0.0109 -0.5285  1.3773
  178SLPC  C21820336   4.723   4.676   8.732 -0.1246  0.2178  0.1890
  178SLPC  H18R20337   4.784   4.768   8.739  0.4863 -0.1374 -0.3217
  178SLPC  H18S20338   4.639   4.718   8.674  1.6101  1.3877 -1.6235
  178SLPC  H18T20339   4.776   4.599   8.672  0.9838  0.0450  1.3336
  178SLPC   C3320340   5.012   5.232  10.014 -0.3769  1.2607 -0.7702
  178SLPC   H3X20341   5.061   5.238   9.915  1.5970 -3.7680 -0.3996
  178SLPC   H3Y20342   5.067   5.310  10.071 -0.4019  0.3701  0.5231
  178SLPC   C3420343   4.862   5.254  10.015 -0.6975 -0.1172 -0.3174
  178SLPC   H4X20344   4.811   5.244  10.113  1.4624  0.3459  0.9068
  178SLPC   H4Y20345   4.817   5.191   9.934  0.6920  0.0165 -1.2322
  178SLPC   C3520346   4.844   5.398   9.966  0.1689  0.2634  0.0921
  178SLPC   H5X20347   4.899   5.464  10.036  0.7158 -1.9806  1.8830
  178SLPC   H5Y20348   4.737   5.429   9.971 -0.1127 -0.7722  0.9343
  178SLPC   C3620349   4.871   5.417   9.817 -0.4386 -0.2376 -0.3468
  178SLPC   H6X20350   4.825   5.332   9.763 -1.3035 -0.4185  0.6457
  178SLPC   H6Y20351   4.979   5.436   9.795 -0.2091  0.4650  1.2564
  178SLPC   C3720352   4.796   5.539   9.768 -0.1940 -0.3364  0.4086
  178SLPC   H7X20353   4.828   5.636   9.811 -1.0518  0.7383 -1.2613
  178SLPC   H7Y20354   4.688   5.524   9.790 -0.0026 -1.1492  0.8177
  178SLPC   C3820355   4.805   5.543   9.613  0.3511 -0.5520  0.1099
  178SLPC   H8X20356   4.749   5.458   9.568  0.0811  0.1489 -0.9234
  178SLPC   H8Y20357   4.909   5.534   9.576  0.1613  1.5751 -1.1056
  178SLPC   C3920358   4.737   5.661   9.551  0.6517 -0.3265  0.1562
  178SLPC   H9X20359   4.772   5.761   9.583 -1.6241  0.3888  0.5995
  178SLPC   H9Y20360   4.628   5.666   9.574  0.5762 -0.7527 -0.0946
  178SLPC  C31020361   4.742   5.660   9.394  0.3072 -0.2579 -0.2577
  178SLPC  H10X20362   4.848   5.652   9.362 -0.0125 -0.7983 -1.2117
  178SLPC  H10Y20363   4.710   5.760   9.359  1.6648  0.4902  0.5522
  178SLPC  C31120364   4.657   5.553   9.322  0.4379 -0.0980  0.2266
  178SLPC  H11X20365   4.547   5.558   9.327  0.4549  0.2822  0.2891
  178SLPC  H11Y20366   4.687   5.461   9.376  1.6475  1.0493  1.6021
  178SLPC  C31220367   4.689   5.550   9.170 -0.5720 -0.1120  0.3254
  178SLPC  H12X20368   4.647   5.460   9.118  0.2496 -0.6155  0.5186
  178SLPC  H12Y20369   4.799   5.535   9.177 -0.6871 -0.1416  3.6552
  178SLPC  C31320370   4.646   5.670   9.093 -0.0486 -0.7828 -0.7335
  178SLPC  H13X20371   4.681   5.761   9.147 -0.8987 -0.3062 -0.9759
  178SLPC  H13Y20372   4.537   5.680   9.080 -0.0248  0.7038  0.0564
  178SLPC  C31420373   4.706   5.676   8.954  0.8000 -0.0989  0.1930
  178SLPC  H14X20374   4.636   5.617   8.892  0.6674 -0.1675  0.4090
  178SLPC  H14Y20375   4.803   5.621   8.951 -0.2910 -2.2791  1.9452
  178SLPC  C31520376   4.715   5.817   8.890  0.7784 -0.6403  0.3602
  178SLPC  H15X20377   4.720   5.796   8.781  1.2684 -0.0997  0.2700
  178SLPC  H15Y20378   4.618   5.867   8.908  1.1628  0.0477  0.5809
  178SLPC  C31620379   4.833   5.887   8.943 -0.1143 -0.2579 -0.3019
  178SLPC  H16X20380   4.921   5.828   8.908  0.1063  1.4851 -2.9144
  178SLPC  H16Y20381   4.830   5.914   9.051 -3.6982  1.9115 -0.7952
  178SLPC  C31720382   4.846   6.026   8.878 -0.0817  0.3981 -0.5674
  178SLPC  H17X20383   4.763   6.090   8.915  0.0991 -0.3964  1.2971
  178SLPC  H17Y20384   4.825   6.027   8.769 -0.0901  0.1275 -0.5685
  178SLPC  C31820385   4.981   6.090   8.905 -0.0895  0.0665  0.6451
  178SLPC  H18X20386   5.006   6.177   8.840 -0.1826 -0.5965 -0.2991
  178SLPC  H18Y20387   5.062   6.016   8.892 -1.0008 -0.7959 -0.3463
  178SLPC  H18Z20388   4.989   6.121   9.012  1.8298  3.0959 -0.2598
  179SLPC     N20389   0.193   1.888  10.361  0.1640 -0.5206  0.1875
  179SLPC   C1320390   0.102   1.812  10.455 -0.2235 -0.4764  0.2265
  179SLPC  H13A20391   0.159   1.749  10.522  1.0670  0.5921  0.1814
  179SLPC  H13B20392   0.039   1.876  10.515  1.6160 -0.4280  2.2398
  179SLPC  H13C20393   0.045   1.745  10.392 -2.0961  0.7572  0.5491
  179SLPC   C1420394   0.309   1.923  10.446 -0.2932 -0.0874  0.3236
  179SLPC  H14A20395   0.287   1.964  10.543  0.9419  1.5389 -0.0461
  179SLPC  H14B20396   0.381   1.843  10.460 -2.3095 -1.4987  3.6208
  179SLPC  H14C20397   0.361   2.010  10.409 -1.5982  0.4528 -0.3163
  179SLPC   C1520398   0.127   2.013  10.316  1.3093 -0.4086  0.4598
  179SLPC  H15A20399   0.042   1.987  10.253  1.9160 -0.0132 -0.5461
  179SLPC  H15B20400   0.075   2.068  10.393  0.9820 -2.6818  1.9555
  179SLPC  H15C20401   0.191   2.074  10.255  0.4897 -1.2236 -1.3058
  179SLPC   C1220402   0.240   1.805  10.239 -1.5848 -0.9830  0.6744
  179SLPC  H12A20403   0.294   1.716  10.271 -0.7650 -1.0456 -0.7571
  179SLPC  H12B20404   0.313   1.865  10.186 -1.4654 -1.2132  0.5749
  179SLPC   C1120405   0.136   1.758  10.142 -0.0159  0.7339  0.0513
  179SLPC  H11A20406   0.182   1.718  10.049 -1.7575 -1.6241  0.0934
  179SLPC  H11B20407   0.088   1.851  10.104 -0.8887  0.1029 -0.4453
  179SLPC     P20408   0.067   1.518  10.181 -0.5972 -0.0631  0.1268
  179SLPC   O1320409   0.174   1.477  10.274 -0.2852 -0.1908  0.4726
  179SLPC   O1420410  -0.068   1.452  10.200 -0.6298 -0.4021 -0.0243
  179SLPC   O1220411   0.044   1.673  10.202  0.3500  0.0989  0.3392
  179SLPC   O1120412   0.125   1.508  10.020  0.0214 -0.0115  0.2848
  179SLPC    C120413   0.029   1.518   9.920 -0.5027 -0.4405  0.3847
  179SLPC    HA20414  -0.075   1.538   9.955 -0.8563 -0.7942 -0.4160
  179SLPC    HB20415   0.064   1.600   9.854 -0.8501 -0.5575  0.0458
  179SLPC    C220416   0.035   1.395   9.828  0.0778 -0.5332 -0.4019
  179SLPC    HS20417   0.143   1.375   9.809  0.6655  1.0460  0.9893
  179SLPC   O2120418  -0.032   1.429   9.710 -0.5308 -0.2973 -0.1488
  179SLPC   C2120419   0.021   1.375   9.593 -0.2579 -0.0925 -0.4873
  179SLPC   O2220420   0.117   1.298   9.591  0.3366 -0.0160  0.4049
  179SLPC   C2220421  -0.051   1.435   9.467  0.7102  0.2906 -0.8977
  179SLPC   H2R20422  -0.135   1.362   9.461 -1.5895  2.2689  3.1459
  179SLPC   H2S20423  -0.096   1.533   9.494  0.1611 -0.7465  2.4114
  179SLPC    C320424  -0.023   1.270   9.902  0.2670  0.0024 -0.0541
  179SLPC    HX20425  -0.127   1.293   9.933  0.4764 -1.0715  1.5767
  179SLPC    HY20426   0.018   1.252  10.004 -1.5146 -2.7584  0.2669
  179SLPC   O3120427  -0.029   1.157   9.816  0.2425  0.0292  0.2231
  179SLPC   C3120428   0.081   1.078   9.822  0.1774  0.3694  0.6438
  179SLPC   O3220429   0.177   1.099   9.895 -0.2222  0.1391 -0.2386
  179SLPC   C3220430   0.055   0.965   9.724  0.1274  0.4859  0.1562
  179SLPC   H2X20431  -0.024   0.891   9.749  0.0245 -0.0711 -1.7017
  179SLPC   H2Y20432   0.147   0.904   9.738  0.4002  1.0853  1.0637
  179SLPC   C2320433   0.039   1.458   9.346 -0.3783 -0.1220 -0.1189
  179SLPC   H3R20434   0.129   1.510   9.383 -1.1818  1.3027 -0.0647
  179SLPC   H3S20435  -0.014   1.533   9.284  1.2683  0.5602 -0.7520
  179SLPC   C2420436   0.053   1.328   9.266  0.3330  0.0628  0.8108
  179SLPC   H4R20437  -0.048   1.292   9.240  0.4959 -2.1988  2.8953
  179SLPC   H4S20438   0.098   1.246   9.326  0.2596 -0.6273 -0.0541
  179SLPC   C2520439   0.136   1.346   9.135  0.3981 -0.1657  0.5837
  179SLPC   H5R20440   0.180   1.251   9.096  0.4447  0.4871 -1.0224
  179SLPC   H5S20441   0.213   1.425   9.149  0.0515 -0.0509  2.0723
  179SLPC   C2620442   0.050   1.396   9.020  0.3098 -0.5055  0.3894
  179SLPC   H6R20443   0.017   1.495   9.059  1.1160 -0.2352  0.3987
  179SLPC   H6S20444  -0.040   1.331   9.010  0.6336 -1.3902  2.6258
  179SLPC   C2720445   0.109   1.418   8.878 -0.4214 -0.4063  0.0671
  179SLPC   H7R20446   0.151   1.317   8.858  0.5100 -0.3223  1.4925
  179SLPC   H7S20447   0.180   1.501   8.895 -1.6390  0.1134  3.1824
  179SLPC   C2820448  -0.003   1.439   8.772  0.3771 -0.1554  0.9078
  179SLPC   H8R20449  -0.079   1.504   8.819  0.2634 -0.4506  1.1367
  179SLPC   H8S20450  -0.054   1.342   8.749  2.7631 -1.4654  0.8130
  179SLPC   C2920451   0.044   1.507   8.642 -0.1157  0.2821  0.4414
  179SLPC   H9R20452   0.142   1.557   8.655  0.9158 -1.5225 -0.1377
  179SLPC  C21020453  -0.030   1.516   8.530  0.2217  0.0195 -0.5959
  179SLPC  H10R20454   0.003   1.556   8.433  0.3810 -0.5467 -0.7822
  179SLPC  C21120455  -0.169   1.457   8.519  0.7574 -0.1368  0.4413
  179SLPC  H11R20456  -0.234   1.510   8.591  0.2301  1.4254 -1.1016
  179SLPC  H11S20457  -0.159   1.353   8.557  2.1718  0.9691  3.3610
  179SLPC  C21220458  -0.231   1.451   8.382  0.6136  0.8751  0.0545
  179SLPC  H12R20459  -0.184   1.388   8.305 -0.9322  0.0037 -0.2083
  179SLPC  C21320460  -0.358   1.487   8.350 -0.2399 -0.7921  0.2762
  179SLPC  H13R20461  -0.398   1.460   8.251 -0.4445  1.0528 -0.1767
  179SLPC  C21420462  -0.454   1.546   8.450 -0.1062  0.3867  0.2549
  179SLPC  H14R20463  -0.494   1.635   8.397  2.7777  1.1061 -0.9145
  179SLPC  H14S20464  -0.401   1.579   8.542  1.4344  0.6171 -0.6828
  179SLPC  C21520465  -0.554   1.443   8.491  0.3515 -0.1774 -0.0951
  179SLPC  H15R20466  -0.619   1.503   8.558  1.3041  1.7396 -0.8163
  179SLPC  H15S20467  -0.506   1.366   8.555  0.0175 -2.6474 -2.6480
  179SLPC  C21620468  -0.631   1.370   8.378 -0.1661  1.0119 -0.9374
  179SLPC  H16R20469  -0.702   1.305   8.433  2.5869 -2.1498 -0.7641
  179SLPC  H16S20470  -0.562   1.302   8.324 -2.0198  0.1090 -2.2689
  179SLPC  C21720471  -0.697   1.462   8.267  0.0797  0.1717  0.3218
  179SLPC  H17R20472  -0.628   1.547   8.251 -0.3205  0.1991 -1.4931
  179SLPC  H17S20473  -0.783   1.513   8.314  0.0120 -1.5911  2.2243
  179SLPC  C21820474  -0.736   1.383   8.142  0.6636  0.0337 -0.2000
  179SLPC  H18R20475  -0.780   1.459   8.073  1.0908  0.3925 -0.0816
  179SLPC  H18S20476  -0.815   1.310   8.171 -0.9205  2.8790  3.4153
  179SLPC  H18T20477  -0.640   1.345   8.103  1.1315 -0.2196  1.1584
  179SLPC   C3320478   0.041   1.012   9.583 -0.2468 -0.1531 -0.1249
  179SLPC   H3X20479   0.129   1.065   9.540 -0.7361 -0.5572 -1.6744
  179SLPC   H3Y20480  -0.043   1.084   9.573  1.5400  2.1472  0.5328
  179SLPC   C3420481   0.021   0.893   9.486 -0.1140 -0.0771 -0.1596
  179SLPC   H4X20482  -0.063   0.830   9.521  0.9974 -1.2927  0.3684
  179SLPC   H4Y20483   0.111   0.830   9.499 -0.9076 -1.4459 -1.0955
  179SLPC   C3520484   0.008   0.939   9.341  0.4443  0.2436 -0.2958
  179SLPC   H5X20485   0.091   1.011   9.325 -1.4184  2.1600 -1.8010
  179SLPC   H5Y20486  -0.082   1.004   9.339  0.0737 -0.2761 -1.0493
  179SLPC   C3620487   0.014   0.824   9.239  0.0713 -0.4816 -1.0943
  179SLPC   H6X20488  -0.068   0.753   9.264 -0.9777  1.1704  0.3808
  179SLPC   H6Y20489   0.110   0.769   9.240  0.9826  0.9889  1.2031
  179SLPC   C3720490  -0.014   0.872   9.100  0.1632 -0.5187  0.0423
  179SLPC   H7X20491   0.064   0.943   9.065 -1.1149  2.4990  2.8373
  179SLPC   H7Y20492  -0.106   0.934   9.111  0.7692  0.4031 -0.0141
  179SLPC   C3820493  -0.018   0.759   8.997 -0.2994 -0.3109  0.1741
  179SLPC   H8X20494  -0.104   0.696   9.030 -0.1329 -0.5575  0.1439
  179SLPC   H8Y20495   0.080   0.707   9.008 -0.1989 -0.6296 -1.8742
  179SLPC   C3920496  -0.023   0.808   8.853  0.0181  0.9580  0.0685
  179SLPC   H9X20497   0.061   0.879   8.836  2.2703 -1.7063 -0.7101
  179SLPC   H9Y20498  -0.119   0.860   8.833 -1.1566 -1.2818 -0.4302
  179SLPC  C31020499  -0.013   0.690   8.748  0.8032  0.2595  0.6575
  179SLPC  H10X20500  -0.115   0.647   8.743  0.4747  1.0593  0.2045
  179SLPC  H10Y20501   0.051   0.609   8.788  0.7292 -0.2813 -0.2878
  179SLPC  C31120502   0.010   0.730   8.595 -0.5639  0.6419 -0.9621
  179SLPC  H11X20503   0.119   0.745   8.581  0.0652  0.1248  2.5745
  179SLPC  H11Y20504  -0.044   0.826   8.575  0.2100  2.1204  3.1313
  179SLPC  C31220505  -0.032   0.612   8.502 -0.5237  0.3991  0.3223
  179SLPC  H12X20506  -0.135   0.581   8.531 -1.1626 -1.6296 -3.5155
  179SLPC  H12Y20507   0.031   0.522   8.519 -2.1261 -0.5057  1.8077
  179SLPC  C31320508  -0.038   0.653   8.357 -0.3211 -0.4456  0.3745
  179SLPC  H13X20509   0.045   0.720   8.327 -0.7638  0.5957  1.4094
  179SLPC  H13Y20510  -0.134   0.708   8.344 -0.0558  0.9323  3.4357
  179SLPC  C31420511  -0.034   0.539   8.249 -0.0302 -0.5278 -0.1180
  179SLPC  H14X20512   0.061   0.482   8.262  0.3932  0.2410  0.2368
  179SLPC  H14Y20513  -0.037   0.597   8.154 -2.0969 -1.1127 -0.4625
  179SLPC  C31520514  -0.157   0.451   8.257  0.8223 -0.0726  0.0717
  179SLPC  H15X20515  -0.249   0.514   8.261  0.4615 -0.6587  1.6821
  179SLPC  H15Y20516  -0.170   0.388   8.348 -0.4225 -1.2743 -0.8910
  179SLPC  C31620517  -0.173   0.359   8.132 -0.3411  0.5717 -0.0555
  179SLPC  H16X20518  -0.255   0.288   8.158 -0.2085  0.0705 -0.9737
  179SLPC  H16Y20519  -0.074   0.308   8.131  0.2934  1.6645 -3.0260
  179SLPC  C31720520  -0.209   0.421   8.000 -0.5198 -0.2069 -0.1166
  179SLPC  H17X20521  -0.136   0.386   7.924  1.3852 -3.8452  3.0414
  179SLPC  H17Y20522  -0.197   0.531   8.010  2.6939 -0.4373 -0.3907
  179SLPC  C31820523  -0.346   0.393   7.950 -0.4027 -0.7869 -0.0191
  179SLPC  H18X20524  -0.422   0.445   8.012 -0.5938  1.5862 -2.1207
  179SLPC  H18Y20525  -0.370   0.285   7.939  1.4983 -1.2682  0.2900
  179SLPC  H18Z20526  -0.346   0.440   7.850 -0.8125  3.0109  1.6233
  180SLPC     N20527   1.718   6.057  10.640  0.4865  0.2749  0.1350
  180SLPC   C1320528   1.724   6.077  10.491 -0.2796  0.0734  0.0868
  180SLPC  H13A20529   1.721   5.982  10.438 -0.2910  0.8313 -1.3277
  180SLPC  H13B20530   1.641   6.136  10.456  0.7829  0.8202 -1.2965
  180SLPC  H13C20531   1.810   6.138  10.466 -1.1295  1.8207  1.2732
  180SLPC   C1420532   1.718   6.193  10.704 -0.7306  0.6398 -0.0964
  180SLPC  H14A20533   1.811   6.243  10.682 -0.3601  0.1587  0.3652
  180SLPC  H14B20534   1.637   6.254  10.666 -1.3896  0.2430  0.6519
  180SLPC  H14C20535   1.715   6.179  10.811  2.2321 -1.7108 -0.1969
  180SLPC   C1520536   1.829   5.974  10.683  0.0272  0.1313 -0.2456
  180SLPC  H15A20537   1.828   5.961  10.790 -0.8751  2.7376  0.1444
  180SLPC  H15B20538   1.827   5.880  10.630  0.2832 -0.6477  1.0683
  180SLPC  H15C20539   1.927   6.015  10.661 -0.0086 -0.2847 -1.2154
  180SLPC   C1220540   1.583   5.990  10.670  0.7221 -0.3221  0.1561
  180SLPC  H12A20541   1.569   5.894  10.623 -0.4131 -1.2603  2.2751
  180SLPC  H12B20542   1.505   6.050  10.625  0.8214 -0.1535  0.2032
  180SLPC   C1120543   1.547   5.964  10.816 -0.3096  0.0946 -0.8099
  180SLPC  H11A20544   1.584   6.045  10.883 -2.5760 -0.0407  0.7361
  180SLPC  H11B20545   1.604   5.875  10.850 -1.9838 -0.0532  1.8795
  180SLPC     P20546   1.302   6.053  10.848 -0.1931 -0.3679  0.6861
  180SLPC   O1320547   1.165   5.991  10.833 -0.1692 -0.0611 -0.4021
  180SLPC   O1420548   1.329   6.115  10.979  0.0239 -0.3599  0.3161
  180SLPC   O1220549   1.408   5.943  10.829  0.4027 -0.3253 -0.0638
  180SLPC   O1120550   1.341   6.132  10.719 -0.3582  0.3022 -0.2515
  180SLPC    C120551   1.241   6.186  10.631  0.0355  0.4003  0.4033
  180SLPC    HA20552   1.196   6.103  10.572 -1.6467  1.2809  0.3620
  180SLPC    HB20553   1.155   6.240  10.676  0.1162  2.7911 -2.0306
  180SLPC    C220554   1.309   6.275  10.526 -0.1767  0.1004 -0.2209
  180SLPC    HS20555   1.234   6.335  10.471 -0.1518  0.2305 -0.1146
  180SLPC   O2120556   1.395   6.200  10.438  0.3975  0.1886  0.0219
  180SLPC   C2120557   1.339   6.129  10.348 -0.5088  1.1398 -0.4564
  180SLPC   O2220558   1.220   6.106  10.334 -0.1723  0.6171  0.9243
  180SLPC   C2220559   1.440   6.072  10.254  0.3344  0.2035 -0.1145
  180SLPC   H2R20560   1.493   6.162  10.215 -0.7063  0.9946  0.2578
  180SLPC   H2S20561   1.509   6.015  10.320 -0.0129  1.1089  1.0545
  180SLPC    C320562   1.383   6.386  10.600 -0.0652  0.8525 -0.3070
  180SLPC    HX20563   1.463   6.347  10.667 -0.6826 -0.1866 -0.1685
  180SLPC    HY20564   1.315   6.424  10.679  0.6702 -0.4245  1.0006
  180SLPC   O3120565   1.423   6.495  10.512  0.0677  0.2513 -0.5018
  180SLPC   C3120566   1.528   6.471  10.441  0.0009 -0.6065  0.4092
  180SLPC   O3220567   1.600   6.373  10.439  0.4783  0.1721 -0.0080
  180SLPC   C3220568   1.529   6.571  10.333 -0.5411 -0.7086  0.2035
  180SLPC   H2X20569   1.435   6.576  10.274 -0.2108  1.3590 -0.2301
  180SLPC   H2Y20570   1.598   6.532  10.255 -2.4678 -2.0946 -0.9122
  180SLPC   C2320571   1.387   5.988  10.141  0.1224  0.4767 -0.0980
  180SLPC   H3R20572   1.313   5.909  10.167 -0.1179  0.0957 -1.8362
  180SLPC   H3S20573   1.477   5.949  10.088  0.2434 -1.1924  1.2385
  180SLPC   C2420574   1.313   6.068  10.022  0.0840  0.1149 -0.7096
  180SLPC   H4R20575   1.376   6.158  10.005  1.6571 -0.5917  1.0727
  180SLPC   H4S20576   1.210   6.101  10.048  1.2365  2.8560  0.8361
  180SLPC   C2520577   1.311   5.984   9.894 -0.8523 -0.2510 -0.4842
  180SLPC   H5R20578   1.267   5.883   9.903  1.0551 -1.0567  0.4888
  180SLPC   H5S20579   1.420   5.969   9.877 -0.7584 -0.7905  0.5011
  180SLPC   C2620580   1.244   6.070   9.783  0.0464  0.9248  0.8575
  180SLPC   H6R20581   1.278   6.175   9.782 -1.0511  1.3302  2.3002
  180SLPC   H6S20582   1.133   6.077   9.793 -0.1196  1.3454 -0.9943
  180SLPC   C2720583   1.273   6.012   9.642 -0.3155 -0.2290 -0.5602
  180SLPC   H7R20584   1.380   5.981   9.635 -0.5773 -2.6069  3.2201
  180SLPC   H7S20585   1.234   6.079   9.562 -1.7271  0.6669  0.8225
  180SLPC   C2820586   1.196   5.876   9.631 -0.5430 -0.4811  0.3254
  180SLPC   H8R20587   1.107   5.898   9.694 -1.8904  0.0594 -1.6481
  180SLPC   H8S20588   1.252   5.800   9.689 -0.8006 -1.8398 -1.1221
  180SLPC   C2920589   1.136   5.822   9.501  0.0446  0.3933 -0.3308
  180SLPC   H9R20590   1.044   5.764   9.522  0.3539  0.9576  3.1181
  180SLPC  C21020591   1.180   5.829   9.373 -0.5053 -0.9493 -0.5713
  180SLPC  H10R20592   1.109   5.802   9.293 -3.5260  2.9965  0.4044
  180SLPC  C21120593   1.309   5.890   9.329 -0.1714 -0.1046  0.8015
  180SLPC  H11R20594   1.380   5.814   9.291 -1.6640  0.3128 -3.3646
  180SLPC  H11S20595   1.368   5.931   9.414 -0.4244  2.1311 -0.0163
  180SLPC  C21220596   1.284   6.005   9.233  0.6122  0.1319 -0.0174
  180SLPC  H12R20597   1.270   6.106   9.274  1.7861 -0.7449  2.8179
  180SLPC  C21320598   1.277   5.994   9.100  0.6821 -0.6853  0.3599
  180SLPC  H13R20599   1.221   6.066   9.039  0.6311 -2.1086 -1.3492
  180SLPC  C21420600   1.285   5.868   9.022  0.4915 -0.2991 -0.1981
  180SLPC  H14R20601   1.336   5.793   9.086 -0.5110  0.8504  2.0876
  180SLPC  H14S20602   1.339   5.875   8.925  1.0288 -2.6857 -0.1325
  180SLPC  C21520603   1.144   5.804   9.003  0.6407 -0.0682  0.2353
  180SLPC  H15R20604   1.091   5.892   8.962  1.9475  0.9931  0.7444
  180SLPC  H15S20605   1.106   5.774   9.103  2.1957 -0.1065  0.8489
  180SLPC  C21620606   1.135   5.684   8.905  0.3385  0.5871 -0.3536
  180SLPC  H16R20607   1.193   5.598   8.945 -0.8989  0.4976  1.4165
  180SLPC  H16S20608   1.182   5.706   8.807  1.1432 -1.7298 -0.5467
  180SLPC  C21720609   0.991   5.634   8.878  0.7574 -0.7865  0.0136
  180SLPC  H17R20610   0.935   5.619   8.972  0.0576 -0.4655 -0.3412
  180SLPC  H17S20611   1.003   5.537   8.826  0.8130  0.1118 -1.7522
  180SLPC  C21820612   0.912   5.737   8.801 -0.5774  0.3971 -0.6560
  180SLPC  H18R20613   0.962   5.755   8.703  0.8270 -0.9708 -0.2322
  180SLPC  H18S20614   0.897   5.818   8.876 -2.1181 -1.8543  1.6185
  180SLPC  H18T20615   0.816   5.690   8.772  0.3590 -1.1822 -1.3029
  180SLPC   C3320616   1.563   6.719  10.380  0.4519  0.8247 -0.7415
  180SLPC   H3X20617   1.653   6.702  10.443 -0.1025 -1.8056 -0.5393
  180SLPC   H3Y20618   1.475   6.753  10.439 -0.5425  1.1626 -2.3452
  180SLPC   C3420619   1.555   6.829  10.265 -0.1445 -0.3626 -0.3899
  180SLPC   H4X20620   1.543   6.930  10.310  2.2708 -0.3861  0.4303
  180SLPC   H4Y20621   1.466   6.817  10.200 -1.1815  0.8578  0.7350
  180SLPC   C3520622   1.680   6.832  10.183 -0.2530  0.0614 -0.1248
  180SLPC   H5X20623   1.704   6.731  10.146  4.1795  0.2051  1.7532
  180SLPC   H5Y20624   1.769   6.856  10.246  2.4912 -1.0953 -3.2867
  180SLPC   C3620625   1.666   6.930  10.068 -0.2008 -0.1271  0.5359
  180SLPC   H6X20626   1.760   6.968  10.024 -0.2685  0.3712  0.8136
  180SLPC   H6Y20627   1.610   7.025  10.083 -3.6732 -1.8427 -0.3782
  180SLPC   C3720628   1.609   6.867   9.947 -0.2747 -0.5273  0.8118
  180SLPC   H7X20629   1.502   6.839   9.958 -0.6108  0.4210  0.1895
  180SLPC   H7Y20630   1.664   6.773   9.926 -1.0191 -0.7797 -0.0857
  180SLPC   C3820631   1.618   6.939   9.809 -0.7753 -0.6356 -0.3185
  180SLPC   H8X20632   1.721   6.978   9.794  0.4464 -3.6356 -0.5557
  180SLPC   H8Y20633   1.557   7.031   9.811  0.0626 -0.0888  1.1400
  180SLPC   C3920634   1.569   6.859   9.691  0.1773  1.0964 -0.0091
  180SLPC   H9X20635   1.471   6.814   9.718  0.9841 -0.1130  1.0637
  180SLPC   H9Y20636   1.649   6.782   9.677  1.7790  2.8301 -0.8367
  180SLPC  C31020637   1.542   6.928   9.556 -0.7331 -0.0060 -0.3583
  180SLPC  H10X20638   1.618   7.006   9.531 -0.6039 -0.9778 -3.4181
  180SLPC  H10Y20639   1.443   6.976   9.568 -0.9898 -1.1703  2.9748
  180SLPC  C31120640   1.535   6.832   9.433  0.1754 -0.2458 -0.3037
  180SLPC  H11X20641   1.448   6.765   9.446  0.4426 -0.2140  2.3119
  180SLPC  H11Y20642   1.632   6.779   9.424  0.1592 -0.3450  0.0687
  180SLPC  C31220643   1.526   6.921   9.304  0.1064  0.0694  0.1883
  180SLPC  H12X20644   1.604   7.000   9.312 -0.7017  0.9693 -0.5506
  180SLPC  H12Y20645   1.439   6.989   9.314  0.1940 -0.1242  3.0754
  180SLPC  C31320646   1.532   6.844   9.177  0.7621  0.9649  0.0761
  180SLPC  H13X20647   1.461   6.761   9.196  0.1935  1.7735  1.7223
  180SLPC  H13Y20648   1.630   6.795   9.161  0.0258 -1.1544  1.6553
  180SLPC  C31420649   1.479   6.932   9.064 -0.2303  0.3659 -0.1339
  180SLPC  H14X20650   1.563   6.997   9.030 -1.2405  0.8539 -1.8247
  180SLPC  H14Y20651   1.393   6.983   9.111 -0.1190 -0.0856  0.5777
  180SLPC  C31520652   1.409   6.861   8.945  0.6415  0.6761 -0.4704
  180SLPC  H15X20653   1.372   6.936   8.872  1.9974  0.9986 -0.8674
  180SLPC  H15Y20654   1.335   6.791   8.988 -0.5162  0.5142 -2.5772
  180SLPC  C31620655   1.504   6.764   8.871  0.0727  1.1174  0.4114
  180SLPC  H16X20656   1.463   6.706   8.786 -0.2354  3.4223 -1.1231
  180SLPC  H16Y20657   1.539   6.690   8.946 -1.2787  0.9821  0.9299
  180SLPC  C31720658   1.634   6.839   8.826  0.7256 -0.4203  0.4227
  180SLPC  H17X20659   1.699   6.770   8.769  1.0299  0.1758  0.0395
  180SLPC  H17Y20660   1.701   6.873   8.908  0.8879  3.0409 -0.9711
  180SLPC  C31820661   1.604   6.954   8.740  0.4038 -0.0412  0.1151
  180SLPC  H18X20662   1.585   7.043   8.805 -0.3622 -0.8013  0.9557
  180SLPC  H18Y20663   1.518   6.942   8.671 -1.2913  0.6355  1.9992
  180SLPC  H18Z20664   1.691   6.981   8.677  0.7260 -2.9198 -0.8178
  181SLPC     N20665   4.296   2.658  11.277  0.2920 -0.3345  0.3586
  181SLPC   C1320666   4.330   2.544  11.363  0.1809  0.1369  0.7324
  181SLPC  H13A20667   4.326   2.448  11.313 -1.5925 -0.2480  1.5308
  181SLPC  H13B20668   4.429   2.552  11.406 -0.4833  0.0254  2.3710
  181SLPC  H13C20669   4.257   2.545  11.443 -1.0607  2.1196 -0.3323
  181SLPC   C1420670   4.343   2.775  11.355  0.0140 -0.0979  1.0239
  181SLPC  H14A20671   4.322   2.874  11.316 -0.9437 -0.1580  1.3600
  181SLPC  H14B20672   4.289   2.782  11.448 -0.7302 -1.2471  0.6968
  181SLPC  H14C20673   4.447   2.760  11.379  0.6932 -0.6627 -1.8996
  181SLPC   C1520674   4.151   2.666  11.247 -0.3066 -0.5044 -0.5595
  181SLPC  H15A20675   4.115   2.575  11.201  1.1920 -2.0643  1.1934
  181SLPC  H15B20676   4.101   2.683  11.341 -2.0870  0.4215 -1.6205
  181SLPC  H15C20677   4.121   2.743  11.178 -0.5095 -1.7204 -1.8775
  181SLPC   C1220678   4.368   2.644  11.143 -0.6259 -0.8569 -0.7855
  181SLPC  H12A20679   4.357   2.542  11.109  0.5508 -0.1964 -3.3975
  181SLPC  H12B20680   4.476   2.651  11.149 -0.5901 -1.0589 -1.1932
  181SLPC   C1120681   4.331   2.734  11.032  0.2071  0.6568 -0.1536
  181SLPC  H11A20682   4.229   2.711  10.994  0.7975 -0.7396 -0.9798
  181SLPC  H11B20683   4.397   2.704  10.948  0.9264 -0.8431  0.8994
  181SLPC     P20684   4.476   2.948  11.050  0.3096 -0.0996  0.0999
  181SLPC   O1320685   4.458   3.089  11.091  0.7228 -0.4984 -0.7986
  181SLPC   O1420686   4.567   2.870  11.135 -0.1748  0.0470  0.0867
  181SLPC   O1220687   4.334   2.872  11.068 -0.1705  0.3861 -0.3673
  181SLPC   O1120688   4.519   2.937  10.894  0.6552  0.3230 -0.4516
  181SLPC    C120689   4.430   2.997  10.793 -0.0343  0.0989 -0.2287
  181SLPC    HA20690   4.379   3.091  10.823  0.6471  0.5786 -0.5660
  181SLPC    HB20691   4.492   3.024  10.706  1.0403  1.4910  0.9203
  181SLPC    C220692   4.320   2.906  10.737 -0.6592  0.7292  0.3999
  181SLPC    HS20693   4.235   2.906  10.809 -0.8525  1.4119  0.1792
  181SLPC   O2120694   4.375   2.777  10.703  0.1106  0.0384  0.9451
  181SLPC   C2120695   4.277   2.682  10.702 -0.0320 -0.1625 -0.1363
  181SLPC   O2220696   4.157   2.705  10.704  0.0955  0.1373  0.3792
  181SLPC   C2220697   4.343   2.543  10.703 -0.2273  0.0842  0.4871
  181SLPC   H2R20698   4.450   2.555  10.674 -0.8762 -0.0760 -2.3070
  181SLPC   H2S20699   4.340   2.505  10.807 -0.4877 -1.5573 -0.0902
  181SLPC    C320700   4.261   2.970  10.605 -0.1506 -0.1108  0.2691
  181SLPC    HX20701   4.232   3.075  10.628  2.4116  0.9028 -0.6970
  181SLPC    HY20702   4.170   2.913  10.577 -0.1694 -0.7364  1.5147
  181SLPC   O3120703   4.365   2.977  10.499 -0.0757 -0.1750 -0.3248
  181SLPC   C3120704   4.347   2.897  10.404 -0.2034 -0.2745  0.2531
  181SLPC   O3220705   4.258   2.811  10.396 -0.0814  0.3681  0.2100
  181SLPC   C3220706   4.446   2.949  10.304  0.5856 -0.0835 -0.0869
  181SLPC   H2X20707   4.544   2.928  10.351  0.5290 -0.4032 -0.1062
  181SLPC   H2Y20708   4.427   3.055  10.278 -0.9532 -0.4925 -0.7794
  181SLPC   C2320709   4.282   2.448  10.593 -0.5773  0.2038 -0.0821
  181SLPC   H3R20710   4.232   2.510  10.515  0.4134  0.9426 -0.1541
  181SLPC   H3S20711   4.199   2.398  10.647 -0.3956 -1.1802 -1.0403
  181SLPC   C2420712   4.381   2.353  10.524 -0.3777  0.4107 -0.1726
  181SLPC   H4R20713   4.340   2.253  10.496  1.6763 -1.2833  2.4081
  181SLPC   H4S20714   4.461   2.305  10.585 -1.2570 -2.5654 -1.1905
  181SLPC   C2520715   4.453   2.433  10.411 -0.1726  0.0901 -0.4072
  181SLPC   H5R20716   4.557   2.394  10.402 -1.0013 -2.1330 -1.2091
  181SLPC   H5S20717   4.450   2.541  10.436  1.4883  0.1699 -0.4724
  181SLPC   C2620718   4.379   2.402  10.280  0.1735 -0.3537  0.1830
  181SLPC   H6R20719   4.272   2.377  10.298  0.6653 -3.4465 -0.5898
  181SLPC   H6S20720   4.424   2.309  10.239 -1.4738 -1.0611 -0.0917
  181SLPC   C2720721   4.393   2.516  10.171  1.0199 -0.8210  0.0611
  181SLPC   H7R20722   4.499   2.526  10.142  1.0677 -1.0617  0.1484
  181SLPC   H7S20723   4.348   2.602  10.227 -0.5751 -2.1081  0.8557
  181SLPC   C2820724   4.323   2.483  10.035  0.9536 -0.4914 -0.1453
  181SLPC   H8R20725   4.214   2.491  10.056  0.4504  0.5386 -2.7613
  181SLPC   H8S20726   4.344   2.382   9.996  0.8477 -0.9818  1.0437
  181SLPC   C2920727   4.346   2.583   9.928 -0.5917 -0.0868  0.0710
  181SLPC   H9R20728   4.369   2.687   9.954  1.6795 -0.7832  1.1639
  181SLPC  C21020729   4.331   2.555   9.796  0.9328 -0.2125  0.3931
  181SLPC  H10R20730   4.348   2.642   9.732  0.2911 -0.3910 -0.0246
  181SLPC  C21120731   4.293   2.435   9.717 -0.1798 -0.3171  0.0613
  181SLPC  H11R20732   4.245   2.362   9.785 -2.6318  0.8453 -0.3034
  181SLPC  H11S20733   4.386   2.388   9.679  0.0643 -0.7349  1.1394
  181SLPC  C21220734   4.194   2.470   9.611 -0.5319 -0.7501  0.4383
  181SLPC  H12R20735   4.092   2.461   9.650 -0.3449 -1.0597  0.8636
  181SLPC  C21320736   4.215   2.522   9.490  0.1609  0.5629 -1.0683
  181SLPC  H13R20737   4.131   2.535   9.420  0.6457  0.3078 -1.7142
  181SLPC  C21420738   4.352   2.547   9.447 -0.3409 -0.3325  0.1394
  181SLPC  H14R20739   4.430   2.508   9.516 -0.2636  1.2565  1.0006
  181SLPC  H14S20740   4.370   2.657   9.448 -0.8533 -0.2069 -1.4115
  181SLPC  C21520741   4.380   2.504   9.306 -0.3707  0.3247 -0.1324
  181SLPC  H15R20742   4.453   2.570   9.254  0.4559 -1.7890 -1.8306
  181SLPC  H15S20743   4.295   2.526   9.238  1.8197  1.2088 -2.8038
  181SLPC  C21620744   4.417   2.356   9.298 -0.3178  0.4762  0.0483
  181SLPC  H16R20745   4.397   2.298   9.390 -3.5401  0.5318 -0.5004
  181SLPC  H16S20746   4.528   2.357   9.293 -0.3637  0.8812 -1.5341
  181SLPC  C21720747   4.353   2.288   9.171 -0.3159  0.1146 -0.3094
  181SLPC  H17R20748   4.247   2.321   9.172 -0.6395 -0.8683 -0.5462
  181SLPC  H17S20749   4.358   2.178   9.185  1.2436  0.2344  0.2587
  181SLPC  C21820750   4.409   2.332   9.033 -0.2565  0.3243 -1.2465
  181SLPC  H18R20751   4.385   2.440   9.018  1.1875  0.6727 -1.1285
  181SLPC  H18S20752   4.362   2.268   8.955  0.5496 -0.7318 -0.8870
  181SLPC  H18T20753   4.519   2.320   9.028 -0.4279 -2.6634  0.1483
  181SLPC   C3320754   4.437   2.873  10.173  0.5643  0.0467  0.3008
  181SLPC   H3X20755   4.335   2.864  10.130  0.7549  0.3576 -0.2187
  181SLPC   H3Y20756   4.475   2.769  10.181 -0.8455 -0.6583 -1.3928
  181SLPC   C3420757   4.531   2.940  10.069 -0.8092  0.5840 -0.8240
  181SLPC   H4X20758   4.632   2.934  10.114 -1.3342  3.2507  0.9321
  181SLPC   H4Y20759   4.505   3.048  10.068  0.4637  0.9470  0.7088
  181SLPC   C3520760   4.533   2.884   9.928 -0.1360  0.2856  0.3592
  181SLPC   H5X20761   4.429   2.871   9.892  0.0424 -0.3018  0.0482
  181SLPC   H5Y20762   4.585   2.787   9.917  0.6442  0.6972  0.2966
  181SLPC   C3620763   4.602   2.979   9.836  0.2019  0.0174  0.2299
  181SLPC   H6X20764   4.707   2.970   9.870  0.0095  0.0223  0.8514
  181SLPC   H6Y20765   4.565   3.083   9.855 -1.2083 -0.0989 -1.5816
  181SLPC   C3720766   4.575   2.949   9.692 -0.3510  0.9968  0.3485
  181SLPC   H7X20767   4.633   3.019   9.628  2.2659  1.2378  2.7918
  181SLPC   H7Y20768   4.466   2.964   9.677 -0.1422  2.3368  0.0543
  181SLPC   C3820769   4.625   2.816   9.629 -0.6041  0.3692 -0.2295
  181SLPC   H8X20770   4.553   2.737   9.660 -0.5748  0.1959 -0.5994
  181SLPC   H8Y20771   4.727   2.794   9.668 -0.0884  2.4163 -0.3424
  181SLPC   C3920772   4.624   2.813   9.473 -0.3455  0.0049  0.2873
  181SLPC   H9X20773   4.646   2.914   9.432 -3.7100  1.3050  1.2931
  181SLPC   H9Y20774   4.519   2.813   9.437  0.6215 -2.3592 -2.9862
  181SLPC  C31020775   4.695   2.699   9.404 -0.4510 -0.0579 -0.0183
  181SLPC  H10X20776   4.640   2.694   9.308  1.8220  0.2163 -1.4353
  181SLPC  H10Y20777   4.698   2.601   9.454 -0.6343  0.0132  0.1321
  181SLPC  C31120778   4.843   2.740   9.375 -0.1755  0.9806  0.1508
  181SLPC  H11X20779   4.896   2.739   9.472  3.2103 -1.3927 -1.5316
  181SLPC  H11Y20780   4.844   2.848   9.349 -0.0913  1.0134  0.2915
  181SLPC  C31220781   4.925   2.647   9.284  0.1831 -0.1829 -0.1430
  181SLPC  H12X20782   4.921   2.552   9.342  0.7351  1.3782  2.6807
  181SLPC  H12Y20783   5.026   2.691   9.272  0.2483 -0.1833  0.3811
  181SLPC  C31320784   4.861   2.647   9.149 -0.0537 -0.9637 -0.3673
  181SLPC  H13X20785   4.771   2.582   9.156  0.9382 -2.2436  1.5196
  181SLPC  H13Y20786   4.932   2.599   9.078  1.4359 -0.4413  0.7202
  181SLPC  C31420787   4.831   2.790   9.091  0.2384  0.4474  0.8766
  181SLPC  H14X20788   4.905   2.862   9.133  1.1068 -0.0457  0.1920
  181SLPC  H14Y20789   4.726   2.813   9.119  0.0415  1.8049 -0.7858
  181SLPC  C31520790   4.833   2.808   8.931 -0.2964 -0.7284  0.1466
  181SLPC  H15X20791   4.938   2.810   8.893 -0.3588  1.4964 -0.0170
  181SLPC  H15Y20792   4.803   2.912   8.905  2.3933  0.4180  1.1955
  181SLPC  C31620793   4.749   2.707   8.849 -0.1045 -0.0753  0.2521
  181SLPC  H16X20794   4.778   2.604   8.877 -3.2595 -0.9831  0.5344
  181SLPC  H16Y20795   4.763   2.717   8.739 -1.9066 -0.4985 -0.0405
  181SLPC  C31720796   4.602   2.719   8.891  0.5964  0.2229  0.0215
  181SLPC  H17X20797   4.568   2.825   8.883 -0.4951 -0.0806  0.4201
  181SLPC  H17Y20798   4.607   2.691   8.999 -0.1196 -2.2446 -0.5244
  181SLPC  C31820799   4.513   2.618   8.817 -0.5140 -0.3025 -0.5118
  181SLPC  H18X20800   4.408   2.620   8.852  0.5480  1.1302  3.0535
  181SLPC  H18Y20801   4.556   2.516   8.831  0.2063  0.3156  2.3399
  181SLPC  H18Z20802   4.517   2.637   8.708 -2.7167  0.1672 -0.5630
  182SLPC     N20803   2.014   4.200  10.559 -0.7137 -0.2800  0.0233
  182SLPC   C1320804   1.890   4.257  10.494  0.2276  0.8534 -0.1033
  182SLPC  H13A20805   1.855   4.193  10.414  0.2571 -2.9060  2.5821
  182SLPC  H13B20806   1.817   4.264  10.574  0.5131 -0.8632  0.3626
  182SLPC  H13C20807   1.912   4.350  10.445 -0.5763  0.4752 -1.2184
  182SLPC   C1420808   2.123   4.211  10.460  0.0785 -0.0041 -0.0487
  182SLPC  H14A20809   2.096   4.158  10.369 -3.5479  2.2877 -0.5536
  182SLPC  H14B20810   2.132   4.313  10.427 -0.2601 -0.0101 -0.1729
  182SLPC  H14C20811   2.220   4.185  10.498 -0.6857 -1.2491  1.1528
  182SLPC   C1520812   1.987   4.055  10.598  0.1579  0.0152  0.5713
  182SLPC  H15A20813   1.931   4.044  10.690  1.1072 -0.0309  1.1611
  182SLPC  H15B20814   1.925   4.021  10.517  1.8071  1.4385 -1.3912
  182SLPC  H15C20815   2.082   4.005  10.613  1.9861  3.3849  1.3241
  182SLPC   C1220816   2.047   4.259  10.690 -0.7362 -0.5626 -0.2060
  182SLPC  H12A20817   2.126   4.203  10.738 -1.1750 -1.0263 -0.0267
  182SLPC  H12B20818   1.965   4.252  10.760 -0.0829 -2.4498  0.4303
  182SLPC   C1120819   2.099   4.412  10.698 -0.5958 -0.4315  0.1400
  182SLPC  H11A20820   2.133   4.428  10.802  2.0609 -1.7396 -0.4318
  182SLPC  H11B20821   2.004   4.467  10.678  0.6519  1.5826 -0.4890
  182SLPC     P20822   2.198   4.555  10.506  0.2505 -0.1467  0.2665
  182SLPC   O1320823   2.109   4.501  10.406 -0.1431  0.1859  0.3627
  182SLPC   O1420824   2.160   4.683  10.573  0.5302 -0.2536  0.1837
  182SLPC   O1220825   2.210   4.443  10.617  0.0078  0.1254 -0.7668
  182SLPC   O1120826   2.345   4.568  10.452  0.1334  0.3441 -0.0599
  182SLPC    C120827   2.388   4.484  10.343  0.1255 -0.2839 -0.1803
  182SLPC    HA20828   2.493   4.449  10.343 -0.0304 -0.7840 -0.5738
  182SLPC    HB20829   2.336   4.385  10.343 -1.3405  0.4187  1.7108
  182SLPC    C220830   2.375   4.543  10.195  0.3698 -1.7076 -0.5471
  182SLPC    HS20831   2.461   4.513  10.131  0.5735  0.2995 -1.2888
  182SLPC   O2120832   2.375   4.693  10.204  0.1523  0.2225  0.2762
  182SLPC   C2120833   2.494   4.741  10.233  0.4952  0.1893 -0.2663
  182SLPC   O2220834   2.596   4.670  10.250  0.0977  0.5613  0.2607
  182SLPC   C2220835   2.492   4.895  10.227 -0.2821 -0.0869 -0.1301
  182SLPC   H2R20836   2.392   4.931  10.256  0.4249  2.3688 -0.5499
  182SLPC   H2S20837   2.552   4.926  10.315 -1.0262 -0.1032  0.3825
  182SLPC    C320838   2.248   4.496  10.121  0.4303 -0.2378  0.3656
  182SLPC    HX20839   2.164   4.565  10.142 -0.7310 -1.8210  1.1364
  182SLPC    HY20840   2.221   4.393  10.153  0.3333 -0.3075  0.0645
  182SLPC   O3120841   2.273   4.506   9.976  0.4894  0.4470 -0.5350
  182SLPC   C3120842   2.212   4.423   9.905 -0.7089  0.2813  0.1273
  182SLPC   O3220843   2.135   4.339   9.950  0.0979  0.9611 -0.1790
  182SLPC   C3220844   2.252   4.433   9.754  0.1999 -0.3403 -0.5676
  182SLPC   H2X20845   2.351   4.484   9.747 -0.6093  1.4511  0.3951
  182SLPC   H2Y20846   2.167   4.491   9.713 -1.7932 -1.6681  1.4086
  182SLPC   C2320847   2.544   4.960  10.099 -0.2999 -0.3302 -0.4736
  182SLPC   H3R20848   2.636   4.916  10.056 -0.2747 -1.0678  0.3157
  182SLPC   H3S20849   2.559   5.067  10.122 -1.1314 -0.7107  2.2411
  182SLPC   C2420850   2.433   4.974   9.987  0.2320  0.0189 -0.0162
  182SLPC   H4R20851   2.344   5.031  10.019  0.3816  0.4511 -0.3527
  182SLPC   H4S20852   2.405   4.868   9.966 -0.7915  0.3151 -0.1767
  182SLPC   C2520853   2.490   5.035   9.861  0.1707  0.6393 -0.2670
  182SLPC   H5R20854   2.586   4.984   9.841 -0.8840 -0.9878 -1.3887
  182SLPC   H5S20855   2.516   5.142   9.874  0.0808  1.0368 -2.9111
  182SLPC   C2620856   2.400   5.022   9.747  0.7399  0.0641  0.0600
  182SLPC   H6R20857   2.413   5.104   9.674  0.2281 -1.6412 -2.0593
  182SLPC   H6S20858   2.297   5.042   9.782 -0.3348  0.4474 -2.9974
  182SLPC   C2720859   2.399   4.886   9.681  0.2711  1.0605 -0.1182
  182SLPC   H7R20860   2.406   4.804   9.756  0.7858  1.0765 -0.1406
  182SLPC   H7S20861   2.488   4.873   9.616 -1.3742  1.7081 -2.5996
  182SLPC   C2820862   2.282   4.866   9.576  0.0170  0.7476 -0.6566
  182SLPC   H8R20863   2.270   4.940   9.495 -0.4540  1.4526  0.0468
  182SLPC   H8S20864   2.190   4.884   9.637 -0.2346 -1.2513 -0.3768
  182SLPC   C2920865   2.266   4.723   9.528 -0.0651 -1.1278  0.4444
  182SLPC   H9R20866   2.197   4.672   9.597 -0.5427  0.0059  0.8316
  182SLPC  C21020867   2.309   4.667   9.410 -0.0665 -1.4690  0.2197
  182SLPC  H10R20868   2.280   4.564   9.388 -0.5692 -1.3558  0.3325
  182SLPC  C21120869   2.396   4.738   9.307  0.1890  0.3660 -0.3100
  182SLPC  H11R20870   2.432   4.835   9.348 -1.3227  0.9478 -0.2649
  182SLPC  H11S20871   2.336   4.780   9.223 -3.7431 -0.5622  1.7682
  182SLPC  C21220872   2.500   4.641   9.262 -0.2000 -0.0240 -0.5054
  182SLPC  H12R20873   2.540   4.579   9.344 -1.3759  0.7758  0.7110
  182SLPC  C21320874   2.543   4.599   9.141  0.1661  0.3825  0.0134
  182SLPC  H13R20875   2.600   4.506   9.124 -0.4732  0.4001 -2.7947
  182SLPC  C21420876   2.492   4.651   9.009 -0.2523  0.2784 -0.2073
  182SLPC  H14R20877   2.458   4.756   9.015 -2.9422 -0.5208 -0.2033
  182SLPC  H14S20878   2.399   4.598   8.979 -1.7789  2.5843  0.2148
  182SLPC  C21520879   2.606   4.635   8.907 -0.4492  0.9562 -0.5221
  182SLPC  H15R20880   2.625   4.532   8.871  1.3112  0.9969  0.1777
  182SLPC  H15S20881   2.693   4.678   8.961 -1.4446  1.7250  0.5250
  182SLPC  C21620882   2.586   4.720   8.776 -0.0013 -0.8843 -0.4455
  182SLPC  H16R20883   2.552   4.822   8.802 -1.8005 -1.7281  0.7222
  182SLPC  H16S20884   2.499   4.675   8.723  0.2789  0.0488 -1.7428
  182SLPC  C21720885   2.726   4.718   8.693  0.0191 -0.1891  0.0347
  182SLPC  H17R20886   2.686   4.761   8.599  0.6219 -1.0948 -0.6478
  182SLPC  H17S20887   2.765   4.614   8.693  1.5412  0.3633 -0.0423
  182SLPC  C21820888   2.835   4.822   8.738 -0.4649  0.9945 -0.0708
  182SLPC  H18R20889   2.926   4.812   8.675  0.4127 -0.4156  1.3431
  182SLPC  H18S20890   2.856   4.802   8.845  1.6401 -0.7591 -0.7494
  182SLPC  H18T20891   2.788   4.922   8.727 -1.6929  0.5309  0.7781
  182SLPC   C3320892   2.254   4.292   9.686 -0.3155  0.2521  0.1718
  182SLPC   H3X20893   2.169   4.226   9.714  0.2401 -0.4407  0.2702
  182SLPC   H3Y20894   2.339   4.236   9.733 -0.8566  0.6532  1.7019
  182SLPC   C3420895   2.263   4.303   9.536  0.2801 -0.5070 -0.0974
  182SLPC   H4X20896   2.347   4.369   9.506  1.0632 -1.7187 -0.6593
  182SLPC   H4Y20897   2.170   4.340   9.488  0.2100  0.6655  0.8947
  182SLPC   C3520898   2.295   4.167   9.477  0.6614  0.1839  0.1277
  182SLPC   H5X20899   2.214   4.100   9.513  2.9286 -2.3290  0.8890
  182SLPC   H5Y20900   2.388   4.117   9.510 -0.6552 -1.1804  1.9955
  182SLPC   C3620901   2.302   4.177   9.325  0.6276  0.2923 -0.0978
  182SLPC   H6X20902   2.392   4.232   9.289 -0.5854  1.1689 -1.9089
  182SLPC   H6Y20903   2.216   4.231   9.282 -0.2974 -1.2441 -0.2413
  182SLPC   C3720904   2.303   4.039   9.260 -0.2392 -0.5597 -0.0302
  182SLPC   H7X20905   2.210   4.003   9.309 -0.6747 -0.2769 -0.6431
  182SLPC   H7Y20906   2.390   3.978   9.294  0.1045  0.6147  1.2907
  182SLPC   C3820907   2.277   4.041   9.107 -0.8523 -0.5256  0.3006
  182SLPC   H8X20908   2.372   4.071   9.057 -0.0987 -1.4701  1.1352
  182SLPC   H8Y20909   2.206   4.125   9.090 -0.3711 -0.1633  0.0671
  182SLPC   C3920910   2.250   3.907   9.039  0.1933 -0.3084 -0.6433
  182SLPC   H9X20911   2.145   3.881   9.064  0.6613 -1.8255 -0.1290
  182SLPC   H9Y20912   2.312   3.826   9.083 -1.6422 -0.9329  0.8928
  182SLPC  C31020913   2.279   3.928   8.894 -0.2433 -0.0897  0.1114
  182SLPC  H10X20914   2.387   3.926   8.869 -0.1157 -2.8590  0.5100
  182SLPC  H10Y20915   2.232   4.021   8.855 -1.7822 -1.6339 -1.9815
  182SLPC  C31120916   2.212   3.818   8.806 -0.1413  0.0356  0.4280
  182SLPC  H11X20917   2.102   3.831   8.798 -0.0119  2.0899  1.3756
  182SLPC  H11Y20918   2.237   3.717   8.846 -1.1058 -1.1519 -1.7713
  182SLPC  C31220919   2.263   3.807   8.656 -0.3328 -0.0421 -0.5429
  182SLPC  H12X20920   2.361   3.756   8.653 -0.1871  0.2781 -1.8037
  182SLPC  H12Y20921   2.280   3.905   8.606  0.6321 -0.2770 -0.6921
  182SLPC  C31320922   2.166   3.731   8.568 -0.2440 -0.2452  0.1689
  182SLPC  H13X20923   2.172   3.761   8.461 -0.7786 -0.6019  0.0374
  182SLPC  H13Y20924   2.060   3.747   8.595  0.6174  0.7372  3.5109
  182SLPC  C31420925   2.204   3.585   8.574 -0.0130 -0.1754  0.6453
  182SLPC  H14X20926   2.197   3.562   8.682  0.1341  2.1677  1.2076
  182SLPC  H14Y20927   2.305   3.557   8.539  0.0964 -0.5963  1.2939
  182SLPC  C31520928   2.100   3.498   8.496  0.5015 -0.4517 -0.1916
  182SLPC  H15X20929   2.009   3.559   8.512 -2.5437 -3.2673 -4.7401
  182SLPC  H15Y20930   2.084   3.407   8.557 -0.5896 -2.0591 -2.7445
  182SLPC  C31620931   2.098   3.464   8.351  0.2754 -0.2728  0.5296
  182SLPC  H16X20932   2.133   3.542   8.280 -3.2101  1.7116  0.7718
  182SLPC  H16Y20933   1.990   3.469   8.325  0.3352 -0.1721  0.2963
  182SLPC  C31720934   2.157   3.325   8.327  0.0210 -0.9368  0.7394
  182SLPC  H17X20935   2.146   3.266   8.421  1.0578 -0.1346  1.3992
  182SLPC  H17Y20936   2.265   3.345   8.309 -0.4379  1.2018  0.0385
  182SLPC  C31820937   2.092   3.254   8.203  0.6835  1.2500 -0.0489
  182SLPC  H18X20938   1.981   3.259   8.209  0.6485 -0.0731  0.8268
  182SLPC  H18Y20939   2.126   3.149   8.193  0.0420  1.1771 -1.8351
  182SLPC  H18Z20940   2.111   3.305   8.106  3.5594  0.9033  0.2501
  183SLPC     N20941   4.194   4.753  11.065 -1.1842  0.1814 -0.0083
  183SLPC   C1320942   4.234   4.696  11.199  0.7561 -0.2614 -0.2780
  183SLPC  H13A20943   4.310   4.621  11.184  0.9853 -0.4497  1.5876
  183SLPC  H13B20944   4.283   4.768  11.263  1.5074 -2.7653  2.1894
  183SLPC  H13C20945   4.147   4.661  11.252  1.1125 -2.0711 -0.8176
  183SLPC   C1420946   4.294   4.856  11.020 -0.7771  0.9035 -0.0709
  183SLPC  H14A20947   4.272   4.878  10.917  3.3290 -0.3093 -1.3997
  183SLPC  H14B20948   4.293   4.947  11.079  1.2889  0.8069  0.1895
  183SLPC  H14C20949   4.393   4.815  11.017 -0.2739  2.1490 -2.0563
  183SLPC   C1520950   4.051   4.802  11.073 -0.2530  0.1896  0.5710
  183SLPC  H15A20951   4.018   4.832  10.975 -0.3116  4.6490  1.7195
  183SLPC  H15B20952   3.987   4.725  11.114  1.3943 -1.8125 -0.4678
  183SLPC  H15C20953   4.038   4.885  11.141 -2.4625  0.1757  0.2619
  183SLPC   C1220954   4.202   4.631  10.975  0.6972 -0.0209 -0.6714
  183SLPC  H12A20955   4.138   4.550  11.005 -0.9474  1.5158  0.1925
  183SLPC  H12B20956   4.303   4.595  10.973  1.4188  1.9346 -1.3809
  183SLPC   C1120957   4.174   4.649  10.823 -0.1109 -0.4281  0.0904
  183SLPC  H11A20958   4.209   4.552  10.782 -1.1853 -0.4621 -0.7937
  183SLPC  H11B20959   4.227   4.733  10.773 -1.6993 -0.0857 -1.1071
  183SLPC     P20960   3.928   4.558  10.819  0.0141  0.0580 -0.0128
  183SLPC   O1320961   3.997   4.443  10.892  0.2307  0.2095  0.3200
  183SLPC   O1420962   3.802   4.606  10.874  0.0258 -0.0729  0.6212
  183SLPC   O1220963   4.037   4.669  10.797 -0.2378 -0.9784 -0.0745
  183SLPC   O1120964   3.906   4.495  10.679  0.1603  0.3432 -0.3089
  183SLPC    C120965   4.008   4.433  10.611 -0.5831  0.3408 -0.1294
  183SLPC    HA20966   4.113   4.450  10.644 -0.8851  1.0751  0.4565
  183SLPC    HB20967   3.999   4.323  10.624  0.6077  0.1486 -0.7625
  183SLPC    C220968   3.997   4.449  10.461 -0.0080 -0.2631  0.0928
  183SLPC    HS20969   4.060   4.382  10.399 -0.7845 -1.1792  0.2859
  183SLPC   O2120970   4.025   4.591  10.435 -0.1545  0.5439 -0.2469
  183SLPC   C2120971   4.153   4.621  10.427  0.1115 -0.4517  0.1414
  183SLPC   O2220972   4.254   4.559  10.446  0.4081  0.3786  0.7661
  183SLPC   C2220973   4.160   4.770  10.384  0.6180  0.4050 -0.2717
  183SLPC   H2R20974   4.056   4.799  10.356  0.5419  0.3965  0.0019
  183SLPC   H2S20975   4.187   4.830  10.473  0.3653 -1.4404  1.0942
  183SLPC    C320976   3.852   4.424  10.410  0.5247  0.1728  0.2156
  183SLPC    HX20977   3.778   4.496  10.451  0.8134  0.9551 -0.6067
  183SLPC    HY20978   3.823   4.323  10.443 -1.5892  0.7679  0.2995
  183SLPC   O3120979   3.854   4.404  10.269  0.1592  0.5980  0.2298
  183SLPC   C3120980   3.824   4.512  10.199  0.6213 -0.6534 -0.0038
  183SLPC   O3220981   3.798   4.620  10.243 -0.2853  0.0318  0.5692
  183SLPC   C3220982   3.853   4.504  10.056  0.1029 -0.0420  0.3893
  183SLPC   H2X20983   3.956   4.464  10.059  0.7238  1.5101  1.0511
  183SLPC   H2Y20984   3.848   4.606  10.013  0.2404 -0.7698 -1.4436
  183SLPC   C2320985   4.264   4.799  10.270 -0.0447 -0.0440 -0.6412
  183SLPC   H3R20986   4.355   4.736  10.281 -1.2311 -1.5219  1.1444
  183SLPC   H3S20987   4.290   4.906  10.278  2.0228 -0.4577 -1.3030
  183SLPC   C2420988   4.203   4.777  10.136  0.2220  0.0414  0.6430
  183SLPC   H4R20989   4.148   4.863  10.094  1.6398  0.7123  0.0797
  183SLPC   H4S20990   4.139   4.686  10.145  0.9350 -0.2547  3.4312
  183SLPC   C2520991   4.304   4.751  10.021  0.1463  0.2431 -0.4958
  183SLPC   H5R20992   4.359   4.660  10.053 -1.1622 -0.6042 -0.5818
  183SLPC   H5S20993   4.378   4.834  10.018  1.1408 -0.6295 -0.9473
  183SLPC   C2620994   4.229   4.735   9.891  0.5096  0.2473  0.2286
  183SLPC   H6R20995   4.186   4.836   9.875  1.0572  0.3385 -0.7497
  183SLPC   H6S20996   4.150   4.658   9.904 -0.2148  0.9668  0.1774
  183SLPC   C2720997   4.299   4.695   9.767  0.7099 -0.0841 -0.0758
  183SLPC   H7R20998   4.329   4.589   9.787 -2.5077 -0.9409  0.7867
  183SLPC   H7S20999   4.393   4.754   9.760  0.2876  0.4924 -0.8485
  183SLPC   C2821000   4.206   4.706   9.646  0.0680  0.2510 -0.0036
  183SLPC   H8R21001   4.186   4.813   9.623 -1.5493  0.2917  1.3606
  183SLPC   H8S21002   4.105   4.665   9.665 -0.3576  1.9016  1.5260
  183SLPC   C2921003   4.273   4.634   9.532  0.0981  0.5207 -0.0443
  183SLPC   H9R21004   4.367   4.585   9.564 -0.8530 -0.8386  0.7693
  183SLPC  C21021005   4.232   4.607   9.405 -0.1747  0.1986  0.2821
  183SLPC  H10R21006   4.307   4.560   9.339  1.5509  2.1702  0.7494
  183SLPC  C21121007   4.105   4.657   9.342 -0.0976  0.0644 -0.2175
  183SLPC  H11R21008   4.039   4.705   9.418 -0.4570  1.1122 -1.1752
  183SLPC  H11S21009   4.043   4.581   9.290 -0.5947  0.6316 -0.4709
  183SLPC  C21221010   4.146   4.767   9.245 -1.0523  0.2292  0.4276
  183SLPC  H12R21011   4.128   4.869   9.280 -2.5405  0.5347 -1.0859
  183SLPC  C21321012   4.216   4.755   9.128  0.4563  0.4545 -0.0075
  183SLPC  H13R21013   4.250   4.843   9.072  3.2332 -0.5048  0.0216
  183SLPC  C21421014   4.244   4.613   9.068 -0.4603 -0.1988  0.4724
  183SLPC  H14R21015   4.173   4.536   9.104  0.2304 -1.6883 -1.2008
  183SLPC  H14S21016   4.341   4.584   9.114 -0.6015  1.8188  2.1971
  183SLPC  C21521017   4.259   4.620   8.920 -0.1392  0.6415  0.1988
  183SLPC  H15R21018   4.327   4.703   8.891  0.2228  0.1251 -0.4522
  183SLPC  H15S21019   4.158   4.639   8.878 -0.3501 -0.1049  0.3508
  183SLPC  C21621020   4.317   4.491   8.853 -0.2919 -0.5572 -0.0516
  183SLPC  H16R21021   4.241   4.410   8.850  0.3744 -1.2143  0.5504
  183SLPC  H16S21022   4.407   4.456   8.907  1.4608  1.6454 -1.3829
  183SLPC  C21721023   4.378   4.514   8.715  0.3567 -0.1776 -0.2074
  183SLPC  H17R21024   4.464   4.583   8.700 -0.4531  0.4429 -2.3150
  183SLPC  H17S21025   4.299   4.569   8.660  0.0056 -2.3064 -1.9593
  183SLPC  C21821026   4.399   4.390   8.631 -0.1432  0.1183  0.1536
  183SLPC  H18R21027   4.499   4.356   8.666  0.6025  2.5283  0.5487
  183SLPC  H18S21028   4.410   4.408   8.522  0.8785  1.0976  0.3880
  183SLPC  H18T21029   4.326   4.310   8.654  0.1804  0.6880  3.8800
  183SLPC   C3321030   3.766   4.400   9.977  0.1914  0.2410  0.0230
  183SLPC   H3X21031   3.661   4.427   9.998 -0.5445 -2.2208 -0.1645
  183SLPC   H3Y21032   3.785   4.297  10.014 -0.1790  0.2370  0.2016
  183SLPC   C3421033   3.785   4.416   9.830  0.8560 -0.6223  0.4556
  183SLPC   H4X21034   3.895   4.410   9.814  1.1245 -0.8655  2.1909
  183SLPC   H4Y21035   3.753   4.517   9.797  0.5811 -1.0356 -0.5625
  183SLPC   C3521036   3.726   4.305   9.751 -0.0399  0.3710  0.7633
  183SLPC   H5X21037   3.616   4.320   9.743 -0.1940 -1.3205 -1.1330
  183SLPC   H5Y21038   3.740   4.207   9.800  1.6474  1.1422  1.9361
  183SLPC   C3621039   3.780   4.292   9.614 -0.3240  0.2675  0.3529
  183SLPC   H6X21040   3.875   4.235   9.607  0.3377  1.3932 -0.1721
  183SLPC   H6Y21041   3.796   4.392   9.569 -2.7388 -0.1572 -1.6760
  183SLPC   C3721042   3.677   4.226   9.525 -0.2863  0.6732  0.8650
  183SLPC   H7X21043   3.592   4.295   9.511 -0.2981  0.7323  1.2115
  183SLPC   H7Y21044   3.627   4.141   9.578 -0.5935 -0.5049 -1.2174
  183SLPC   C3821045   3.736   4.198   9.390  0.5640  0.1449  0.3771
  183SLPC   H8X21046   3.670   4.143   9.320  0.2837  1.1285 -0.1400
  183SLPC   H8Y21047   3.824   4.132   9.405  0.5271  0.5461  2.6850
  183SLPC   C3921048   3.778   4.327   9.316 -0.3348  1.1313  0.3424
  183SLPC   H9X21049   3.828   4.298   9.221 -2.2183  0.8883 -0.6276
  183SLPC   H9Y21050   3.851   4.388   9.372 -2.9207  4.9454 -0.0551
  183SLPC  C31021051   3.667   4.422   9.287  0.2620 -0.3348  0.3166
  183SLPC  H10X21052   3.636   4.459   9.387 -0.6398  1.9798 -0.7558
  183SLPC  H10Y21053   3.593   4.361   9.231  0.7912 -0.6877 -0.0053
  183SLPC  C31121054   3.707   4.544   9.196  0.2209  0.0450 -0.0987
  183SLPC  H11X21055   3.787   4.602   9.246 -0.3792  1.6270 -0.9138
  183SLPC  H11Y21056   3.622   4.615   9.199  0.0392 -0.1949  0.4235
  183SLPC  C31221057   3.764   4.510   9.061 -0.1831 -0.2429 -0.0156
  183SLPC  H12X21058   3.814   4.412   9.070  0.4507  0.2361  2.3571
  183SLPC  H12Y21059   3.841   4.583   9.025 -0.2316 -0.2394 -0.1134
  183SLPC  C31321060   3.650   4.500   8.960  0.1438 -0.4250  0.0848
  183SLPC  H13X21061   3.602   4.599   8.950  1.6718  0.3905  0.3907
  183SLPC  H13Y21062   3.574   4.424   8.989  1.5726 -1.5089  1.1717
  183SLPC  C31421063   3.698   4.453   8.820  0.1871  0.3408 -0.0526
  183SLPC  H14X21064   3.610   4.477   8.756 -1.9339 -2.3471  1.6408
  183SLPC  H14Y21065   3.712   4.343   8.822  1.1143  0.4342 -0.5802
  183SLPC  C31521066   3.826   4.511   8.761 -0.1999 -0.3884  0.0916
  183SLPC  H15X21067   3.914   4.468   8.813  1.5577  2.0138 -0.7440
  183SLPC  H15Y21068   3.834   4.621   8.775  1.7650 -0.4230 -0.5000
  183SLPC  C31621069   3.845   4.482   8.607  0.5109  0.2458 -1.2860
  183SLPC  H16X21070   3.791   4.561   8.550 -0.3681  0.3697 -0.3194
  183SLPC  H16Y21071   3.796   4.385   8.583 -2.5796  1.0826  1.0274
  183SLPC  C31721072   3.997   4.465   8.560  0.6779  0.1087 -0.3513
  183SLPC  H17X21073   4.054   4.546   8.610  0.3131  0.6080 -0.7483
  183SLPC  H17Y21074   3.995   4.469   8.449 -1.3453  0.4173 -0.3398
  183SLPC  C31821075   4.050   4.326   8.585  0.0091 -0.0627 -0.8462
  183SLPC  H18X21076   4.069   4.315   8.694  1.9338  3.8204 -0.6413
  183SLPC  H18Y21077   4.150   4.306   8.542  0.4821  0.2840  0.0679
  183SLPC  H18Z21078   3.980   4.246   8.551  0.9095 -0.7923 -1.0001
  184SLPC     N21079   5.971   2.588  10.898  0.0640 -0.3190 -0.1988
  184SLPC   C1321080   6.033   2.719  10.925 -1.2764 -0.0340 -0.4773
  184SLPC  H13A21081   6.052   2.739  11.030 -2.2940  1.5486 -0.5688
  184SLPC  H13B21082   6.129   2.721  10.876 -0.6390 -1.1295  0.6461
  184SLPC  H13C21083   5.978   2.805  10.889 -1.0922  0.9441  1.4182
  184SLPC   C1421084   5.839   2.578  10.969  0.0031  0.4023 -0.1924
  184SLPC  H14A21085   5.841   2.578  11.077  0.5745 -0.8975 -0.1861
  184SLPC  H14B21086   5.774   2.660  10.943  2.0727  2.0492 -0.4211
  184SLPC  H14C21087   5.785   2.490  10.937  2.5072 -1.0966 -0.5808
  184SLPC   C1521088   6.061   2.481  10.937 -0.1424  0.8392  0.0877
  184SLPC  H15A21089   6.077   2.494  11.043  0.8554 -0.5347  0.1296
  184SLPC  H15B21090   6.025   2.381  10.918 -1.5363  1.3905 -0.3125
  184SLPC  H15C21091   6.157   2.493  10.889 -0.0531  1.5188  0.4136
  184SLPC   C1221092   5.949   2.570  10.745 -0.3074 -0.0587  0.4749
  184SLPC  H12A21093   5.869   2.638  10.723  0.3333  0.3342 -0.6766
  184SLPC  H12B21094   5.930   2.471  10.707  2.0588  0.5944 -2.8118
  184SLPC   C1121095   6.075   2.601  10.651 -0.0178  0.3872  0.2970
  184SLPC  H11A21096   6.116   2.704  10.655  1.7737 -0.2067 -1.4486
  184SLPC  H11B21097   6.041   2.603  10.546  0.3549 -0.6635  0.1498
  184SLPC     P21098   6.193   2.381  10.563 -0.0541  0.5975 -0.1643
  184SLPC   O1321099   6.277   2.280  10.627 -0.1574  0.8361 -0.2197
  184SLPC   O1421100   6.059   2.335  10.522  0.3039 -0.0067  0.0268
  184SLPC   O1221101   6.178   2.504  10.668  0.5260  0.2585 -0.0440
  184SLPC   O1121102   6.268   2.440  10.440  0.1206  0.3317  0.2020
  184SLPC    C121103   6.338   2.564  10.433 -0.0870 -0.0114  0.1127
  184SLPC    HA21104   6.272   2.647  10.466 -0.4340 -0.6845  1.1900
  184SLPC    HB21105   6.418   2.574  10.509  0.7904  0.4147 -0.8524
  184SLPC    C221106   6.393   2.602  10.296  0.4214 -0.0321 -0.0370
  184SLPC    HS21107   6.439   2.703  10.297  0.7694 -0.1597 -1.4715
  184SLPC   O2121108   6.289   2.587  10.202 -0.0382  0.3515 -0.7851
  184SLPC   C2121109   6.189   2.671  10.201 -0.2927 -0.6094 -0.2882
  184SLPC   O2221110   6.166   2.766  10.279 -0.1539  0.1316  0.3998
  184SLPC   C2221111   6.100   2.633  10.084 -0.5323 -0.3130  0.4031
  184SLPC   H2R21112   6.128   2.531  10.051 -0.3405 -0.2364  0.3260
  184SLPC   H2S21113   5.995   2.636  10.120 -1.0889  1.7716 -1.1495
  184SLPC    C321114   6.512   2.509  10.253 -0.2295  0.2524 -0.6424
  184SLPC    HX21115   6.477   2.407  10.281  0.1303 -0.0306 -1.2066
  184SLPC    HY21116   6.598   2.539  10.316  0.0003 -1.0208 -0.3198
  184SLPC   O3121117   6.542   2.522  10.113 -0.1722 -0.4727 -0.3459
  184SLPC   C3121118   6.537   2.405  10.049 -0.1706 -0.4561  0.5016
  184SLPC   O3221119   6.505   2.297  10.096  0.1601 -0.0579  0.3755
  184SLPC   C3221120   6.583   2.428   9.908 -0.4232  0.3416  0.6260
  184SLPC   H2X21121   6.684   2.385   9.891 -1.4912 -2.2753  0.4052
  184SLPC   H2Y21122   6.590   2.537   9.890 -1.1447  0.6041  1.8329
  184SLPC   C2321123   6.116   2.736   9.967  0.3108  0.3030 -0.9279
  184SLPC   H3R21124   6.086   2.838   9.997 -0.7557 -0.5926  1.1951
  184SLPC   H3S21125   6.041   2.704   9.892  0.0812 -1.1660 -0.1109
  184SLPC   C2421126   6.239   2.726   9.885 -0.7937 -0.4224  0.1556
  184SLPC   H4R21127   6.262   2.618   9.868 -1.1157 -0.5343  0.4294
  184SLPC   H4S21128   6.329   2.771   9.932 -0.9282  0.5846 -0.5172
  184SLPC   C2521129   6.229   2.786   9.744  0.1015  0.4655  0.0191
  184SLPC   H5R21130   6.195   2.891   9.756 -0.7554  0.1252  0.6811
  184SLPC   H5S21131   6.154   2.713   9.707  1.2731 -2.6164  3.1726
  184SLPC   C2621132   6.360   2.779   9.659 -0.1833 -0.2986  0.5883
  184SLPC   H6R21133   6.371   2.671   9.633 -1.4557 -0.8621  2.1723
  184SLPC   H6S21134   6.447   2.818   9.716  1.5590 -1.2369 -1.3270
  184SLPC   C2721135   6.346   2.856   9.529  0.1352 -0.3867 -0.0531
  184SLPC   H7R21136   6.330   2.963   9.554  0.7562 -0.4592  0.7182
  184SLPC   H7S21137   6.261   2.824   9.466 -2.6698  1.5504  2.4835
  184SLPC   C2821138   6.480   2.859   9.454 -0.1883 -0.5262  0.8254
  184SLPC   H8R21139   6.556   2.912   9.516 -1.3211 -0.5241  2.2618
  184SLPC   H8S21140   6.471   2.913   9.358  0.4171 -3.5132 -1.0427
  184SLPC   C2921141   6.537   2.724   9.427 -0.1889  0.7913  0.8333
  184SLPC   H9R21142   6.567   2.668   9.517  0.0219 -0.6616 -0.0927
  184SLPC  C21021143   6.556   2.673   9.299 -0.1534 -0.1138 -0.1675
  184SLPC  H10R21144   6.603   2.574   9.287 -0.1147 -0.2046  0.6863
  184SLPC  C21121145   6.516   2.739   9.173  0.5536  0.2154  0.5524
  184SLPC  H11R21146   6.453   2.829   9.191 -0.0355  0.2370 -1.3259
  184SLPC  H11S21147   6.456   2.668   9.112  3.0212 -1.1371 -0.4393
  184SLPC  C21221148   6.629   2.787   9.080 -0.3743  0.7009  0.1340
  184SLPC  H12R21149   6.728   2.769   9.126 -0.5975 -0.0507  0.3334
  184SLPC  C21321150   6.618   2.839   8.953  0.1019 -0.6413 -0.6770
  184SLPC  H13R21151   6.713   2.864   8.903  1.4705 -2.8753  0.6138
  184SLPC  C21421152   6.488   2.863   8.877 -0.2607  0.3780  0.5193
  184SLPC  H14R21153   6.479   2.971   8.851  1.4047  0.5389  0.5030
  184SLPC  H14S21154   6.409   2.827   8.946  0.3497 -1.0948  0.4803
  184SLPC  C21521155   6.490   2.788   8.745 -0.3377 -0.3175  0.2806
  184SLPC  H15R21156   6.385   2.774   8.713 -0.2270 -1.7328  0.5027
  184SLPC  H15S21157   6.525   2.685   8.765 -1.2400 -0.7502 -0.3181
  184SLPC  C21621158   6.582   2.869   8.649 -0.4783  0.0612 -0.4624
  184SLPC  H16R21159   6.688   2.884   8.677  0.0760 -0.7999 -1.9552
  184SLPC  H16S21160   6.536   2.969   8.637 -2.6601 -0.9006 -0.7847
  184SLPC  C21721161   6.593   2.810   8.507 -0.0721 -0.5261  0.2518
  184SLPC  H17R21162   6.491   2.810   8.463 -0.2817  1.9080  0.6002
  184SLPC  H17S21163   6.629   2.709   8.533  0.2689 -0.0796  1.5894
  184SLPC  C21821164   6.698   2.891   8.425  0.3641  0.3165  0.7910
  184SLPC  H18R21165   6.798   2.858   8.460  0.3411 -2.9710 -1.7812
  184SLPC  H18S21166   6.680   3.001   8.429 -1.0745  0.3941 -3.1567
  184SLPC  H18T21167   6.694   2.855   8.320 -1.9000  1.7664  0.2884
  184SLPC   C3321168   6.493   2.355   9.804  0.1160  0.1688 -0.3425
  184SLPC   H3X21169   6.400   2.415   9.792 -0.4562 -0.1208  2.0907
  184SLPC   H3Y21170   6.472   2.248   9.825  1.2650  0.0761  0.4231
  184SLPC   C3421171   6.568   2.345   9.672 -0.0073  0.2172  0.5410
  184SLPC   H4X21172   6.655   2.278   9.691 -0.1094  0.2753  1.2769
  184SLPC   H4Y21173   6.605   2.439   9.626  0.7460 -0.5639 -0.4861
  184SLPC   C3521174   6.479   2.275   9.556 -0.0363  0.1762 -0.0271
  184SLPC   H5X21175   6.395   2.346   9.538  0.6677  1.0187 -0.1007
  184SLPC   H5Y21176   6.443   2.180   9.600 -0.8961  1.8424  3.2318
  184SLPC   C3621177   6.559   2.255   9.427 -0.4344  0.0187  0.1753
  184SLPC   H6X21178   6.604   2.154   9.414 -0.8788 -0.0925 -0.5814
  184SLPC   H6Y21179   6.639   2.332   9.439  0.8691 -1.3587  0.6357
  184SLPC   C3721180   6.489   2.288   9.289 -0.0642  0.0460  0.1138
  184SLPC   H7X21181   6.428   2.380   9.298  1.5615  1.2067 -0.4108
  184SLPC   H7Y21182   6.421   2.205   9.257  0.4128 -0.0627 -0.6461
  184SLPC   C3821183   6.599   2.304   9.183  1.0810 -1.0117 -0.4818
  184SLPC   H8X21184   6.654   2.208   9.188  0.9864 -1.0074  2.6048
  184SLPC   H8Y21185   6.670   2.383   9.214 -0.8775  0.4871  0.4480
  184SLPC   C3921186   6.542   2.328   9.042  0.1343 -0.6775 -0.5235
  184SLPC   H9X21187   6.488   2.424   9.032 -0.2426 -0.9601 -1.2880
  184SLPC   H9Y21188   6.464   2.252   9.020 -0.2159 -0.8940  1.2913
  184SLPC  C31021189   6.651   2.322   8.933 -0.2235  0.3134 -0.1850
  184SLPC  H10X21190   6.658   2.214   8.906 -1.9548  0.4116 -1.1476
  184SLPC  H10Y21191   6.751   2.360   8.964 -0.3085  1.3154 -1.0785
  184SLPC  C31121192   6.606   2.388   8.801  0.0749  0.0173  0.4852
  184SLPC  H11X21193   6.687   2.369   8.727  0.6087 -1.4468  1.4047
  184SLPC  H11Y21194   6.610   2.499   8.811 -0.5984 -0.0229  1.3519
  184SLPC  C31221195   6.459   2.360   8.753 -0.3096 -0.1038 -0.1516
  184SLPC  H12X21196   6.390   2.406   8.827 -0.9000 -1.1500 -0.0270
  184SLPC  H12Y21197   6.445   2.250   8.755  1.7463 -0.4144 -0.7866
  184SLPC  C31321198   6.421   2.419   8.617  0.2298  0.4270 -0.1089
  184SLPC  H13X21199   6.409   2.329   8.553 -0.5068  0.1329  0.4333
  184SLPC  H13Y21200   6.495   2.484   8.565  0.1272  0.0381 -0.7477
  184SLPC  C31421201   6.284   2.486   8.607 -0.0876 -0.6357  0.2999
  184SLPC  H14X21202   6.278   2.582   8.663 -0.1697  0.3605 -1.3614
  184SLPC  H14Y21203   6.208   2.424   8.660 -1.0664 -0.9724 -1.4374
  184SLPC  C31521204   6.228   2.506   8.463 -0.1883 -0.0319 -0.8078
  184SLPC  H15X21205   6.202   2.405   8.425  0.4115 -0.6441  0.3471
  184SLPC  H15Y21206   6.309   2.535   8.392  1.2095  0.2211  0.8064
  184SLPC  C31621207   6.113   2.608   8.449 -0.0847  0.2656 -0.2185
  184SLPC  H16X21208   6.161   2.708   8.452  2.6908 -0.9329 -0.7658
  184SLPC  H16Y21209   6.052   2.610   8.541 -2.8551 -1.0838 -1.8956
  184SLPC  C31721210   6.019   2.575   8.333 -0.2829 -0.8818 -0.6165
  184SLPC  H17X21211   6.004   2.465   8.335  2.5500 -1.3453 -0.6465
  184SLPC  H17Y21212   6.084   2.598   8.246 -0.2705  2.0716  0.0561
  184SLPC  C31821213   5.900   2.664   8.321  0.6636 -0.0827 -0.6766
  184SLPC  H18X21214   5.821   2.638   8.394  0.1376  3.0537 -0.0298
  184SLPC  H18Y21215   5.869   2.639   8.217 -2.6163 -1.0055  0.4037
  184SLPC  H18Z21216   5.917   2.773   8.321 -1.3446  0.2929  0.9122
  185SLPC     N21217   5.732   6.583   6.117 -0.0167 -0.1141 -0.5142
  185SLPC   C1321218   5.703   6.438   6.087 -0.0897 -0.5923 -0.1414
  185SLPC  H13A21219   5.663   6.392   6.176 -2.5481  0.3692 -0.6604
  185SLPC  H13B21220   5.636   6.430   6.002  1.8328 -1.1125 -1.6661
  185SLPC  H13C21221   5.800   6.393   6.078  1.4762  2.4568  0.2409
  185SLPC   C1421222   5.598   6.644   6.142 -0.1277 -0.1567 -0.6179
  185SLPC  H14A21223   5.535   6.649   6.054  1.0918  1.0218 -1.4674
  185SLPC  H14B21224   5.552   6.593   6.225  2.6236 -0.6199  0.7434
  185SLPC  H14C21225   5.596   6.746   6.179  0.9461 -0.9039  1.7077
  185SLPC   C1521226   5.789   6.667   6.005  0.1972 -0.2562 -0.5450
  185SLPC  H15A21227   5.883   6.619   5.981  0.1454 -0.4646 -0.3427
  185SLPC  H15B21228   5.724   6.668   5.919 -0.2094 -1.2461 -0.2659
  185SLPC  H15C21229   5.801   6.765   6.049 -1.9016 -1.7281  3.9446
  185SLPC   C1221230   5.829   6.586   6.228  0.9997 -0.0618  0.3168
  185SLPC  H12A21231   5.844   6.687   6.262  1.2285  0.4744 -1.3224
  185SLPC  H12B21232   5.925   6.548   6.196  1.1504 -0.0859  0.7794
  185SLPC   C1121233   5.790   6.502   6.351  0.4083  0.0350 -0.8765
  185SLPC  H11A21234   5.687   6.532   6.381  0.3189 -0.5879 -0.5312
  185SLPC  H11B21235   5.861   6.525   6.433  0.7496 -2.1469 -0.5045
  185SLPC     P21236   5.912   6.268   6.376  0.4691  0.0010 -0.5214
  185SLPC   O1321237   5.917   6.151   6.285  0.2212 -0.2902  0.2857
  185SLPC   O1421238   6.035   6.348   6.398  0.3236  0.6408  0.4721
  185SLPC   O1221239   5.789   6.365   6.337  0.6538  0.2225 -0.6889
  185SLPC   O1121240   5.872   6.227   6.522  0.2214 -0.0297  0.7423
  185SLPC    C121241   5.733   6.191   6.537  0.5525 -0.3419 -0.0554
  185SLPC    HA21242   5.666   6.215   6.451 -0.7649 -1.8608  0.5136
  185SLPC    HB21243   5.727   6.081   6.549  0.7975 -0.2072  1.4861
  185SLPC    C221244   5.673   6.257   6.661 -0.2850  0.3296  0.0243
  185SLPC    HS21245   5.661   6.364   6.634 -1.0410 -0.2495 -2.1152
  185SLPC   O2121246   5.742   6.235   6.782  0.3792  0.2329  0.1689
  185SLPC   C2121247   5.748   6.328   6.873 -0.2306 -0.4321  0.8678
  185SLPC   O2221248   5.711   6.446   6.864 -0.0095  0.0447  1.0053
  185SLPC   C2221249   5.801   6.264   6.992  0.1864  0.2540  0.3325
  185SLPC   H2R21250   5.786   6.155   6.980  2.2758 -0.1968  1.2529
  185SLPC   H2S21251   5.912   6.269   6.991  0.1636  2.5686 -1.8614
  185SLPC    C321252   5.525   6.216   6.683 -0.2291 -0.0577 -0.1029
  185SLPC    HX21253   5.531   6.106   6.701 -0.9231  0.0687  0.9358
  185SLPC    HY21254   5.484   6.241   6.582 -0.8644 -2.2048 -0.4334
  185SLPC   O3121255   5.464   6.284   6.791  0.4921  0.0716  0.2150
  185SLPC   C3121256   5.376   6.380   6.766 -0.2612 -0.1833  0.2412
  185SLPC   O3221257   5.371   6.425   6.652  0.4781  0.2288 -0.1731
  185SLPC   C3221258   5.297   6.408   6.889 -0.2836  0.6195 -0.5069
  185SLPC   H2X21259   5.369   6.385   6.971 -1.5325 -2.4099 -0.1133
  185SLPC   H2Y21260   5.209   6.340   6.887 -0.8743  1.3858 -1.2447
  185SLPC   C2321261   5.757   6.315   7.124  0.0515  0.5164 -0.1361
  185SLPC   H3R21262   5.646   6.324   7.120  0.0390  0.4627  0.0935
  185SLPC   H3S21263   5.799   6.417   7.138  0.7969  0.4731 -1.8019
  185SLPC   C2421264   5.791   6.217   7.242  0.0646 -0.4280 -0.1391
  185SLPC   H4R21265   5.899   6.193   7.232  0.6572  1.8081  0.3519
  185SLPC   H4S21266   5.722   6.130   7.248 -2.8392  1.7501  4.3991
  185SLPC   C2521267   5.761   6.285   7.377 -0.4020 -0.0680  0.0237
  185SLPC   H5R21268   5.656   6.318   7.390 -0.8868 -2.1952  2.2736
  185SLPC   H5S21269   5.828   6.373   7.387  2.7446 -2.3323  0.4706
  185SLPC   C2621270   5.817   6.184   7.487 -0.5949  0.0812  0.0412
  185SLPC   H6R21271   5.918   6.153   7.451 -0.0113  0.5264  1.2448
  185SLPC   H6S21272   5.753   6.094   7.499  0.7431 -1.0959 -1.2930
  185SLPC   C2721273   5.845   6.265   7.615 -0.5039  0.3498  0.3912
  185SLPC   H7R21274   5.911   6.348   7.580  2.2082 -2.2657 -1.1393
  185SLPC   H7S21275   5.916   6.214   7.683  0.0525  0.0497 -0.3983
  185SLPC   C2821276   5.718   6.311   7.687  0.3780  0.8877 -0.4170
  185SLPC   H8R21277   5.681   6.219   7.736 -0.9853  2.0896  0.8943
  185SLPC   H8S21278   5.647   6.359   7.616  0.2055  1.2601  0.0033
  185SLPC   C2921279   5.753   6.404   7.803 -0.2437 -0.2383 -0.5095
  185SLPC   H9R21280   5.817   6.356   7.879 -2.2388 -1.7998  0.2845
  185SLPC  C21021281   5.687   6.516   7.828  0.1360  0.0035 -0.1937
  185SLPC  H10R21282   5.705   6.579   7.917 -1.9925  0.5959 -0.1248
  185SLPC  C21121283   5.571   6.566   7.745  0.3016 -0.4707  0.3445
  185SLPC  H11R21284   5.482   6.499   7.751 -1.3229  1.1885 -2.6874
  185SLPC  H11S21285   5.595   6.554   7.637 -1.0938 -2.0602  0.1701
  185SLPC  C21221286   5.525   6.714   7.769  0.0074  0.9273 -0.8220
  185SLPC  H12R21287   5.541   6.789   7.690 -2.5422  0.7002 -1.6388
  185SLPC  C21321288   5.440   6.747   7.867  0.3913  0.1477  0.4821
  185SLPC  H13R21289   5.421   6.854   7.885 -0.8005  0.0297  0.0282
  185SLPC  C21421290   5.374   6.666   7.976  0.0010  0.6004 -0.0479
  185SLPC  H14R21291   5.343   6.564   7.943  0.3757  0.2180  0.7592
  185SLPC  H14S21292   5.279   6.719   8.002  1.0761  2.5919  0.0099
  185SLPC  C21521293   5.454   6.649   8.106  0.2050  0.0503 -0.0640
  185SLPC  H15R21294   5.488   6.750   8.136  2.2642 -0.9121  1.0031
  185SLPC  H15S21295   5.545   6.587   8.091  2.0438  1.4762  3.9662
  185SLPC  C21621296   5.380   6.575   8.223  0.4709 -0.4014  0.1803
  185SLPC  H16R21297   5.377   6.466   8.200  0.4542 -0.1442 -1.1296
  185SLPC  H16S21298   5.281   6.623   8.216  0.7119 -0.0394 -1.2147
  185SLPC  C21721299   5.432   6.610   8.358 -0.2713  0.0942 -0.2390
  185SLPC  H17R21300   5.433   6.719   8.378  0.4085 -0.2951  2.2114
  185SLPC  H17S21301   5.536   6.576   8.371 -0.3699 -0.5884 -1.1304
  185SLPC  C21821302   5.363   6.542   8.478  0.1096  0.1211 -1.0824
  185SLPC  H18R21303   5.264   6.590   8.493  0.5271  0.1390  2.5953
  185SLPC  H18S21304   5.409   6.557   8.578 -0.6932  0.8869 -0.8206
  185SLPC  H18T21305   5.346   6.434   8.455  0.3643  0.1251 -1.2928
  185SLPC   C3321306   5.237   6.553   6.890  0.1658  0.2591 -0.2491
  185SLPC   H3X21307   5.168   6.575   6.806 -0.9133 -1.2350  0.2136
  185SLPC   H3Y21308   5.326   6.619   6.882  1.1612 -0.3815  3.4393
  185SLPC   C3421309   5.153   6.571   7.025  0.1966 -0.4932  0.5284
  185SLPC   H4X21310   5.078   6.495   6.996 -0.1048  0.0335 -0.1020
  185SLPC   H4Y21311   5.105   6.671   7.030  1.9609  0.3228  3.4456
  185SLPC   C3521312   5.222   6.538   7.156  0.3812 -0.7316  0.4588
  185SLPC   H5X21313   5.328   6.569   7.169  0.6126 -0.4733 -1.7848
  185SLPC   H5Y21314   5.233   6.428   7.161  3.1595 -0.7144 -2.1169
  185SLPC   C3621315   5.145   6.604   7.271 -0.8014 -0.5185 -0.1430
  185SLPC   H6X21316   5.034   6.599   7.263 -0.8095 -0.3581 -0.1476
  185SLPC   H6Y21317   5.156   6.715   7.267  1.8109 -0.6425  1.4108
  185SLPC   C3721318   5.182   6.548   7.409  0.2690 -0.3372 -0.6534
  185SLPC   H7X21319   5.130   6.616   7.480  0.0115 -0.2135 -0.9583
  185SLPC   H7Y21320   5.290   6.546   7.433  0.5429 -1.0025 -1.8904
  185SLPC   C3821321   5.111   6.406   7.423 -0.0134 -0.2843 -0.2214
  185SLPC   H8X21322   5.154   6.340   7.345 -2.1820 -1.8451 -0.1545
  185SLPC   H8Y21323   5.004   6.407   7.394 -0.1171  2.5844 -0.0127
  185SLPC   C3921324   5.156   6.350   7.554 -0.0825  0.3449  0.1246
  185SLPC   H9X21325   5.264   6.372   7.572  0.1626 -0.1506 -0.6999
  185SLPC   H9Y21326   5.137   6.241   7.555 -3.2216  0.8116  0.9526
  185SLPC  C31021327   5.084   6.397   7.680  0.1877  0.1978 -0.0870
  185SLPC  H10X21328   4.983   6.433   7.651  0.0953  0.2821  0.3450
  185SLPC  H10Y21329   5.128   6.488   7.726 -1.0990 -0.0853  1.7943
  185SLPC  C31121330   5.086   6.299   7.798  0.4363  0.4794  0.2125
  185SLPC  H11X21331   5.191   6.273   7.820  0.3113 -1.6385 -1.3872
  185SLPC  H11Y21332   5.054   6.195   7.772  0.8530  0.0737  1.3057
  185SLPC  C31221333   4.996   6.353   7.904  0.7494  0.3594  0.5313
  185SLPC  H12X21334   4.893   6.368   7.867  0.4285 -1.7696  0.4260
  185SLPC  H12Y21335   5.030   6.452   7.941  1.0985  0.3337  0.2921
  185SLPC  C31321336   4.983   6.270   8.030 -0.7905  0.0059  0.5401
  185SLPC  H13X21337   5.090   6.275   8.060 -0.5129  2.0136 -0.6432
  185SLPC  H13Y21338   4.965   6.161   8.015 -2.7947  0.3972 -0.1267
  185SLPC  C31421339   4.896   6.331   8.133 -0.6044 -0.7855  0.0891
  185SLPC  H14X21340   4.792   6.348   8.099 -0.8821  0.6176  1.5195
  185SLPC  H14Y21341   4.936   6.428   8.170 -2.1563 -0.1459  0.1607
  185SLPC  C31521342   4.891   6.242   8.262 -0.4895  0.2010  0.8152
  185SLPC  H15X21343   4.997   6.228   8.295  0.5466  0.9922 -1.8745
  185SLPC  H15Y21344   4.840   6.147   8.235 -1.0043  0.8608 -0.6034
  185SLPC  C31621345   4.806   6.310   8.363  0.2409  0.8338  0.1029
  185SLPC  H16X21346   4.700   6.322   8.333 -0.8959 -2.1307  2.4355
  185SLPC  H16Y21347   4.847   6.407   8.398  0.5093  1.9755 -3.0536
  185SLPC  C31721348   4.793   6.229   8.500 -0.3127  0.1258 -0.3875
  185SLPC  H17X21349   4.761   6.302   8.577  2.3238  1.2669 -0.2948
  185SLPC  H17Y21350   4.896   6.201   8.530 -0.9466 -1.5909  0.3192
  185SLPC  C31821351   4.698   6.110   8.496 -0.3322 -0.0008 -0.0849
  185SLPC  H18X21352   4.679   6.056   8.591  1.2394 -1.0740 -0.3460
  185SLPC  H18Y21353   4.734   6.047   8.412  2.0495 -2.5913  2.6714
  185SLPC  H18Z21354   4.597   6.149   8.471 -0.0264  0.6191 -0.3597
  186SLPC     N21355   4.461   1.602   6.186 -0.0125 -0.3743  0.8008
  186SLPC   C1321356   4.363   1.613   6.070 -0.1066  0.5970 -0.6690
  186SLPC  H13A21357   4.363   1.529   6.002  0.4953  1.6969 -2.0588
  186SLPC  H13B21358   4.260   1.628   6.100 -0.0793 -0.1224 -0.1806
  186SLPC  H13C21359   4.391   1.697   6.009  0.5894 -0.3963 -1.7697
  186SLPC   C1421360   4.604   1.586   6.141  0.5284  0.1569 -0.4004
  186SLPC  H14A21361   4.667   1.592   6.228  0.0545  1.5592 -0.1363
  186SLPC  H14B21362   4.629   1.492   6.093  1.5054 -0.1729  0.7128
  186SLPC  H14C21363   4.640   1.670   6.083 -1.1309  2.2830  1.4829
  186SLPC   C1521364   4.419   1.481   6.263 -0.1389 -0.2022 -0.5267
  186SLPC  H15A21365   4.461   1.403   6.202  0.9660  1.4399 -1.9764
  186SLPC  H15B21366   4.463   1.475   6.361 -1.0027  0.8484 -0.0516
  186SLPC  H15C21367   4.312   1.473   6.277  0.1320 -1.3366  1.0795
  186SLPC   C1221368   4.447   1.726   6.274 -0.0488 -0.4769 -0.2280
  186SLPC  H12A21369   4.521   1.726   6.353  1.5323  0.8532 -1.6268
  186SLPC  H12B21370   4.356   1.717   6.331 -0.7776 -0.3593 -1.3323
  186SLPC   C1121371   4.442   1.864   6.213 -0.3877  0.0260 -0.2313
  186SLPC  H11A21372   4.416   1.939   6.290 -1.1225 -0.0262 -0.4233
  186SLPC  H11B21373   4.365   1.878   6.134 -0.5053  1.0192  0.0528
  186SLPC     P21374   4.700   1.923   6.223 -0.1829 -0.0241  0.4096
  186SLPC   O1321375   4.779   1.802   6.208 -0.1054  0.3642  0.0985
  186SLPC   O1421376   4.769   2.048   6.188 -0.2177  0.0991  0.3700
  186SLPC   O1221377   4.565   1.903   6.142  0.2470  0.1833 -0.5097
  186SLPC   O1121378   4.643   1.933   6.363  0.1800 -0.2464 -0.0519
  186SLPC    C121379   4.699   2.001   6.479 -0.8168 -0.3678 -0.2162
  186SLPC    HA21380   4.687   1.951   6.577 -0.2407  0.4959  0.3158
  186SLPC    HB21381   4.809   2.009   6.465 -0.7723 -0.6369 -0.0171
  186SLPC    C221382   4.638   2.138   6.501 -0.3529  0.1119 -0.5680
  186SLPC    HS21383   4.641   2.180   6.399 -0.1897 -0.1450 -0.6689
  186SLPC   O2121384   4.721   2.219   6.587  0.1976 -0.2981 -0.0514
  186SLPC   C2121385   4.719   2.351   6.572 -0.0170  0.6199 -0.2029
  186SLPC   O2221386   4.661   2.413   6.483  0.1683  0.1448  0.3670
  186SLPC   C2221387   4.776   2.411   6.702 -0.1867 -0.3611 -0.3040
  186SLPC   H2R21388   4.848   2.338   6.746  0.1307 -0.5285 -1.0759
  186SLPC   H2S21389   4.836   2.499   6.671  0.6322 -0.8884 -0.2760
  186SLPC    C321390   4.496   2.140   6.565 -0.0266 -0.7160 -0.2229
  186SLPC    HX21391   4.431   2.082   6.496  0.6767  0.2200 -1.7164
  186SLPC    HY21392   4.447   2.239   6.568  0.3829 -0.4507 -1.5647
  186SLPC   O3121393   4.500   2.082   6.697 -0.6309 -0.4176 -0.2226
  186SLPC   C3121394   4.380   2.033   6.744 -0.3544 -1.4846  0.4443
  186SLPC   O3221395   4.277   2.029   6.679 -0.2545 -0.3505  0.1801
  186SLPC   C3221396   4.384   2.008   6.901  0.6492  0.1857 -0.3032
  186SLPC   H2X21397   4.419   1.903   6.912  0.4707  0.2596  1.1003
  186SLPC   H2Y21398   4.279   2.015   6.935 -0.1994 -0.9470 -2.4411
  186SLPC   C2321399   4.668   2.448   6.810  0.5453  0.7973 -0.6444
  186SLPC   H3R21400   4.593   2.367   6.812  0.0120  1.1961 -2.7125
  186SLPC   H3S21401   4.607   2.534   6.775  0.3740  1.5823  1.4590
  186SLPC   C2421402   4.727   2.475   6.951 -0.6325 -0.0319  0.0261
  186SLPC   H4R21403   4.825   2.527   6.947 -1.1642  1.0348  0.4056
  186SLPC   H4S21404   4.747   2.377   6.999 -3.1861 -0.4274  0.4531
  186SLPC   C2521405   4.650   2.561   7.040  0.4883  0.6797 -0.0344
  186SLPC   H5R21406   4.555   2.506   7.059  1.4597 -1.3423 -0.7490
  186SLPC   H5S21407   4.632   2.656   6.986  1.5672  0.2517 -1.1937
  186SLPC   C2621408   4.708   2.593   7.180 -0.3328 -0.4406 -0.1230
  186SLPC   H6R21409   4.794   2.525   7.194 -0.3803 -0.1963  1.4972
  186SLPC   H6S21410   4.635   2.572   7.261  1.7065  2.5402  2.7570
  186SLPC   C2721411   4.752   2.739   7.196  0.4495 -0.1110 -0.4945
  186SLPC   H7R21412   4.678   2.804   7.145 -0.4637 -0.3055  0.5475
  186SLPC   H7S21413   4.847   2.760   7.142 -0.8907 -0.0360 -2.9968
  186SLPC   C2821414   4.774   2.777   7.343 -0.6165  0.3117  0.8847
  186SLPC   H8R21415   4.826   2.875   7.343  1.9432 -0.9654  1.6391
  186SLPC   H8S21416   4.852   2.703   7.372  0.5496  0.1687 -2.2638
  186SLPC   C2921417   4.660   2.795   7.444  0.2933 -0.4229 -0.5968
  186SLPC   H9R21418   4.573   2.847   7.400 -0.8153 -2.5224 -1.0265
  186SLPC  C21021419   4.667   2.780   7.580 -0.1637 -0.3851  0.7692
  186SLPC  H10R21420   4.569   2.790   7.630 -0.8709 -3.6004  0.2446
  186SLPC  C21121421   4.769   2.733   7.672 -0.2684  0.5833 -0.1388
  186SLPC  H11R21422   4.833   2.817   7.709  1.2078 -0.4016 -0.3486
  186SLPC  H11S21423   4.837   2.672   7.609 -0.7932  0.8144 -0.9453
  186SLPC  C21221424   4.725   2.644   7.778  0.8895  0.0836  0.3324
  186SLPC  H12R21425   4.668   2.560   7.734  0.4071 -1.0529  2.9029
  186SLPC  C21321426   4.739   2.648   7.911  0.2724  0.1103  0.6245
  186SLPC  H13R21427   4.693   2.568   7.971 -0.6407 -0.3378 -0.6245
  186SLPC  C21421428   4.815   2.753   7.992  0.8083  0.0867  0.5396
  186SLPC  H14R21429   4.738   2.810   8.048  1.1145  2.1002 -0.9578
  186SLPC  H14S21430   4.863   2.827   7.923 -0.8542  0.8985  0.1898
  186SLPC  C21521431   4.920   2.686   8.085  0.3075  0.4364 -0.2844
  186SLPC  H15R21432   4.980   2.612   8.027  0.0113 -0.1009  0.0807
  186SLPC  H15S21433   4.860   2.651   8.172 -1.2037  1.3841 -0.9085
  186SLPC  C21621434   5.027   2.789   8.135  0.1074  0.1298  0.5954
  186SLPC  H16R21435   4.972   2.847   8.212 -1.1077  0.1241 -0.2365
  186SLPC  H16S21436   5.057   2.846   8.045  0.6090 -0.6642  0.2483
  186SLPC  C21721437   5.151   2.728   8.206 -0.4573 -0.3134  0.2901
  186SLPC  H17R21438   5.223   2.700   8.126  0.4101  0.4289  0.7832
  186SLPC  H17S21439   5.134   2.635   8.264 -0.9145  0.3743  1.2812
  186SLPC  C21821440   5.231   2.827   8.302 -0.3558 -0.1185 -0.1322
  186SLPC  H18R21441   5.318   2.775   8.348 -1.1534 -0.2097  1.3245
  186SLPC  H18S21442   5.171   2.859   8.390  1.5285  3.1093  0.1527
  186SLPC  H18T21443   5.273   2.913   8.247  0.2093 -0.3916 -0.1384
  186SLPC   C3321444   4.483   2.095   6.979  0.3873 -0.4703 -0.0152
  186SLPC   H3X21445   4.503   2.186   6.918  0.6500 -0.2149  0.4554
  186SLPC   H3Y21446   4.579   2.041   6.985  2.0982  2.2993 -0.6196
  186SLPC   C3421447   4.450   2.131   7.128 -0.5061  0.8093 -0.2316
  186SLPC   H4X21448   4.416   2.048   7.193 -0.2876  1.7681  1.1336
  186SLPC   H4Y21449   4.387   2.222   7.128  1.3410  2.1454 -0.6230
  186SLPC   C3521450   4.580   2.171   7.190  0.5527 -0.3154 -0.2047
  186SLPC   H5X21451   4.613   2.270   7.150 -1.2507 -0.4920 -2.3054
  186SLPC   H5Y21452   4.656   2.092   7.169  1.2276  0.3848 -0.4543
  186SLPC   C3621453   4.571   2.179   7.344  0.2617 -0.1387  0.1840
  186SLPC   H6X21454   4.671   2.188   7.391  1.0109 -2.0850 -0.9399
  186SLPC   H6Y21455   4.526   2.082   7.373 -0.0078  0.3266  1.4115
  186SLPC   C3721456   4.472   2.286   7.400 -0.3440  0.5542  0.5849
  186SLPC   H7X21457   4.392   2.305   7.326  1.4332  4.6314 -0.5655
  186SLPC   H7Y21458   4.524   2.383   7.415 -1.9747  1.2856  1.7592
  186SLPC   C3821459   4.414   2.264   7.541  0.1190 -0.4885 -0.2243
  186SLPC   H8X21460   4.362   2.166   7.542  1.6102 -1.3134 -0.3693
  186SLPC   H8Y21461   4.331   2.337   7.553  1.5412  1.3393 -0.8788
  186SLPC   C3921462   4.521   2.269   7.641 -1.0590 -0.1090  0.1451
  186SLPC   H9X21463   4.580   2.362   7.624 -1.4373 -0.3197 -2.6984
  186SLPC   H9Y21464   4.593   2.186   7.625 -0.3481  1.0689 -3.8499
  186SLPC  C31021465   4.467   2.269   7.788  0.2400  0.3548  0.2532
  186SLPC  H10X21466   4.450   2.164   7.820  2.0340  0.2180  0.8581
  186SLPC  H10Y21467   4.368   2.320   7.792  0.0185 -0.1390  2.0508
  186SLPC  C31121468   4.562   2.335   7.890 -0.4277  0.4503  0.6848
  186SLPC  H11X21469   4.567   2.443   7.866  0.2413 -0.0226 -1.5451
  186SLPC  H11Y21470   4.664   2.293   7.878 -0.3258  1.3852 -3.2400
  186SLPC  C31221471   4.501   2.316   8.031 -1.1673 -0.6363  0.3422
  186SLPC  H12X21472   4.496   2.209   8.059  2.8838 -0.6290  1.7809
  186SLPC  H12Y21473   4.395   2.349   8.027 -1.4806 -1.6796 -3.4308
  186SLPC  C31321474   4.584   2.396   8.130  0.3061 -0.1766 -0.0572
  186SLPC  H13X21475   4.554   2.502   8.115  2.9865  1.8399  5.6430
  186SLPC  H13Y21476   4.691   2.367   8.133  0.9433  1.4409 -3.1858
  186SLPC  C31421477   4.525   2.360   8.272 -0.8329 -0.0935 -0.6038
  186SLPC  H14X21478   4.531   2.249   8.281  1.8941  0.0657  0.6033
  186SLPC  H14Y21479   4.419   2.390   8.262 -0.3083  2.1335 -0.0211
  186SLPC  C31521480   4.579   2.442   8.391  0.1222 -0.0116  0.0210
  186SLPC  H15X21481   4.534   2.416   8.489 -0.7672 -0.3101 -0.4559
  186SLPC  H15Y21482   4.559   2.551   8.379  1.1183  0.8039  4.2120
  186SLPC  C31621483   4.731   2.426   8.405  0.4498  0.0660 -0.7861
  186SLPC  H16X21484   4.777   2.449   8.307 -0.2880  1.1792 -0.8848
  186SLPC  H16Y21485   4.751   2.320   8.432 -0.7198 -0.9329 -3.4716
  186SLPC  C31721486   4.796   2.514   8.507 -0.3777 -0.4493 -0.1253
  186SLPC  H17X21487   4.903   2.483   8.505 -0.2991 -0.1622 -2.0505
  186SLPC  H17Y21488   4.771   2.500   8.614 -0.9752  1.0211 -0.0485
  186SLPC  C31821489   4.783   2.663   8.475  0.0682  0.7287 -0.3357
  186SLPC  H18X21490   4.682   2.697   8.506  0.0408  0.7800 -0.4807
  186SLPC  H18Y21491   4.802   2.682   8.367  2.5851 -0.3233 -0.1445
  186SLPC  H18Z21492   4.855   2.717   8.539  0.5532 -2.5082  2.0589
  187SLPC     N21493   4.741   5.000   6.531  0.4072  0.4100 -0.7677
  187SLPC   C1321494   4.680   4.919   6.646  0.6670 -0.1873 -0.3382
  187SLPC  H13A21495   4.755   4.892   6.719  0.3955  0.1566  0.0694
  187SLPC  H13B21496   4.603   4.974   6.698 -0.5596 -1.8468 -0.3101
  187SLPC  H13C21497   4.637   4.824   6.615 -0.1299 -0.0268  0.2578
  187SLPC   C1421498   4.641   5.021   6.419 -0.5925  0.2052  0.5705
  187SLPC  H14A21499   4.548   5.059   6.460 -0.5848  0.6389  0.1909
  187SLPC  H14B21500   4.692   5.097   6.362  0.6677  0.3916  1.8948
  187SLPC  H14C21501   4.607   4.935   6.364 -0.4537  1.1725 -1.0888
  187SLPC   C1521502   4.848   4.922   6.477 -0.0519 -0.1574  0.5923
  187SLPC  H15A21503   4.810   4.829   6.436  2.6587 -1.3219  0.4949
  187SLPC  H15B21504   4.901   4.974   6.400  2.3103 -0.7391  1.7172
  187SLPC  H15C21505   4.924   4.900   6.551  3.0378  2.2027 -1.6525
  187SLPC   C1221506   4.789   5.135   6.587 -0.3806 -0.0525  0.0908
  187SLPC  H12A21507   4.881   5.120   6.642 -0.1090  1.0188 -0.0543
  187SLPC  H12B21508   4.718   5.170   6.661  1.9214  1.4157  1.7635
  187SLPC   C1121509   4.824   5.254   6.489  0.6865 -0.2760  1.1254
  187SLPC  H11A21510   4.838   5.342   6.555 -4.5946  1.4339  0.4260
  187SLPC  H11B21511   4.739   5.282   6.423  0.0684 -0.3871  1.8601
  187SLPC     P21512   5.073   5.180   6.435  0.2775 -0.2218 -0.2973
  187SLPC   O1321513   5.104   5.054   6.358  0.5901 -0.2938 -0.1774
  187SLPC   O1421514   5.156   5.298   6.402 -0.3085 -0.8539  0.1028
  187SLPC   O1221515   4.930   5.216   6.399  0.3880 -0.4514 -0.2371
  187SLPC   O1121516   5.079   5.152   6.591  0.2833 -0.0106 -0.0253
  187SLPC    C121517   5.206   5.173   6.643 -0.2716 -0.1120 -0.0495
  187SLPC    HA21518   5.286   5.118   6.588  0.4192 -0.0773  0.8854
  187SLPC    HB21519   5.229   5.281   6.639 -0.5692 -0.0832 -1.1566
  187SLPC    C221520   5.209   5.125   6.787  0.9930 -0.2887  0.2458
  187SLPC    HS21521   5.180   5.018   6.783  1.5015 -0.4058 -2.9375
  187SLPC   O2121522   5.116   5.191   6.867 -1.0018 -0.6877  0.3302
  187SLPC   C2121523   5.005   5.141   6.902  1.3698  0.6532  0.2436
  187SLPC   O2221524   4.967   5.029   6.868 -0.1740 -0.9486 -0.8997
  187SLPC   C2221525   4.928   5.250   6.975 -0.2169  0.1179  0.2173
  187SLPC   H2R21526   4.985   5.344   6.960 -0.1829 -0.1156 -1.2223
  187SLPC   H2S21527   4.827   5.267   6.932 -1.8181 -0.7390  3.3419
  187SLPC    C321528   5.350   5.127   6.845 -0.1630 -0.2151 -0.2624
  187SLPC    HX21529   5.394   5.224   6.814  1.3796 -0.7354  0.1661
  187SLPC    HY21530   5.421   5.051   6.804  0.6030 -0.3928  1.2842
  187SLPC   O3121531   5.351   5.132   6.990  0.5416  0.1283  0.3400
  187SLPC   C3121532   5.321   5.016   7.053  0.2681  0.3319  0.5688
  187SLPC   O3221533   5.307   4.908   6.989 -0.3167 -0.4114 -0.0444
  187SLPC   C3221534   5.319   5.033   7.202  0.1654 -0.0489  1.3031
  187SLPC   H2X21535   5.273   5.132   7.224 -2.1806 -0.9127  0.6053
  187SLPC   H2Y21536   5.426   5.032   7.231  1.3220 -1.8020 -2.4375
  187SLPC   C2321537   4.885   5.227   7.121  0.5020  0.8101 -0.0583
  187SLPC   H3R21538   4.852   5.122   7.130 -0.7578  1.0396 -1.4225
  187SLPC   H3S21539   4.797   5.288   7.151  0.9270  0.3715  2.2925
  187SLPC   C2421540   4.980   5.268   7.230  0.3579 -0.3985 -0.7017
  187SLPC   H4R21541   5.023   5.361   7.187 -2.7604  1.2511 -0.5151
  187SLPC   H4S21542   5.062   5.193   7.236  0.5804 -0.2207 -1.3709
  187SLPC   C2521543   4.908   5.288   7.368 -0.0681  0.0320  0.0146
  187SLPC   H5R21544   4.886   5.182   7.391  1.1328  0.0179  1.2006
  187SLPC   H5S21545   4.812   5.343   7.371  1.2534  2.4390  1.1235
  187SLPC   C2621546   5.008   5.342   7.473  0.7473  0.7184  0.6425
  187SLPC   H6R21547   5.016   5.450   7.449 -5.6203  2.1416  2.9203
  187SLPC   H6S21548   5.101   5.283   7.484  0.6219  0.5426  0.7594
  187SLPC   C2721549   4.942   5.357   7.614  0.2498  0.7404 -0.0808
  187SLPC   H7R21550   4.930   5.252   7.648  0.7189  1.1978  1.5515
  187SLPC   H7S21551   4.846   5.413   7.619 -0.5142 -0.4717 -0.7716
  187SLPC   C2821552   5.045   5.420   7.707  0.4240 -0.3108 -0.3115
  187SLPC   H8R21553   5.080   5.519   7.670 -1.7185  0.1186 -1.3240
  187SLPC   H8S21554   5.135   5.354   7.708  0.6650 -0.1322 -2.6479
  187SLPC   C2921555   4.987   5.434   7.842  0.3364 -0.4505  0.2312
  187SLPC   H9R21556   4.924   5.523   7.849  0.7048 -0.2829  1.8399
  187SLPC  C21021557   5.004   5.358   7.950  0.1000  0.2015  0.3718
  187SLPC  H10R21558   4.954   5.387   8.044 -1.0088 -2.5519  0.7397
  187SLPC  C21121559   5.095   5.239   7.970  0.4061 -0.2618  0.5815
  187SLPC  H11R21560   5.111   5.176   7.880 -1.3582  0.0351  0.0200
  187SLPC  H11S21561   5.035   5.171   8.034  1.1050 -2.6474 -1.1207
  187SLPC  C21221562   5.222   5.283   8.036  0.1323 -0.3270 -0.4530
  187SLPC  H12R21563   5.309   5.310   7.976 -0.2452 -0.5654 -1.1163
  187SLPC  C21321564   5.235   5.296   8.172 -0.2096 -0.0260 -0.1832
  187SLPC  H13R21565   5.332   5.332   8.209 -0.8316  2.9665 -1.2530
  187SLPC  C21421566   5.143   5.265   8.288  0.1521  0.4453  0.0037
  187SLPC  H14R21567   5.057   5.207   8.248 -0.3896 -0.4061  2.1950
  187SLPC  H14S21568   5.111   5.361   8.335 -0.8705  1.2362 -2.1627
  187SLPC  C21521569   5.202   5.168   8.391 -0.6258  0.1458  0.0113
  187SLPC  H15R21570   5.232   5.072   8.342 -0.0212  0.9717 -1.2964
  187SLPC  H15S21571   5.125   5.143   8.467 -0.6937  1.4326  0.3851
  187SLPC  C21621572   5.326   5.211   8.463  0.1583  0.7299  0.0431
  187SLPC  H16R21573   5.310   5.299   8.527  0.2524  0.8856 -0.1462
  187SLPC  H16S21574   5.403   5.235   8.386  0.1454 -0.2265 -0.2933
  187SLPC  C21721575   5.371   5.097   8.554  0.2916  0.0233  0.1054
  187SLPC  H17R21576   5.405   5.018   8.483 -1.1875 -1.4435  0.9437
  187SLPC  H17S21577   5.282   5.057   8.607  0.1219  0.3874  0.0967
  187SLPC  C21821578   5.480   5.138   8.645 -0.2687  0.4504  0.1230
  187SLPC  H18R21579   5.442   5.213   8.719 -0.7475 -0.6186  0.9907
  187SLPC  H18S21580   5.564   5.188   8.593 -1.7587  0.7182 -2.1659
  187SLPC  H18T21581   5.525   5.056   8.705  0.6236  1.2594  0.5831
  187SLPC   C3321582   5.238   4.919   7.266  0.6677  0.1967 -0.4432
  187SLPC   H3X21583   5.302   4.830   7.245  0.5879 -0.0708  0.4117
  187SLPC   H3Y21584   5.136   4.913   7.223 -0.0665 -1.2247  1.3540
  187SLPC   C3421585   5.211   4.950   7.414 -0.1729  0.1433  0.8654
  187SLPC   H4X21586   5.129   4.892   7.460 -0.3774 -0.9931 -0.8450
  187SLPC   H4Y21587   5.171   5.053   7.400 -3.5227 -1.2730 -1.1841
  187SLPC   C3521588   5.340   4.934   7.493 -0.2280 -0.4626  0.2862
  187SLPC   H5X21589   5.427   4.990   7.453 -1.2349  0.7498 -0.2673
  187SLPC   H5Y21590   5.367   4.826   7.490  0.7166 -0.3228  1.9284
  187SLPC   C3621591   5.322   4.969   7.639  0.0101  0.0131  0.0962
  187SLPC   H6X21592   5.222   4.941   7.678 -0.0459 -1.0448 -0.7919
  187SLPC   H6Y21593   5.318   5.080   7.650  0.8900 -0.0245  0.9207
  187SLPC   C3721594   5.439   4.921   7.733  0.2496 -0.1661 -0.1423
  187SLPC   H7X21595   5.442   4.810   7.738 -1.7659 -0.2154  2.0080
  187SLPC   H7Y21596   5.529   4.955   7.679  0.1844  0.7300  0.3016
  187SLPC   C3821597   5.453   4.978   7.870  1.2222 -0.4261 -0.2021
  187SLPC   H8X21598   5.352   4.990   7.915  1.5651  1.7250  0.0937
  187SLPC   H8Y21599   5.492   5.081   7.854 -1.7905  0.6370 -1.5002
  187SLPC   C3921600   5.550   4.900   7.956 -0.8881 -0.4452 -0.6510
  187SLPC   H9X21601   5.648   4.919   7.908 -0.4861 -1.3939 -0.2331
  187SLPC   H9Y21602   5.527   4.792   7.949 -0.8859 -0.4924 -0.0317
  187SLPC  C31021603   5.549   4.946   8.099 -0.0060 -0.5309  0.3126
  187SLPC  H10X21604   5.443   4.931   8.127 -1.5580  1.0978 -3.9398
  187SLPC  H10Y21605   5.575   5.053   8.116 -1.7544 -0.4467  3.0618
  187SLPC  C31121606   5.640   4.875   8.193 -0.5674  0.3748 -0.9697
  187SLPC  H11X21607   5.743   4.910   8.170 -1.1094  2.3401 -0.5738
  187SLPC  H11Y21608   5.628   4.766   8.174  2.5431  0.0482 -1.4997
  187SLPC  C31221609   5.612   4.886   8.339  0.0236 -0.2129  0.0576
  187SLPC  H12X21610   5.505   4.865   8.359  0.2798 -0.9572  0.6886
  187SLPC  H12Y21611   5.625   4.988   8.381  2.0339 -1.3806  2.5277
  187SLPC  C31321612   5.694   4.780   8.421 -0.0843 -0.4930 -0.2659
  187SLPC  H13X21613   5.803   4.804   8.415 -0.5826  1.9103 -1.3180
  187SLPC  H13Y21614   5.681   4.678   8.380  3.4807 -0.8362 -0.8789
  187SLPC  C31421615   5.652   4.787   8.565  0.2262 -0.4092 -0.4571
  187SLPC  H14X21616   5.543   4.766   8.576 -0.0684  0.7946 -0.8856
  187SLPC  H14Y21617   5.665   4.894   8.591 -1.3318  0.6317 -3.5061
  187SLPC  C31521618   5.729   4.689   8.654  0.3611 -0.2209 -0.1539
  187SLPC  H15X21619   5.833   4.728   8.654  0.7598 -1.2283 -1.1992
  187SLPC  H15Y21620   5.734   4.595   8.595  1.5540  0.9856 -2.0850
  187SLPC  C31621621   5.681   4.672   8.799  0.0988  0.7160 -0.0282
  187SLPC  H16X21622   5.694   4.771   8.848 -0.2517  0.0874  1.3801
  187SLPC  H16Y21623   5.755   4.614   8.859 -1.5816 -2.5276 -0.8913
  187SLPC  C31721624   5.546   4.609   8.826  0.0958  0.3085  0.2972
  187SLPC  H17X21625   5.549   4.516   8.766  2.0775  0.7399 -0.3144
  187SLPC  H17Y21626   5.467   4.681   8.795 -0.5480  0.2467  1.6798
  187SLPC  C31821627   5.521   4.579   8.976  0.5167  0.0912  0.4579
  187SLPC  H18X21628   5.586   4.640   9.042 -0.3518 -0.8872  2.3056
  187SLPC  H18Y21629   5.535   4.470   8.994 -2.8421 -0.6654 -0.7777
  187SLPC  H18Z21630   5.417   4.597   9.011  1.1099  0.5144  2.0935
  188SLPC     N21631   0.121   5.501   5.772 -0.8175  0.4712  0.2861
  188SLPC   C1321632   0.045   5.491   5.908 -0.4912 -0.2474  0.1201
  188SLPC  H13A21633  -0.031   5.567   5.917 -1.7656 -1.1508 -2.1874
  188SLPC  H13B21634  -0.006   5.396   5.919 -2.1639  0.5719 -0.2350
  188SLPC  H13C21635   0.108   5.498   5.995 -0.7912 -0.0258  0.3247
  188SLPC   C1421636   0.224   5.602   5.791  0.6415 -0.1899  0.2936
  188SLPC  H14A21637   0.271   5.630   5.698 -0.7437  0.5402 -0.2173
  188SLPC  H14B21638   0.187   5.690   5.841  1.0854  0.3816 -0.3725
  188SLPC  H14C21639   0.303   5.557   5.851 -0.4716 -1.3690  0.9252
  188SLPC   C1521640   0.024   5.540   5.667  0.4745 -0.0858  0.9012
  188SLPC  H15A21641  -0.064   5.479   5.669  0.7028 -0.4690 -0.1574
  188SLPC  H15B21642  -0.016   5.637   5.693 -0.2763 -0.1631  0.0613
  188SLPC  H15C21643   0.061   5.541   5.566  0.7982 -2.0807  0.9622
  188SLPC   C1221644   0.171   5.357   5.742  0.1406  0.5159  0.1907
  188SLPC  H12A21645   0.230   5.345   5.653  1.6285 -0.6880  1.2723
  188SLPC  H12B21646   0.084   5.293   5.728 -0.4567  1.6223 -1.4279
  188SLPC   C1121647   0.255   5.298   5.860 -0.0518  0.5587  0.1706
  188SLPC  H11A21648   0.272   5.193   5.831 -0.9277  0.9023 -1.7333
  188SLPC  H11B21649   0.191   5.280   5.949 -0.4142  0.7115 -0.0554
  188SLPC     P21650   0.426   5.433   6.029  0.7962  0.0484 -0.1133
  188SLPC   O1321651   0.512   5.342   6.111  0.5292 -0.3145 -0.0474
  188SLPC   O1421652   0.474   5.570   5.993 -0.6317 -0.3466 -0.1139
  188SLPC   O1221653   0.378   5.368   5.892  0.5455  0.0555  0.5537
  188SLPC   O1121654   0.290   5.447   6.114 -0.5027 -0.0495 -0.2083
  188SLPC    C121655   0.268   5.569   6.188  0.0749  0.7532 -0.2715
  188SLPC    HA21656   0.332   5.656   6.162 -1.3546  1.9153 -0.0537
  188SLPC    HB21657   0.166   5.607   6.165 -1.0826 -1.0719  1.5017
  188SLPC    C221658   0.283   5.543   6.339 -0.4642  0.2294 -0.0980
  188SLPC    HS21659   0.385   5.502   6.350 -0.3251  0.7428  0.5637
  188SLPC   O2121660   0.184   5.459   6.387 -0.2349  0.1607  0.6495
  188SLPC   C2121661   0.215   5.360   6.465  0.2098  0.4621  0.0206
  188SLPC   O2221662   0.325   5.346   6.515  0.3173 -0.5622  0.1178
  188SLPC   C2221663   0.093   5.270   6.492 -0.0237 -0.1590 -0.2252
  188SLPC   H2R21664   0.021   5.258   6.409 -1.9969  1.9287  1.0794
  188SLPC   H2S21665   0.139   5.172   6.517 -0.1168  0.0871  0.9688
  188SLPC    C321666   0.284   5.677   6.425 -0.2183 -0.5700  0.3993
  188SLPC    HX21667   0.183   5.724   6.435  0.2551  0.1388  2.1569
  188SLPC    HY21668   0.347   5.753   6.373 -0.1608 -1.6770 -1.2026
  188SLPC   O3121669   0.356   5.658   6.548 -0.5317  0.5123  0.5000
  188SLPC   C3121670   0.288   5.619   6.658  0.0023  0.0812 -0.2588
  188SLPC   O3221671   0.167   5.609   6.657  0.4572 -0.1639 -0.2757
  188SLPC   C3221672   0.378   5.611   6.778  0.1602 -0.9127  0.1609
  188SLPC   H2X21673   0.444   5.701   6.773  0.6985 -1.3707 -3.1056
  188SLPC   H2Y21674   0.433   5.515   6.772 -1.1273 -1.5810 -3.6546
  188SLPC   C2321675   0.014   5.324   6.613  0.0496 -0.6135  0.0906
  188SLPC   H3R21676  -0.081   5.266   6.603 -0.6483  0.1508  1.9236
  188SLPC   H3S21677  -0.005   5.432   6.597  0.8076 -0.4777  0.0879
  188SLPC   C2421678   0.079   5.288   6.748 -0.6294  0.4272 -0.6339
  188SLPC   H4R21679   0.156   5.366   6.768 -1.2000  1.5206 -2.4159
  188SLPC   H4S21680   0.127   5.187   6.750  0.8570  1.1180  0.6513
  188SLPC   C2521681  -0.024   5.292   6.865 -0.1616 -0.1659  0.1747
  188SLPC   H5R21682  -0.121   5.255   6.825  0.0954 -0.7370  0.0706
  188SLPC   H5S21683  -0.046   5.398   6.890 -0.5248 -0.5355  1.5425
  188SLPC   C2621684   0.015   5.209   6.986 -0.1449  0.2568  0.5634
  188SLPC   H6R21685   0.103   5.263   7.028 -0.3154  0.3260  0.8373
  188SLPC   H6S21686   0.049   5.109   6.953  0.1047  1.2219 -2.4397
  188SLPC   C2721687  -0.090   5.202   7.091 -0.5023  0.1534  0.4063
  188SLPC   H7R21688  -0.158   5.122   7.055  1.2291 -0.1290 -2.5781
  188SLPC   H7S21689  -0.136   5.302   7.102 -0.2839  0.4413 -1.1144
  188SLPC   C2821690  -0.044   5.158   7.228 -0.2874 -0.9365  0.4695
  188SLPC   H8R21691   0.009   5.062   7.212  1.0070 -0.2492  0.4403
  188SLPC   H8S21692  -0.130   5.113   7.282 -1.5007  1.9924  1.1620
  188SLPC   C2921693   0.039   5.251   7.313  0.6934  0.6642  0.3800
  188SLPC   H9R21694   0.110   5.314   7.256 -0.5923  1.7392 -0.0831
  188SLPC  C21021695   0.051   5.247   7.453  0.3549 -1.4394 -0.8176
  188SLPC  H10R21696   0.121   5.318   7.500  0.5854 -0.7908 -2.0886
  188SLPC  C21121697  -0.029   5.162   7.553 -0.3679 -0.1875  0.1177
  188SLPC  H11R21698  -0.061   5.071   7.497 -0.6095  0.0894 -0.2009
  188SLPC  H11S21699  -0.123   5.206   7.593 -0.7423 -0.6758 -0.2058
  188SLPC  C21221700   0.052   5.119   7.676 -0.1348 -0.7975 -0.2027
  188SLPC  H12R21701   0.085   5.014   7.677  0.4541 -0.6134  0.5998
  188SLPC  C21321702   0.101   5.205   7.772 -0.2904 -0.1656  0.4504
  188SLPC  H13R21703   0.163   5.174   7.857  0.4492  1.5994  0.6179
  188SLPC  C21421704   0.088   5.353   7.771 -0.0533 -0.7653 -0.5371
  188SLPC  H14R21705   0.009   5.387   7.701  0.1120 -1.6288 -1.1552
  188SLPC  H14S21706   0.183   5.378   7.719 -0.1889 -2.3159 -1.5895
  188SLPC  C21521707   0.059   5.411   7.907 -0.7452 -0.5694  0.5000
  188SLPC  H15R21708   0.142   5.411   7.980 -1.3445 -0.4991  1.1953
  188SLPC  H15S21709  -0.021   5.347   7.949  1.7501 -2.5084  2.5747
  188SLPC  C21621710   0.013   5.552   7.895  0.2048  0.3648 -0.2410
  188SLPC  H16R21711  -0.074   5.557   7.826 -1.2315  0.6429  1.5212
  188SLPC  H16S21712   0.088   5.615   7.842 -1.2650 -0.4629 -3.5273
  188SLPC  C21721713  -0.027   5.619   8.026 -0.3903  0.9465  0.5608
  188SLPC  H17R21714   0.058   5.678   8.067  0.5464  0.5403 -0.7318
  188SLPC  H17S21715  -0.041   5.533   8.095  1.5179 -2.3074 -2.7441
  188SLPC  C21821716  -0.150   5.703   8.019 -0.4508 -0.4199  0.4489
  188SLPC  H18R21717  -0.180   5.745   8.117 -1.7663  1.3270 -0.6448
  188SLPC  H18S21718  -0.232   5.635   7.987 -0.2854  0.6286 -2.5118
  188SLPC  H18T21719  -0.140   5.784   7.944  2.8989 -1.0006  0.1345
  188SLPC   C3321720   0.293   5.612   6.919 -0.1921  0.7195  0.6057
  188SLPC   H3X21721   0.228   5.522   6.927  0.2390  0.4081  0.6204
  188SLPC   H3Y21722   0.226   5.700   6.921 -0.7225  0.3362 -0.0042
  188SLPC   C3421723   0.388   5.613   7.038 -0.0936 -0.4714 -0.2129
  188SLPC   H4X21724   0.472   5.682   7.018 -1.7962  2.0464  0.7515
  188SLPC   H4Y21725   0.449   5.521   7.034  2.7108  1.3191 -1.9662
  188SLPC   C3521726   0.316   5.649   7.169 -0.2086 -0.4664 -1.4357
  188SLPC   H5X21727   0.247   5.564   7.191 -0.1415 -0.3410 -0.7357
  188SLPC   H5Y21728   0.263   5.747   7.163 -0.9151 -0.6583  0.8859
  188SLPC   C3621729   0.422   5.648   7.287  0.2967 -0.3540  1.2515
  188SLPC   H6X21730   0.490   5.735   7.276 -1.4342  1.0217  0.9236
  188SLPC   H6Y21731   0.480   5.555   7.269 -1.0791 -1.3968  1.9716
  188SLPC   C3721732   0.354   5.640   7.424 -0.1761 -0.5427  0.3020
  188SLPC   H7X21733   0.285   5.555   7.404 -0.6122 -0.5685  1.8164
  188SLPC   H7Y21734   0.291   5.730   7.443  2.6317  1.2870  1.4962
  188SLPC   C3821735   0.450   5.610   7.531 -0.2226 -0.1115 -0.7418
  188SLPC   H8X21736   0.530   5.687   7.532  0.4136 -0.7601 -0.2969
  188SLPC   H8Y21737   0.488   5.506   7.519 -0.9466 -0.3714 -0.8134
  188SLPC   C3921738   0.384   5.630   7.672  0.2271 -0.6626 -0.2070
  188SLPC   H9X21739   0.292   5.569   7.686  1.7899 -3.2009 -0.4771
  188SLPC   H9Y21740   0.359   5.738   7.684 -0.4865 -0.8362 -0.1018
  188SLPC  C31021741   0.490   5.591   7.783 -0.3714  0.2461 -0.2193
  188SLPC  H10X21742   0.570   5.663   7.808  0.2505 -1.3659  2.9617
  188SLPC  H10Y21743   0.528   5.487   7.776 -1.7787 -0.3266  0.2269
  188SLPC  C31121744   0.406   5.579   7.918 -0.5187 -0.3476  0.1786
  188SLPC  H11X21745   0.334   5.495   7.909 -0.4000 -0.3269 -1.0840
  188SLPC  H11Y21746   0.343   5.670   7.927  0.5309  0.4171  0.0605
  188SLPC  C31221747   0.484   5.549   8.045 -0.1265  0.2904  0.3432
  188SLPC  H12X21748   0.543   5.641   8.064  1.9899 -0.4418 -2.0240
  188SLPC  H12Y21749   0.554   5.464   8.028 -0.4972  0.5755 -3.5250
  188SLPC  C31321750   0.396   5.513   8.169  0.4530 -0.4739  1.0227
  188SLPC  H13X21751   0.366   5.408   8.152 -1.1208 -0.0595  1.1107
  188SLPC  H13Y21752   0.310   5.583   8.163 -0.4675 -1.6085  0.7447
  188SLPC  C31421753   0.468   5.541   8.302  0.2995  0.0836  0.3107
  188SLPC  H14X21754   0.382   5.545   8.372  0.3077 -0.0226  0.3281
  188SLPC  H14Y21755   0.513   5.642   8.305 -1.0088  0.7336 -0.7922
  188SLPC  C31521756   0.560   5.429   8.334 -0.0179  0.7716  0.5416
  188SLPC  H15X21757   0.638   5.418   8.256  1.3924  0.8404  1.9090
  188SLPC  H15Y21758   0.494   5.340   8.341  0.8144  0.1861  1.0619
  188SLPC  C31621759   0.633   5.445   8.461  1.1873  0.3756  0.1386
  188SLPC  H16X21760   0.678   5.545   8.445  0.0172  0.6912 -1.3766
  188SLPC  H16Y21761   0.716   5.372   8.470  1.4233  0.3364 -1.9016
  188SLPC  C31721762   0.537   5.456   8.577 -0.4494 -0.5967 -0.4356
  188SLPC  H17X21763   0.482   5.361   8.596  0.2207 -0.7029  1.1536
  188SLPC  H17Y21764   0.461   5.536   8.561  0.8020  0.4104 -1.5594
  188SLPC  C31821765   0.610   5.473   8.711  0.1187  0.4826 -0.0433
  188SLPC  H18X21766   0.545   5.491   8.799 -0.6163 -0.3267 -0.4079
  188SLPC  H18Y21767   0.678   5.560   8.694  1.2536  0.3703  3.2580
  188SLPC  H18Z21768   0.680   5.389   8.730 -1.1218 -1.2012 -2.4047
  189SLPC     N21769   0.723   1.527   5.976 -0.4284  0.2008 -0.8086
  189SLPC   C1321770   0.670   1.435   6.081 -0.0134 -0.6879  0.3473
  189SLPC  H13A21771   0.605   1.481   6.154  0.4010  0.5226 -0.0226
  189SLPC  H13B21772   0.632   1.343   6.039  2.2984  0.1481 -4.1540
  189SLPC  H13C21773   0.762   1.411   6.132  1.0520  2.1761 -0.0803
  189SLPC   C1421774   0.783   1.649   6.046 -0.2644  0.5183  0.1679
  189SLPC  H14A21775   0.733   1.693   6.131 -0.0631  1.1496 -0.0389
  189SLPC  H14B21776   0.874   1.622   6.096 -0.0207 -0.8515 -0.9588
  189SLPC  H14C21777   0.781   1.731   5.976 -0.6444 -1.8241 -2.7906
  189SLPC   C1521778   0.604   1.572   5.897  1.2230 -0.4195  0.1968
  189SLPC  H15A21779   0.543   1.647   5.946  1.4244  0.4595 -0.8537
  189SLPC  H15B21780   0.624   1.617   5.801 -3.2008 -0.8641 -1.1551
  189SLPC  H15C21781   0.540   1.493   5.862  1.3016  1.0089 -3.6615
  189SLPC   C1221782   0.826   1.452   5.888 -0.1294  0.2878 -0.6188
  189SLPC  H12A21783   0.874   1.514   5.814  4.2276 -0.1821  1.5018
  189SLPC  H12B21784   0.775   1.380   5.825 -0.5085  0.1182 -0.1208
  189SLPC   C1121785   0.947   1.375   5.954  0.5061 -0.3470 -0.4227
  189SLPC  H11A21786   1.013   1.335   5.873 -0.6581 -0.3549 -1.3955
  189SLPC  H11B21787   0.915   1.288   6.014  0.9718 -0.1258  0.1592
  189SLPC     P21788   1.139   1.420   6.122  0.1758  0.1771 -0.1497
  189SLPC   O1321789   1.228   1.348   6.028 -0.2738 -0.0633  0.2775
  189SLPC   O1421790   1.193   1.538   6.187  0.0130 -0.2984 -0.3843
  189SLPC   O1221791   1.017   1.469   6.040 -0.2775  0.6153  0.6709
  189SLPC   O1121792   1.063   1.325   6.219 -0.3091  0.7838  0.1845
  189SLPC    C121793   0.990   1.379   6.335 -0.1560  0.0970 -0.3071
  189SLPC    HA21794   0.993   1.490   6.338  1.9111  0.0735 -0.2576
  189SLPC    HB21795   0.887   1.339   6.343 -0.6180  1.3489  0.2888
  189SLPC    C221796   1.054   1.339   6.470  0.0807 -0.2514 -0.2527
  189SLPC    HS21797   0.991   1.372   6.555 -0.1141  1.6777 -1.1041
  189SLPC   O2121798   1.193   1.385   6.490 -0.4333 -0.0169  0.3938
  189SLPC   C2121799   1.199   1.517   6.520  1.4125  0.3032  0.4481
  189SLPC   O2221800   1.100   1.587   6.545 -0.0138  0.4449  0.0253
  189SLPC   C2221801   1.342   1.570   6.516 -0.0009 -0.3038 -0.2380
  189SLPC   H2R21802   1.411   1.497   6.563 -0.5034  0.6344  2.0875
  189SLPC   H2S21803   1.359   1.588   6.408 -2.0085 -0.3665 -0.6004
  189SLPC    C321804   1.064   1.186   6.482  0.0539 -0.3239 -0.1760
  189SLPC    HX21805   1.116   1.145   6.393  2.7539  0.9695  0.6905
  189SLPC    HY21806   0.961   1.146   6.478 -0.3551  0.4725  1.5232
  189SLPC   O3121807   1.138   1.138   6.599  0.8121  0.3099  0.1714
  189SLPC   C3121808   1.070   1.120   6.712 -0.1633  0.5617  0.1765
  189SLPC   O3221809   0.953   1.143   6.733 -0.1256 -0.9259  0.4053
  189SLPC   C3221810   1.171   1.061   6.809 -0.7862  0.1199 -0.5870
  189SLPC   H2X21811   1.261   1.032   6.750 -3.1569 -1.5771 -3.7423
  189SLPC   H2Y21812   1.127   0.970   6.856  1.5053 -0.4973  0.4613
  189SLPC   C2321813   1.368   1.703   6.591 -0.2550 -0.3581  1.0925
  189SLPC   H3R21814   1.277   1.767   6.579 -1.7666 -2.2001  2.1750
  189SLPC   H3S21815   1.458   1.756   6.553 -0.8184  0.8456  1.3745
  189SLPC   C2421816   1.400   1.695   6.742 -0.1662  0.6145 -0.2254
  189SLPC   H4R21817   1.493   1.638   6.760  0.0964 -0.4171 -4.0734
  189SLPC   H4S21818   1.316   1.643   6.792  0.1847  0.7309  0.4953
  189SLPC   C2521819   1.405   1.833   6.800 -0.3241 -0.3483  0.2664
  189SLPC   H5R21820   1.323   1.902   6.772 -0.0425 -0.4556 -0.8599
  189SLPC   H5S21821   1.487   1.885   6.746 -2.1705  2.8602  0.3019
  189SLPC   C2621822   1.438   1.841   6.951  0.2235 -0.1089 -0.2725
  189SLPC   H6R21823   1.532   1.783   6.966  1.6170  2.1205  0.0381
  189SLPC   H6S21824   1.366   1.786   7.015 -0.6904  1.7984  0.4138
  189SLPC   C2721825   1.451   1.989   7.003 -0.5124  0.1720 -0.3686
  189SLPC   H7R21826   1.360   2.049   6.982 -2.4452 -1.9175  1.5756
  189SLPC   H7S21827   1.532   2.042   6.948 -0.1977  2.1226  1.8146
  189SLPC   C2821828   1.482   1.989   7.149 -0.0145 -0.0464  0.3876
  189SLPC   H8R21829   1.528   2.081   7.190  0.1581 -0.0627  0.2315
  189SLPC   H8S21830   1.566   1.918   7.163 -1.2207 -1.3941  0.9914
  189SLPC   C2921831   1.364   1.943   7.225  0.1313  0.1734 -0.6141
  189SLPC   H9R21832   1.270   1.976   7.178 -0.4069 -1.4731 -0.7693
  189SLPC  C21021833   1.363   1.871   7.343 -0.1605  0.1325  0.3088
  189SLPC  H10R21834   1.266   1.845   7.387 -0.3249  0.5350  0.1881
  189SLPC  C21121835   1.490   1.816   7.406  0.2581  0.5173  0.5949
  189SLPC  H11R21836   1.507   1.873   7.500 -0.4920  1.9427 -0.1027
  189SLPC  H11S21837   1.580   1.817   7.341 -0.9009 -2.2992 -1.2545
  189SLPC  C21221838   1.473   1.678   7.446  0.1396  0.3296 -0.2236
  189SLPC  H12R21839   1.476   1.668   7.556  1.3896  2.9132  0.0596
  189SLPC  C21321840   1.471   1.570   7.365  0.7044 -0.7098 -0.4720
  189SLPC  H13R21841   1.468   1.473   7.417 -2.0790  0.3849  1.7122
  189SLPC  C21421842   1.471   1.564   7.212  0.0595 -0.8783 -0.3486
  189SLPC  H14R21843   1.494   1.662   7.164  1.8920 -2.1861 -2.2965
  189SLPC  H14S21844   1.370   1.535   7.178 -0.4447  1.2920 -0.8871
  189SLPC  C21521845   1.576   1.471   7.160  0.4289 -0.1327  0.2494
  189SLPC  H15R21846   1.575   1.373   7.212  0.1959  0.3150  1.1140
  189SLPC  H15S21847   1.678   1.508   7.188  0.0806  0.5100  0.7142
  189SLPC  C21621848   1.551   1.448   7.003 -0.5663 -0.2184 -0.2789
  189SLPC  H16R21849   1.554   1.549   6.957 -1.8834  0.8124  1.7623
  189SLPC  H16S21850   1.451   1.401   6.994 -0.8145  0.1174  0.6761
  189SLPC  C21721851   1.654   1.352   6.950  0.1128  1.0260  0.1952
  189SLPC  H17R21852   1.663   1.268   7.022 -1.6256  0.8321  0.2304
  189SLPC  H17S21853   1.753   1.404   6.949  1.9246 -2.1606 -1.2544
  189SLPC  C21821854   1.621   1.304   6.805  0.1805 -0.0303  0.3745
  189SLPC  H18R21855   1.707   1.239   6.779 -0.3687 -1.1380  1.2066
  189SLPC  H18S21856   1.612   1.389   6.735  0.7877  0.2510  0.6315
  189SLPC  H18T21857   1.526   1.247   6.807  1.1724 -1.8174 -0.4749
  189SLPC   C3321858   1.219   1.166   6.915 -0.2758  0.0246  0.9183
  189SLPC   H3X21859   1.234   1.265   6.867  0.4961 -0.8385 -0.7259
  189SLPC   H3Y21860   1.322   1.143   6.951  0.3812  3.5402  1.6478
  189SLPC   C3421861   1.116   1.175   7.028 -0.2726 -0.0279 -0.0970
  189SLPC   H4X21862   1.113   1.074   7.075  0.3503  0.7089  1.5983
  189SLPC   H4Y21863   1.016   1.208   6.993 -0.4589  1.4714  1.6608
  189SLPC   C3521864   1.148   1.279   7.141 -0.0250 -0.1368 -0.0440
  189SLPC   H5X21865   1.140   1.378   7.092 -2.0498  0.2297  0.9085
  189SLPC   H5Y21866   1.250   1.259   7.181 -0.5878 -0.0827  1.5174
  189SLPC   C3621867   1.054   1.280   7.256  0.2733 -0.1179 -0.6723
  189SLPC   H6X21868   1.020   1.177   7.279  0.2267 -0.4806 -2.2396
  189SLPC   H6Y21869   0.958   1.333   7.238 -0.6428 -1.4334  0.2067
  189SLPC   C3721870   1.113   1.341   7.379 -0.4776 -0.0406  0.2830
  189SLPC   H7X21871   1.021   1.359   7.438  0.6146  0.2659  1.9624
  189SLPC   H7Y21872   1.157   1.441   7.360  0.3296 -0.2273  1.0675
  189SLPC   C3821873   1.206   1.250   7.454 -0.3481 -0.9324 -0.9292
  189SLPC   H8X21874   1.314   1.265   7.433 -0.2358 -1.2458 -0.5866
  189SLPC   H8Y21875   1.184   1.142   7.437  1.9819 -1.6065 -0.1032
  189SLPC   C3921876   1.205   1.268   7.612  0.6209  1.0416  0.4110
  189SLPC   H9X21877   1.272   1.188   7.650  0.9654  1.4323  0.6468
  189SLPC   H9Y21878   1.102   1.248   7.647  0.5608  2.5223  1.1706
  189SLPC  C31021879   1.246   1.406   7.657 -0.1658 -0.1063 -0.7829
  189SLPC  H10X21880   1.163   1.473   7.624  0.3452  2.2453  2.2405
  189SLPC  H10Y21881   1.340   1.443   7.611  0.0262 -1.5292 -1.5707
  189SLPC  C31121882   1.274   1.421   7.812  0.4988 -0.0747  0.1638
  189SLPC  H11X21883   1.311   1.525   7.826  1.3743 -0.1332 -1.5034
  189SLPC  H11Y21884   1.362   1.355   7.832  0.4756 -1.1413 -2.7514
  189SLPC  C31221885   1.153   1.387   7.903 -0.1169  0.2108  0.2042
  189SLPC  H12X21886   1.145   1.276   7.915  0.6797 -0.4849 -3.9265
  189SLPC  H12Y21887   1.059   1.422   7.855  0.0768  2.6165  1.4641
  189SLPC  C31321888   1.165   1.465   8.032 -1.0881  0.2861  0.0328
  189SLPC  H13X21889   1.150   1.575   8.026 -2.4456  0.0910 -0.6267
  189SLPC  H13Y21890   1.263   1.446   8.081 -1.8605  2.8101  2.8580
  189SLPC  C31421891   1.052   1.416   8.131 -0.7106  0.2075 -0.6825
  189SLPC  H14X21892   1.079   1.313   8.163 -3.0483 -0.2663 -0.0320
  189SLPC  H14Y21893   0.952   1.420   8.082 -0.5370  1.4521 -0.9609
  189SLPC  C31521894   1.045   1.508   8.255 -0.1220  0.2692 -0.3927
  189SLPC  H15X21895   1.035   1.614   8.220  2.4102  0.1934 -1.6491
  189SLPC  H15Y21896   1.133   1.507   8.323 -0.5615  0.7385  0.1848
  189SLPC  C31621897   0.927   1.465   8.348 -0.1876  0.5358  0.2652
  189SLPC  H16X21898   0.952   1.361   8.379  0.4465  0.8864  0.9863
  189SLPC  H16Y21899   0.837   1.455   8.284  1.2510 -0.4326 -1.7217
  189SLPC  C31721900   0.898   1.549   8.479 -0.2041  0.5340  0.4331
  189SLPC  H17X21901   0.991   1.548   8.539 -0.7687 -0.0809  1.3405
  189SLPC  H17Y21902   0.827   1.489   8.542  0.3706 -1.9472 -1.1457
  189SLPC  C31821903   0.864   1.697   8.441 -0.3668  0.6592  0.1092
  189SLPC  H18X21904   0.833   1.756   8.530 -0.7844 -0.3637  0.6683
  189SLPC  H18Y21905   0.774   1.695   8.376  0.7371 -0.8707 -1.4473
  189SLPC  H18Z21906   0.945   1.751   8.389 -1.5427  2.4519  0.0580
  190SLPC     N21907   0.069   6.485   6.174 -0.5204  0.2057  0.6072
  190SLPC   C1321908   0.213   6.494   6.150 -0.5223 -0.4300 -0.6204
  190SLPC  H13A21909   0.255   6.592   6.168 -1.5469 -0.4401  2.6378
  190SLPC  H13B21910   0.272   6.427   6.211  1.4249  1.7446  0.0365
  190SLPC  H13C21911   0.237   6.487   6.045 -1.5904 -1.5387 -0.8030
  190SLPC   C1421912  -0.003   6.569   6.069 -0.7589 -0.4633  0.4022
  190SLPC  H14A21913  -0.110   6.563   6.085 -1.0819 -0.1948 -1.4390
  190SLPC  H14B21914   0.031   6.668   6.093 -0.9780 -0.6944  1.7721
  190SLPC  H14C21915   0.019   6.537   5.969  0.2161 -1.3603  0.8888
  190SLPC   C1521916   0.022   6.535   6.302  0.1084 -0.4916 -0.6123
  190SLPC  H15A21917   0.043   6.640   6.314 -0.7698 -0.4915  1.4028
  190SLPC  H15B21918  -0.083   6.517   6.323  0.2868  0.6022  1.4324
  190SLPC  H15C21919   0.093   6.484   6.365  0.1067  0.5252  0.2363
  190SLPC   C1221920   0.012   6.344   6.166 -1.0277  0.2839  0.0519
  190SLPC  H12A21921   0.027   6.303   6.067  2.5032  2.6705 -0.5883
  190SLPC  H12B21922  -0.093   6.352   6.192 -1.0319 -0.5761  0.3231
  190SLPC   C1121923   0.059   6.236   6.274  0.4416  0.3476  0.7316
  190SLPC  H11A21924  -0.005   6.145   6.267 -1.6821  1.8473 -0.5848
  190SLPC  H11B21925   0.052   6.283   6.375  2.8530 -0.1190  1.1622
  190SLPC     P21926   0.302   6.179   6.364 -0.2029 -0.1285 -0.1978
  190SLPC   O1321927   0.378   6.058   6.331 -0.2471 -0.3424 -0.2596
  190SLPC   O1421928   0.376   6.307   6.391  0.5801 -0.9883 -0.1251
  190SLPC   O1221929   0.196   6.201   6.249 -0.6627  0.0812 -0.5418
  190SLPC   O1121930   0.210   6.147   6.487 -0.3159  0.1635 -0.4393
  190SLPC    C121931   0.194   6.005   6.526  0.1430  0.5947  0.9520
  190SLPC    HA21932   0.118   5.952   6.464  1.1339  1.0945 -0.7650
  190SLPC    HB21933   0.287   5.946   6.514 -0.7647 -1.1306  2.0664
  190SLPC    C221934   0.158   5.995   6.685 -0.1880 -0.0783 -0.5840
  190SLPC    HS21935   0.137   5.892   6.722  1.1626 -0.3544 -0.5222
  190SLPC   O2121936   0.048   6.080   6.721 -0.4375  0.1991 -0.0562
  190SLPC   C2121937  -0.071   6.035   6.676  0.3509 -0.6364  0.3261
  190SLPC   O2221938  -0.090   5.923   6.633  0.0196 -0.0229  0.6714
  190SLPC   C2221939  -0.175   6.139   6.712 -0.3710 -0.0069 -0.0811
  190SLPC   H2R21940  -0.119   6.235   6.718 -0.6436  0.1347  0.2298
  190SLPC   H2S21941  -0.252   6.145   6.632 -1.1675  3.6108  0.7757
  190SLPC    C321942   0.273   6.037   6.772 -0.5292  0.4654  0.0785
  190SLPC    HX21943   0.296   6.144   6.755  0.5264  0.8754  3.3260
  190SLPC    HY21944   0.364   5.976   6.751  1.5283  2.4361  2.4911
  190SLPC   O3121945   0.240   6.011   6.910 -0.2062  0.4519  0.1848
  190SLPC   C3121946   0.244   6.110   6.992  0.0393 -0.8586 -0.4326
  190SLPC   O3221947   0.255   6.232   6.967  0.2945 -0.7829  0.2233
  190SLPC   C3221948   0.263   6.045   7.128  0.6352  0.0331 -0.1874
  190SLPC   H2X21949   0.342   5.968   7.126 -1.5535 -2.3427 -2.0654
  190SLPC   H2Y21950   0.178   5.973   7.135 -0.3864  1.2294  0.1171
  190SLPC   C2321951  -0.243   6.117   6.848 -0.2069 -0.7832 -0.0375
  190SLPC   H3R21952  -0.303   6.023   6.844  0.7838 -1.4052 -1.9844
  190SLPC   H3S21953  -0.319   6.196   6.865  1.7809  1.9650 -2.6543
  190SLPC   C2421954  -0.138   6.101   6.957  0.0779  0.4683  0.1431
  190SLPC   H4R21955  -0.080   6.196   6.969  0.2657  0.5743 -1.4771
  190SLPC   H4S21956  -0.072   6.016   6.930  0.4828 -0.0070  2.4069
  190SLPC   C2521957  -0.207   6.072   7.091  0.0201  0.1512  0.1659
  190SLPC   H5R21958  -0.257   5.973   7.081  1.9116 -0.6918 -1.9601
  190SLPC   H5S21959  -0.284   6.146   7.120 -3.7401 -2.9308 -1.0691
  190SLPC   C2621960  -0.103   6.060   7.205  0.4968  0.1279  0.7555
  190SLPC   H6R21961  -0.054   6.160   7.214 -2.5436  1.9871 -1.2995
  190SLPC   H6S21962  -0.025   5.983   7.190  1.9166  1.4674  1.0029
  190SLPC   C2721963  -0.170   6.042   7.343 -0.1135 -0.1593  0.1603
  190SLPC   H7R21964  -0.190   5.933   7.346 -1.0881 -0.0247 -0.7972
  190SLPC   H7S21965  -0.270   6.088   7.355 -0.4349 -1.2217  1.8204
  190SLPC   C2821966  -0.078   6.093   7.459  0.4486  0.2381 -0.7508
  190SLPC   H8R21967  -0.088   6.203   7.463  1.0347  0.2661  0.1171
  190SLPC   H8S21968   0.021   6.062   7.419 -0.1604 -2.6257 -0.2794
  190SLPC   C2921969  -0.101   6.033   7.598 -0.3333  0.2192  0.3686
  190SLPC   H9R21970  -0.146   6.092   7.679 -0.4588  0.9925 -0.2535
  190SLPC  C21021971  -0.077   5.908   7.635  0.1656  0.3591 -0.4625
  190SLPC  H10R21972  -0.088   5.878   7.740  0.9675  1.0954 -0.1618
  190SLPC  C21121973  -0.014   5.800   7.554 -0.5946  0.7850 -0.3042
  190SLPC  H11R21974   0.082   5.774   7.602 -1.4288 -1.5980  0.1904
  190SLPC  H11S21975   0.020   5.839   7.456 -0.4260 -0.2055 -0.6526
  190SLPC  C21221976  -0.090   5.664   7.549 -0.3512 -0.1246  0.2648
  190SLPC  H12R21977  -0.134   5.641   7.647  1.2925 -0.3185  0.9876
  190SLPC  C21321978  -0.116   5.586   7.441  0.3445  0.1544  0.1975
  190SLPC  H13R21979  -0.158   5.486   7.459  1.9881 -1.0108 -2.0477
  190SLPC  C21421980  -0.072   5.615   7.299 -0.1669  0.2056 -0.2027
  190SLPC  H14R21981   0.002   5.545   7.255 -0.5995 -0.3251 -0.0993
  190SLPC  H14S21982  -0.033   5.718   7.292  0.2610  0.1378  0.9640
  190SLPC  C21521983  -0.198   5.621   7.208 -0.1895  0.6857  0.3885
  190SLPC  H15R21984  -0.268   5.698   7.247 -0.6669  1.2600 -1.5104
  190SLPC  H15S21985  -0.252   5.525   7.196  2.9976 -0.9295 -2.8176
  190SLPC  C21621986  -0.164   5.656   7.062  0.0132  0.2451 -0.1309
  190SLPC  H16R21987  -0.079   5.591   7.031 -0.7462 -1.8390  1.8194
  190SLPC  H16S21988  -0.108   5.752   7.064 -0.5857  0.6017 -0.3904
  190SLPC  C21721989  -0.280   5.649   6.968  0.2217 -0.4477 -0.1374
  190SLPC  H17R21990  -0.370   5.701   7.009 -1.3973 -0.0905 -3.7505
  190SLPC  H17S21991  -0.317   5.548   6.939 -1.7721 -0.7162  2.8386
  190SLPC  C21821992  -0.233   5.713   6.833 -0.3422  0.2151 -0.2048
  190SLPC  H18R21993  -0.209   5.821   6.843 -0.4814  0.1339  1.1328
  190SLPC  H18S21994  -0.306   5.699   6.750  0.6382 -0.1386 -1.0310
  190SLPC  H18T21995  -0.137   5.660   6.814  0.4192  0.2158  3.0758
  190SLPC   C3321996   0.278   6.139   7.252  0.2702  0.4238 -0.2153
  190SLPC   H3X21997   0.196   6.210   7.275 -1.1908 -1.8111  1.9056
  190SLPC   H3Y21998   0.379   6.184   7.241 -0.0819  1.1859 -0.3855
  190SLPC   C3421999   0.287   6.046   7.369  0.8017  0.4206  0.0865
  190SLPC   H4X22000   0.375   5.978   7.368  0.7565  0.3066  1.9232
  190SLPC   H4Y22001   0.192   5.988   7.374 -0.6216  2.6141 -0.2435
  190SLPC   C3522002   0.299   6.119   7.505  0.1135  0.0279 -0.1850
  190SLPC   H5X22003   0.225   6.202   7.511  2.9510  2.7457 -0.4812
  190SLPC   H5Y22004   0.399   6.166   7.500  0.2846 -0.0216  1.9096
  190SLPC   C3622005   0.307   6.026   7.624  0.0765 -0.6666  0.0323
  190SLPC   H6X22006   0.400   5.966   7.618  1.5336  1.3148  1.5587
  190SLPC   H6Y22007   0.232   5.945   7.635  0.3069 -0.7223  1.2427
  190SLPC   C3722008   0.321   6.105   7.750  0.3432  0.8858 -0.0704
  190SLPC   H7X22009   0.223   6.154   7.768 -0.3338 -0.2505 -0.5055
  190SLPC   H7Y22010   0.397   6.185   7.757 -0.9831  2.1163  0.8443
  190SLPC   C3822011   0.356   6.012   7.871  0.1069  0.5116 -0.4825
  190SLPC   H8X22012   0.466   5.994   7.875  0.0765 -0.0800  4.6822
  190SLPC   H8Y22013   0.306   5.917   7.843  1.7305 -1.2860  2.2152
  190SLPC   C3922014   0.287   6.053   8.001  0.2028 -0.1013 -0.3001
  190SLPC   H9X22015   0.182   6.083   7.986  0.2902  1.1319  1.3179
  190SLPC   H9Y22016   0.346   6.146   8.020  0.1686  0.0051 -0.7252
  190SLPC  C31022017   0.305   5.948   8.114  0.1626  0.5899  0.3609
  190SLPC  H10X22018   0.407   5.905   8.121 -0.3867 -0.7981  0.0471
  190SLPC  H10Y22019   0.236   5.864   8.096  1.7831 -0.7998  0.4157
  190SLPC  C31122020   0.279   6.026   8.250  0.3589 -0.1374 -0.3293
  190SLPC  H11X22021   0.178   6.070   8.253 -0.2728 -1.5736  1.0540
  190SLPC  H11Y22022   0.361   6.101   8.248  0.9174 -0.6336  1.4217
  190SLPC  C31222023   0.281   5.929   8.372 -0.1217 -0.2754 -0.3660
  190SLPC  H12X22024   0.273   5.995   8.461  3.8083  1.1054 -0.8403
  190SLPC  H12Y22025   0.364   5.855   8.372 -0.1136 -0.2696 -0.6607
  190SLPC  C31322026   0.154   5.840   8.369 -0.2638 -0.2658  0.1320
  190SLPC  H13X22027   0.169   5.755   8.299 -2.0672  0.6064 -1.4074
  190SLPC  H13Y22028   0.058   5.889   8.342  0.3881  0.2104 -1.4167
  190SLPC  C31422029   0.143   5.778   8.512  0.0760 -0.0334  0.0448
  190SLPC  H14X22030   0.118   5.866   8.574  1.2021  1.2516 -1.2588
  190SLPC  H14Y22031   0.242   5.739   8.544 -1.0950 -0.7702  3.0662
  190SLPC  C31522032   0.032   5.669   8.533 -0.0614  0.1475 -0.6314
  190SLPC  H15X22033   0.033   5.588   8.457  1.8928 -1.0004  0.5523
  190SLPC  H15Y22034  -0.069   5.715   8.522 -0.4727 -0.6938 -0.4450
  190SLPC  C31622035   0.018   5.609   8.673 -0.3169  0.0657  0.0983
  190SLPC  H16X22036  -0.071   5.543   8.677 -0.3495  0.0591 -0.5752
  190SLPC  H16Y22037   0.003   5.685   8.753 -1.3308 -0.8155  0.7667
  190SLPC  C31722038   0.138   5.525   8.710  0.6028  0.4713  0.2964
  190SLPC  H17X22039   0.118   5.471   8.805  0.0747 -1.5566 -0.9066
  190SLPC  H17Y22040   0.217   5.599   8.735 -0.5570  1.4779  1.1185
  190SLPC  C31822041   0.191   5.417   8.609 -0.4644  0.6850  0.2363
  190SLPC  H18X22042   0.250   5.463   8.527  1.4009 -0.1992  1.0256
  190SLPC  H18Y22043   0.112   5.351   8.566 -0.5370  1.3548 -0.6918
  190SLPC  H18Z22044   0.264   5.357   8.668  1.3000  0.3060 -2.1708
  191SLPC     N22045   0.447   3.343   5.641 -0.3676  0.8973  0.0126
  191SLPC   C1322046   0.389   3.475   5.615 -0.1731 -0.2165 -0.4399
  191SLPC  H13A22047   0.472   3.543   5.626 -0.6990  0.3729 -0.0426
  191SLPC  H13B22048   0.350   3.492   5.516 -0.3399 -1.3565 -0.5842
  191SLPC  H13C22049   0.310   3.496   5.685 -0.4313 -1.4925 -0.3153
  191SLPC   C1422050   0.534   3.303   5.531 -0.5511 -0.2700  0.0932
  191SLPC  H14A22051   0.482   3.281   5.439 -1.0714 -1.2889  0.6141
  191SLPC  H14B22052   0.599   3.385   5.507 -2.0297  0.7522 -0.5363
  191SLPC  H14C22053   0.598   3.217   5.546  1.6348  0.7721 -2.3056
  191SLPC   C1522054   0.332   3.248   5.654 -0.8586 -0.3231  0.0620
  191SLPC  H15A22055   0.276   3.288   5.737  0.5604  0.5456  0.6423
  191SLPC  H15B22056   0.269   3.246   5.567  0.7715  2.0987 -1.3047
  191SLPC  H15C22057   0.361   3.149   5.685 -0.0974 -0.0348  0.2930
  191SLPC   C1222058   0.518   3.354   5.773 -0.4609  0.3029 -0.2136
  191SLPC  H12A22059   0.562   3.258   5.797 -2.9636 -0.5834  1.2067
  191SLPC  H12B22060   0.444   3.364   5.851  0.8639 -0.5270  1.2153
  191SLPC   C1122061   0.617   3.466   5.801  0.4530  0.0542 -0.6976
  191SLPC  H11A22062   0.698   3.458   5.725  1.9461 -1.7267  0.9722
  191SLPC  H11B22063   0.643   3.443   5.906 -3.3615  0.0937  0.3867
  191SLPC     P22064   0.491   3.669   5.924  0.3683 -0.1784 -0.2025
  191SLPC   O1322065   0.534   3.811   5.923  0.0492 -0.1492  0.1418
  191SLPC   O1422066   0.351   3.644   5.947  0.0337  0.0395  0.1963
  191SLPC   O1222067   0.548   3.588   5.805  0.2582  0.1740  0.0302
  191SLPC   O1122068   0.574   3.604   6.043  0.1972 -0.3730 -0.0214
  191SLPC    C122069   0.709   3.637   6.073  0.3702  0.1660 -0.0706
  191SLPC    HA22070   0.778   3.630   5.986  0.5020  1.7451 -0.1249
  191SLPC    HB22071   0.714   3.745   6.098 -1.7596  0.3488 -0.2936
  191SLPC    C222072   0.763   3.556   6.195 -0.1578  0.1775  0.1078
  191SLPC    HS22073   0.737   3.453   6.162 -2.9316  0.5196  0.9681
  191SLPC   O2122074   0.675   3.586   6.307 -0.0546  0.5987 -0.0717
  191SLPC   C2122075   0.659   3.479   6.389 -0.8841  0.0557  0.1177
  191SLPC   O2222076   0.706   3.369   6.373 -0.5357 -0.3424  0.2318
  191SLPC   C2222077   0.555   3.525   6.485  0.7019  0.0716  0.7333
  191SLPC   H2R22078   0.581   3.624   6.526 -1.6566  0.5225  1.2596
  191SLPC   H2S22079   0.456   3.536   6.435  0.9000  2.3986  0.7363
  191SLPC    C322080   0.911   3.576   6.232  0.1938  0.0530  0.2858
  191SLPC    HX22081   0.921   3.687   6.236 -1.9284  0.2729  0.5299
  191SLPC    HY22082   0.975   3.525   6.158 -1.6895 -1.4515 -0.3679
  191SLPC   O3122083   0.955   3.541   6.362 -0.3686  0.3430 -0.0066
  191SLPC   C3122084   1.001   3.422   6.364  0.0049  0.2754  0.1985
  191SLPC   O3222085   1.015   3.338   6.276  0.6323 -0.5690  0.4716
  191SLPC   C3222086   1.030   3.398   6.515 -0.0938 -0.5021  0.1335
  191SLPC   H2X22087   0.936   3.400   6.574 -0.2423 -2.1820 -0.0145
  191SLPC   H2Y22088   1.093   3.483   6.551 -0.5452  0.2212 -0.7426
  191SLPC   C2322089   0.540   3.430   6.603 -0.2283 -0.0631 -0.2059
  191SLPC   H3R22090   0.641   3.404   6.641 -1.2445 -2.1733  1.1852
  191SLPC   H3S22091   0.485   3.345   6.558 -1.0547  1.0144 -1.3080
  191SLPC   C2422092   0.463   3.495   6.718  0.4125  0.6826 -0.9570
  191SLPC   H4R22093   0.359   3.516   6.686  0.1384  0.4661 -0.2172
  191SLPC   H4S22094   0.514   3.589   6.749  0.3861  0.4421 -0.1602
  191SLPC   C2522095   0.467   3.410   6.848  0.1891 -0.1432  0.3517
  191SLPC   H5R22096   0.430   3.475   6.930  0.2420 -0.9919  1.0639
  191SLPC   H5S22097   0.572   3.384   6.871 -0.0854 -0.4312  1.3299
  191SLPC   C2622098   0.387   3.282   6.834 -0.3317  0.4103  0.2056
  191SLPC   H6R22099   0.422   3.207   6.760 -2.9770 -1.9913  1.2055
  191SLPC   H6S22100   0.284   3.305   6.799 -0.8735 -0.4402  1.1960
  191SLPC   C2722101   0.382   3.208   6.977  0.2541 -0.1923 -0.0678
  191SLPC   H7R22102   0.313   3.266   7.042 -0.6236 -0.0913 -1.0543
  191SLPC   H7S22103   0.488   3.211   7.011 -0.2818 -0.0147  1.7144
  191SLPC   C2822104   0.329   3.067   6.960 -0.2851 -0.2479 -0.8401
  191SLPC   H8R22105   0.396   3.010   6.892 -0.0175 -1.7075  0.5798
  191SLPC   H8S22106   0.227   3.064   6.916 -0.6409 -0.4047 -0.0130
  191SLPC   C2922107   0.299   3.012   7.095 -0.4962 -0.0255  0.2601
  191SLPC   H9R22108   0.235   3.082   7.151 -1.8176  1.5839 -2.9606
  191SLPC  C21022109   0.346   2.901   7.151  0.3944 -0.3515 -0.0954
  191SLPC  H10R22110   0.322   2.880   7.256 -1.3253 -0.3062 -0.4514
  191SLPC  C21122111   0.451   2.813   7.080  0.2189 -0.1217 -0.3395
  191SLPC  H11R22112   0.533   2.789   7.151 -1.2310 -1.5618  0.9465
  191SLPC  H11S22113   0.501   2.860   6.993  0.7482  1.4220  0.7556
  191SLPC  C21222114   0.384   2.686   7.048 -1.0124  0.1457 -0.0523
  191SLPC  H12R22115   0.291   2.665   7.103 -1.4178 -1.4111 -1.2583
  191SLPC  C21322116   0.425   2.598   6.957  0.0989 -0.4189  0.3275
  191SLPC  H13R22117   0.366   2.506   6.946  0.9863 -0.6332 -4.9295
  191SLPC  C21422118   0.543   2.592   6.870  0.2604 -0.5215  0.5432
  191SLPC  H14R22119   0.631   2.536   6.907  1.3795  1.4657  1.0668
  191SLPC  H14S22120   0.588   2.693   6.859 -2.0320  0.5037 -0.1161
  191SLPC  C21522121   0.491   2.555   6.728  0.4219 -0.2343  0.1755
  191SLPC  H15R22122   0.403   2.618   6.704  1.2949  1.0212  0.1561
  191SLPC  H15S22123   0.455   2.450   6.729 -0.9896  0.2326 -0.1195
  191SLPC  C21622124   0.589   2.571   6.611  0.2932 -0.1482 -0.4172
  191SLPC  H16R22125   0.593   2.680   6.591 -1.5640  0.1935  0.7648
  191SLPC  H16S22126   0.559   2.512   6.521 -1.3798  0.3484 -0.2142
  191SLPC  C21722127   0.737   2.528   6.645 -0.1123  0.5916  0.0136
  191SLPC  H17R22128   0.719   2.431   6.696  2.5385 -0.3492 -0.6753
  191SLPC  H17S22129   0.783   2.599   6.717  1.4460 -1.4322  1.1295
  191SLPC  C21822130   0.820   2.501   6.522  0.8132  0.1889  0.2005
  191SLPC  H18R22131   0.921   2.466   6.552  0.0421 -2.5270 -0.0715
  191SLPC  H18S22132   0.835   2.588   6.454  1.0926 -1.0779 -1.4426
  191SLPC  H18T22133   0.778   2.421   6.456  0.6728  0.7017 -0.3413
  191SLPC   C3322134   1.125   3.272   6.532  0.5159 -0.3582  0.0290
  191SLPC   H3X22135   1.197   3.270   6.448 -1.6129  0.3143 -1.9110
  191SLPC   H3Y22136   1.064   3.180   6.515  1.2378 -0.8840  0.2172
  191SLPC   C3422137   1.199   3.265   6.669 -0.8230  0.2397 -0.0279
  191SLPC   H4X22138   1.240   3.357   6.714 -1.1499 -0.7207  2.4001
  191SLPC   H4Y22139   1.284   3.200   6.640 -1.1290  0.6262 -1.9173
  191SLPC   C3522140   1.111   3.194   6.776  0.0978 -0.2306  0.4185
  191SLPC   H5X22141   1.086   3.090   6.746 -1.7946  0.3591 -0.1784
  191SLPC   H5Y22142   1.015   3.249   6.770  0.2296  0.1457  1.6207
  191SLPC   C3622143   1.152   3.201   6.921  0.0244 -0.3754 -0.5065
  191SLPC   H6X22144   1.055   3.186   6.973 -1.2065  1.0297 -2.2615
  191SLPC   H6Y22145   1.203   3.294   6.952  0.4362 -0.2490 -1.5361
  191SLPC   C3722146   1.235   3.079   6.962 -0.6540 -0.1767  0.3841
  191SLPC   H7X22147   1.336   3.096   6.920 -0.0972  1.5507  2.2877
  191SLPC   H7Y22148   1.188   2.993   6.910 -1.8123  1.2049 -0.9428
  191SLPC   C3822149   1.236   3.072   7.112  0.7244  1.0455 -0.8328
  191SLPC   H8X22150   1.281   2.972   7.129  0.3081  0.8318 -0.9737
  191SLPC   H8Y22151   1.132   3.068   7.152  1.1406 -1.0202  0.2227
  191SLPC   C3922152   1.307   3.185   7.184  0.2924  0.2761  0.5697
  191SLPC   H9X22153   1.228   3.262   7.200  0.2131 -0.0747  1.9416
  191SLPC   H9Y22154   1.393   3.224   7.125  0.6403 -2.4721 -0.9122
  191SLPC  C31022155   1.356   3.139   7.317 -0.0925 -0.1344 -0.4128
  191SLPC  H10X22156   1.405   3.232   7.352 -0.9416  0.1921 -0.0739
  191SLPC  H10Y22157   1.433   3.059   7.317  1.1479  0.9165  2.2079
  191SLPC  C31122158   1.253   3.111   7.423 -0.1150 -0.2484  0.1774
  191SLPC  H11X22159   1.206   3.020   7.379  0.8462 -0.1820 -1.0439
  191SLPC  H11Y22160   1.185   3.198   7.420  1.6573  1.2161  0.5585
  191SLPC  C31222161   1.314   3.103   7.566 -0.5207  0.4764  0.8856
  191SLPC  H12X22162   1.344   3.206   7.593 -2.5332  1.1411  0.7158
  191SLPC  H12Y22163   1.406   3.044   7.545 -0.1543  1.3959 -0.1813
  191SLPC  C31322164   1.235   3.025   7.669  0.2380  0.2739  0.1805
  191SLPC  H13X22165   1.204   2.924   7.636  2.1393 -0.3762  0.2685
  191SLPC  H13Y22166   1.142   3.084   7.688 -1.7083 -1.5591 -2.7786
  191SLPC  C31422167   1.318   3.013   7.802  0.5243  0.1258  0.2819
  191SLPC  H14X22168   1.331   3.116   7.843  0.0597 -0.2210  1.3391
  191SLPC  H14Y22169   1.411   2.965   7.766  0.4662  0.6760 -0.6498
  191SLPC  C31522170   1.253   2.919   7.909  0.1017  0.0838  0.3252
  191SLPC  H15X22171   1.225   2.822   7.862  1.4529 -0.6627  0.9848
  191SLPC  H15Y22172   1.169   2.977   7.953  0.7622  1.2573  0.0860
  191SLPC  C31622173   1.340   2.891   8.034  0.0308 -0.3069 -0.1020
  191SLPC  H16X22174   1.378   2.991   8.065 -0.7383  0.6346 -2.0640
  191SLPC  H16Y22175   1.426   2.824   8.013  1.1952  0.7571  1.1109
  191SLPC  C31722176   1.268   2.815   8.149 -0.2313 -0.0760  0.0623
  191SLPC  H17X22177   1.237   2.715   8.109 -0.2949  0.6888 -1.9147
  191SLPC  H17Y22178   1.173   2.870   8.167  1.6741  3.0795  1.2892
  191SLPC  C31822179   1.345   2.820   8.287  0.3883  0.2224  0.5415
  191SLPC  H18X22180   1.280   2.795   8.374  1.9758 -2.8943  0.9516
  191SLPC  H18Y22181   1.383   2.924   8.300 -0.5252  0.5259  0.8665
  191SLPC  H18Z22182   1.433   2.754   8.272  1.4851  1.2060  2.3283
  192SLPC     N22183   2.684   4.547   6.355  0.5342 -0.4207  0.1193
  192SLPC   C1322184   2.705   4.634   6.239 -0.5747  0.0817  0.3485
  192SLPC  H13A22185   2.798   4.686   6.252 -0.4735 -0.0269  0.0686
  192SLPC  H13B22186   2.692   4.583   6.144 -1.9670 -0.7514  0.9455
  192SLPC  H13C22187   2.629   4.711   6.237  0.1066  0.8282  1.9560
  192SLPC   C1422188   2.668   4.635   6.473 -1.1953 -0.3981 -0.2361
  192SLPC  H14A22189   2.654   4.578   6.563  0.2764  1.7104  1.4231
  192SLPC  H14B22190   2.752   4.702   6.487  0.1758 -1.3397 -3.1337
  192SLPC  H14C22191   2.580   4.697   6.472 -2.4144 -2.0505 -2.1084
  192SLPC   C1522192   2.793   4.446   6.385  0.5693  1.0739 -0.2957
  192SLPC  H15A22193   2.767   4.395   6.476  1.1118 -0.9355 -1.2063
  192SLPC  H15B22194   2.790   4.381   6.298  3.2475 -0.4660  0.6477
  192SLPC  H15C22195   2.893   4.485   6.389  1.6312 -1.2836 -1.6388
  192SLPC   C1222196   2.554   4.469   6.337  0.5243  0.0815 -0.3787
  192SLPC  H12A22197   2.555   4.414   6.245  0.8331 -1.0725  0.3015
  192SLPC  H12B22198   2.470   4.537   6.329 -0.8784 -1.5139  0.1214
  192SLPC   C1122199   2.506   4.380   6.455 -0.0148 -0.0531  0.7578
  192SLPC  H11A22200   2.398   4.358   6.445  0.2469 -0.8554 -0.5324
  192SLPC  H11B22201   2.529   4.425   6.554  2.9367 -1.2226  0.7124
  192SLPC     P22202   2.524   4.135   6.380  0.0066  0.1467  0.4109
  192SLPC   O1322203   2.452   4.179   6.257 -0.2027  0.0178  0.4399
  192SLPC   O1422204   2.627   4.031   6.347  0.0157 -0.6364  0.0288
  192SLPC   O1222205   2.588   4.256   6.461 -0.0303 -0.1292  1.5178
  192SLPC   O1122206   2.416   4.075   6.481  0.1325  0.1666  0.0162
  192SLPC    C122207   2.415   3.949   6.540 -1.0209  0.2589  0.4758
  192SLPC    HA22208   2.372   3.878   6.466 -2.0686  1.1803  0.1812
  192SLPC    HB22209   2.521   3.919   6.560 -1.3313 -0.7894  0.6121
  192SLPC    C222210   2.341   3.944   6.676  0.1330 -0.0552  0.8558
  192SLPC    HS22211   2.369   3.851   6.730  1.5483  0.4251  0.9934
  192SLPC   O2122212   2.203   3.968   6.657  0.6637 -0.1785 -0.3585
  192SLPC   C2122213   2.130   3.860   6.619  0.6131 -0.2251 -0.5122
  192SLPC   O2222214   2.174   3.751   6.600  0.2080 -0.0728  0.5810
  192SLPC   C2222215   1.984   3.902   6.609  0.8254 -0.3288 -1.0362
  192SLPC   H2R22216   1.983   4.001   6.557 -2.1116 -0.6132 -1.7138
  192SLPC   H2S22217   1.925   3.842   6.536  3.2023  0.1808 -3.5663
  192SLPC    C322218   2.401   4.063   6.755 -0.1358 -0.2312  0.0441
  192SLPC    HX22219   2.411   4.156   6.694  1.0461 -0.4624 -0.1453
  192SLPC    HY22220   2.504   4.034   6.785  1.5916  1.6950 -3.3319
  192SLPC   O3122221   2.323   4.100   6.870 -0.4790  0.1790 -0.0302
  192SLPC   C3122222   2.330   4.011   6.966  0.1732  0.0789 -0.2592
  192SLPC   O3222223   2.392   3.906   6.962  0.0877 -0.0024  0.2507
  192SLPC   C3222224   2.266   4.059   7.096  0.4324  0.7072 -0.0359
  192SLPC   H2X22225   2.165   4.102   7.075 -1.5046 -3.0823  0.6024
  192SLPC   H2Y22226   2.328   4.138   7.141  1.7829  1.1940 -2.5324
  192SLPC   C2322227   1.903   3.918   6.737  0.4547 -0.0813  0.7525
  192SLPC   H3R22228   1.813   3.978   6.712  0.1294 -0.9520 -0.2300
  192SLPC   H3S22229   1.961   3.973   6.815 -0.7801 -1.6118  2.8400
  192SLPC   C2422230   1.858   3.790   6.801  0.2770  0.4466  0.2641
  192SLPC   H4R22231   1.943   3.721   6.822 -0.0060 -0.1394 -0.4832
  192SLPC   H4S22232   1.792   3.738   6.729  0.5143  0.6662 -0.1120
  192SLPC   C2522233   1.771   3.809   6.922 -0.2031  0.1593 -0.4949
  192SLPC   H5R22234   1.725   3.712   6.947  0.5154 -0.1657 -0.3968
  192SLPC   H5S22235   1.697   3.877   6.875  0.5765  1.1049 -0.3965
  192SLPC   C2622236   1.831   3.880   7.038 -0.1391 -0.3858  0.1121
  192SLPC   H6R22237   1.856   3.984   7.007 -0.8294 -0.1829  0.2122
  192SLPC   H6S22238   1.923   3.825   7.068  0.6621  0.4544 -0.7469
  192SLPC   C2722239   1.728   3.889   7.150 -0.3347  0.2074  0.1288
  192SLPC   H7R22240   1.723   3.796   7.210 -1.0638  1.0023  1.3463
  192SLPC   H7S22241   1.624   3.891   7.112 -0.4433 -0.5579  0.3791
  192SLPC   C2822242   1.771   4.006   7.245 -0.4487  0.5308  0.0089
  192SLPC   H8R22243   1.771   4.101   7.186 -0.0127  0.1040 -0.6890
  192SLPC   H8S22244   1.874   3.998   7.286 -0.7323 -2.0328  0.3276
  192SLPC   C2922245   1.676   4.017   7.362  0.4543 -0.3795  0.1048
  192SLPC   H9R22246   1.575   4.059   7.347  0.3289 -0.7109  0.0105
  192SLPC  C21022247   1.692   3.970   7.489 -0.1398  0.4147 -0.5494
  192SLPC  H10R22248   1.604   3.971   7.555 -1.3721  0.1908 -2.1058
  192SLPC  C21122249   1.809   3.905   7.547  0.9689  0.1328  0.5764
  192SLPC  H11R22250   1.809   3.927   7.656 -0.5588 -2.1608  1.1056
  192SLPC  H11S22251   1.900   3.956   7.508  0.8778 -1.6448 -2.2464
  192SLPC  C21222252   1.817   3.762   7.524 -0.1069  0.9820 -0.4114
  192SLPC  H12R22253   1.771   3.715   7.436 -1.2541 -1.8819  1.5922
  192SLPC  C21322254   1.890   3.681   7.598  0.2937  0.2283 -0.2799
  192SLPC  H13R22255   1.896   3.575   7.570  0.1588 -0.0377  0.6515
  192SLPC  C21422256   1.980   3.723   7.709 -0.5931  0.0656  0.1578
  192SLPC  H14R22257   2.015   3.828   7.703 -1.4009  0.2685 -1.6058
  192SLPC  H14S22258   2.067   3.653   7.707 -1.2038 -0.7965  1.7101
  192SLPC  C21522259   1.904   3.721   7.845 -0.2752 -0.6608 -0.0762
  192SLPC  H15R22260   1.900   3.615   7.878  1.3579  0.1095  2.9779
  192SLPC  H15S22261   1.798   3.753   7.835  0.1319  1.0177  0.5892
  192SLPC  C21622262   1.984   3.792   7.957 -0.7960 -0.0322  0.3342
  192SLPC  H16R22263   1.979   3.901   7.937  0.7281  0.2851  1.4749
  192SLPC  H16S22264   2.090   3.760   7.939 -1.3328 -0.5320 -2.4671
  192SLPC  C21722265   1.938   3.762   8.102  0.1545 -0.5587 -0.5328
  192SLPC  H17R22266   1.994   3.670   8.131 -0.6162 -0.6509  0.7120
  192SLPC  H17S22267   1.977   3.849   8.160  0.4543 -1.5763  0.8421
  192SLPC  C21822268   1.787   3.736   8.119  0.4043 -0.0632 -0.6368
  192SLPC  H18R22269   1.730   3.817   8.070  0.4385  0.1826 -0.2732
  192SLPC  H18S22270   1.756   3.743   8.225 -1.1828 -0.0691 -1.0780
  192SLPC  H18T22271   1.746   3.642   8.076 -1.2746 -0.1638  1.0885
  192SLPC   C3322272   2.270   3.946   7.196 -0.0172 -0.3364  0.5100
  192SLPC   H3X22273   2.376   3.918   7.217 -0.1583 -0.1685  1.4752
  192SLPC   H3Y22274   2.218   3.858   7.152 -2.4536  1.9680 -1.6022
  192SLPC   C3422275   2.204   3.968   7.335 -0.3215  0.3118 -0.4221
  192SLPC   H4X22276   2.202   3.866   7.379 -1.5821  0.4421 -0.1279
  192SLPC   H4Y22277   2.097   3.998   7.341  0.8922  5.1640  1.5788
  192SLPC   C3522278   2.287   4.058   7.429  0.2627 -0.5094 -0.4441
  192SLPC   H5X22279   2.280   4.157   7.379  0.6369 -0.0840  0.3358
  192SLPC   H5Y22280   2.393   4.026   7.418  0.8614  0.8497  1.0029
  192SLPC   C3622281   2.240   4.047   7.578 -0.1738  0.3745 -0.1926
  192SLPC   H6X22282   2.326   4.073   7.643  0.3013 -0.9229 -0.2823
  192SLPC   H6Y22283   2.218   3.942   7.605 -2.5701  1.0741  0.8514
  192SLPC   C3722284   2.118   4.135   7.596 -0.3499  0.0212 -0.2357
  192SLPC   H7X22285   2.037   4.115   7.523 -0.2581  2.0575 -0.9582
  192SLPC   H7Y22286   2.155   4.238   7.576  0.4424  0.0198  1.1212
  192SLPC   C3822287   2.057   4.141   7.740 -0.2323  0.3140 -0.2928
  192SLPC   H8X22288   2.130   4.084   7.802 -1.4575 -0.4878  0.4621
  192SLPC   H8Y22289   1.968   4.075   7.749 -0.7471  1.0956  0.4984
  192SLPC   C3922290   2.048   4.280   7.798  0.0407  0.0397 -0.1520
  192SLPC   H9X22291   1.966   4.325   7.737 -0.5849 -0.0402  0.6179
  192SLPC   H9Y22292   2.137   4.343   7.778 -0.5341  0.7888 -0.4371
  192SLPC  C31022293   2.014   4.282   7.943  0.2901 -0.4816 -0.5085
  192SLPC  H10X22294   2.073   4.214   8.007 -0.1416 -1.8740 -1.5507
  192SLPC  H10Y22295   1.915   4.232   7.946 -1.4368  2.5978  3.3286
  192SLPC  C31122296   2.023   4.416   8.014  0.0090 -0.0265 -0.3027
  192SLPC  H11X22297   1.964   4.492   7.958  2.0647  2.3878  0.5750
  192SLPC  H11Y22298   2.128   4.453   8.010 -0.1030  0.2694 -0.6349
  192SLPC  C31222299   1.977   4.410   8.156  0.1068 -0.5200 -0.5261
  192SLPC  H12X22300   2.061   4.391   8.226 -0.2257 -0.9248 -0.2311
  192SLPC  H12Y22301   1.908   4.325   8.173 -0.5914  0.3928  1.5353
  192SLPC  C31322302   1.907   4.540   8.216 -0.1829 -0.1015  0.2802
  192SLPC  H13X22303   1.843   4.591   8.142  0.7445  3.9546  2.0100
  192SLPC  H13Y22304   1.987   4.606   8.254  2.6884 -1.7123 -2.5068
  192SLPC  C31422305   1.810   4.494   8.333 -0.0064 -0.1918 -1.0317
  192SLPC  H14X22306   1.876   4.472   8.420 -0.4720 -2.0296 -1.0995
  192SLPC  H14Y22307   1.752   4.408   8.293  0.4087 -0.7705 -0.4173
  192SLPC  C31522308   1.717   4.610   8.354 -0.4919  0.4453 -0.6027
  192SLPC  H15X22309   1.642   4.613   8.272  0.0970 -0.4675 -1.1870
  192SLPC  H15Y22310   1.764   4.710   8.356  0.9782 -0.2009 -1.5539
  192SLPC  C31622311   1.643   4.587   8.489 -0.2401 -0.0485  0.4717
  192SLPC  H16X22312   1.725   4.597   8.562  0.1654  2.5179 -0.2292
  192SLPC  H16Y22313   1.603   4.484   8.495  0.5013 -0.4874 -1.4319
  192SLPC  C31722314   1.535   4.688   8.524  0.1275  0.2325 -0.6971
  192SLPC  H17X22315   1.540   4.767   8.446 -1.2797 -0.5786 -1.6480
  192SLPC  H17Y22316   1.575   4.729   8.619  0.0454 -0.5359 -0.3231
  192SLPC  C31822317   1.392   4.633   8.532  0.4745 -0.2387 -0.0662
  192SLPC  H18X22318   1.367   4.534   8.576 -1.3702 -0.2034 -0.9285
  192SLPC  H18Y22319   1.339   4.643   8.435  1.5768 -0.2619 -0.6814
  192SLPC  H18Z22320   1.342   4.712   8.592  0.8400 -0.7198  0.8933
  193SOD    SOD22321   3.979   6.498  11.867 -0.2754 -0.2622  0.0663
  194SOD    SOD22322   3.145   4.973  11.850 -0.4364  0.6289  0.0697
  195SOD    SOD22323   5.695   1.664  12.730 -0.5735 -0.0228 -0.4352
  196SOD    SOD22324   1.402   1.827  16.407  0.0643 -0.3731 -0.2733
  197SOD    SOD22325   1.422   2.508   5.393 -0.0286 -0.3622 -0.1004
  198SOD    SOD22326   3.598   2.195   3.248 -0.2805  0.5060  0.3111
  199SOD    SOD22327   1.779   5.455  14.285 -0.3918 -0.3826 -0.2877
  200SOD    SOD22328   6.664   3.409   4.411 -0.0927  0.2400 -0.3453
  201SOD    SOD22329   4.284   5.133  16.605  0.0196 -0.1503 -0.5603
  202SOD    SOD22330   3.545   3.228  13.331 -0.0893 -0.1757 -0.4833
  203SOD    SOD22331   4.300   2.967  11.863  0.0076 -0.4495  0.0060
  204SOD    SOD22332   3.207   0.920   2.259 -0.5371 -0.0674  0.3931
  205SOD    SOD22333   1.025   1.202  10.991 -0.0874  0.1472  0.4270
  206SOD    SOD22334   0.007   2.756   1.415  0.2757 -0.8108  0.5283
  207SOD    SOD22335   4.015   1.055  14.679 -0.1576  0.3691  0.2463
  208SOD    SOD22336   6.491   2.193   5.015 -0.2561  0.0030  0.3829
  209SOD    SOD22337   6.000   5.929   6.267 -0.7318  0.3392  0.0094
  210SOD    SOD22338   5.026   3.343  11.604  0.5233 -0.5609 -0.1069
  211SOD    SOD22339   4.028   2.207   4.987 -0.0383 -0.7910  0.1586
  212SOD    SOD22340   2.377   6.413   1.027 -0.0460 -0.1598 -0.2343
  213SOD    SOD22341   4.031   2.854  14.828  0.3241  0.2312  0.1549
  214SOD    SOD22342   5.479   6.752   4.878 -0.4787 -0.0154 -0.0586
  215SOD    SOD22343   6.456   0.595   6.292  0.0223  0.2921  0.0084
  216SOD    SOD22344   5.107   1.246  10.918  0.2516 -0.1345 -0.0275
  217SOD    SOD22345   4.695   3.171   3.832 -0.0855 -0.2546 -0.4059
  218SOD    SOD22346   2.083   0.747  16.768 -0.2984  0.0304 -0.4073
  219SOD    SOD22347   2.002   2.667  15.146  0.1514 -0.4795  0.1864
  220SOD    SOD22348   5.456   5.928   1.559 -0.1153 -1.0884 -0.2597
  221SOD    SOD22349   0.455   0.467  17.035 -0.1522  0.1777 -0.1745
  222SOD    SOD22350   2.512   2.314  14.711 -0.1337  0.4139 -0.7573
  223SOD    SOD22351   1.734   4.459   2.598  0.0309  0.4014  0.1811
  224SOD    SOD22352   2.785   2.221  10.626 -0.1426 -0.0832  0.4629
  225SOD    SOD22353   5.198   0.050  16.364  0.7474  0.0008  0.4925
  226SOD    SOD22354   5.047   2.956   2.852 -0.3487 -0.0942 -1.1012
  227SOD    SOD22355   6.167   5.286   0.058  0.0955 -0.0251  0.2699
  228SOD    SOD22356   3.982   1.303   1.068  0.0337 -0.5482 -0.4511
  229SOD    SOD22357   0.994   0.733   3.144  0.2024  0.1424  0.2418
  230SOD    SOD22358   3.998   4.025  15.354 -0.0626  0.0034  0.0598
  231SOD    SOD22359   4.398   4.177   6.367  1.1096 -0.3356 -0.3742
  232SOD    SOD22360   2.716   5.094   2.560 -0.2500 -0.2701  0.0912
  233SOD    SOD22361   1.162   3.388   3.775 -0.0965  0.0566  0.0542
  234SOD    SOD22362   1.325   0.286   3.725  0.0478  0.2391 -0.2845
  235SOD    SOD22363   4.045   6.325  16.390 -0.3220 -0.5298  0.5701
  236SOD    SOD22364   4.343   3.731   1.303 -0.3900 -0.4211 -0.1437
  237SOD    SOD22365   2.499   3.428   0.023 -0.2093 -0.3638 -0.0845
  238SOD    SOD22366   4.476   1.913  12.265  0.6538  0.0657  0.0862
  239SOD    SOD22367   0.322   0.058  10.643 -0.1938 -0.5351  0.1069
  240SOD    SOD22368   0.144   1.935   5.649 -0.1244 -0.3094 -0.1148
  241SOD    SOD22369   0.516   5.821   5.548  0.0109 -0.5758  0.2964
  242SOD    SOD22370   5.837   4.784  16.227  0.2862  0.0785 -0.1027
  243SOD    SOD22371   5.709   3.797   5.089 -0.6144 -0.0482 -0.2355
  244SOD    SOD22372   1.113   0.979   5.394  0.0876  0.3424  0.2304
  245SOD    SOD22373   0.166   0.891  15.628  0.5116 -0.0349 -0.3214
  246SOD    SOD22374   0.837   1.959   1.539  0.1848 -0.0764 -0.7728
  247SOD    SOD22375   6.289   3.839  15.278  0.0893  0.2258 -0.2436
  248SOD    SOD22376   6.505   2.844  15.435 -0.5327  0.6567 -0.0005
  249SOD    SOD22377   0.014   6.800   5.215  0.0696  0.7188  0.0691
  250SOD    SOD22378   3.192   5.404  14.334 -0.1664 -0.4305  0.0133
  251SOD    SOD22379   3.383   1.849  11.796 -0.0784 -0.3670  0.1515
  252SOD    SOD22380   2.606   3.147  12.772  0.2385  0.1352  0.3015
  253SOD    SOD22381   1.002   5.325  11.300 -0.4493  0.0621 -0.0050
  254SOD    SOD22382   2.595   4.268  14.089 -0.1823  0.0532 -0.1650
  255SOD    SOD22383   2.506   6.293   5.509 -0.1436 -0.2190 -0.1481
  256SOD    SOD22384   4.309   2.290   0.193  0.2077  0.1901 -0.1090
  257SOD    SOD22385   3.829   6.491   5.672 -0.1959  0.0029  0.1083
  258SOD    SOD22386   5.249   6.670  12.288 -0.3802 -0.0240  0.3878
  259SOD    SOD22387   3.971   3.186   5.818  0.1064  0.3258 -0.3413
  260SOD    SOD22388   4.224   0.151   0.484 -0.2417  0.1077  0.2768
  261SOD    SOD22389   2.066   1.040  10.492  0.0417  0.0797  0.2795
  262SOD    SOD22390   5.834   1.954  10.536  0.3246 -0.0700 -0.1368
  263SOD    SOD22391   2.670   6.413  13.845  0.1039 -0.3545  0.2346
  264SOD    SOD22392   3.931   0.572   4.411 -0.0286 -0.2372 -0.3054
  265SOD    SOD22393   3.120   5.103   1.308  0.3229 -0.2422 -0.3829
  266CLA    CLA22394   3.465   2.529  15.718 -0.0094 -0.0313 -0.1829
  267CLA    CLA22395   5.721   1.904   5.243 -0.5734 -0.0044  0.2359
  268CLA    CLA22396   0.961   0.192  11.171 -0.0667 -0.2369  0.3202
  269CLA    CLA22397   6.158   0.764  15.788  0.1279  0.2637  0.0322
  270CLA    CLA22398   0.378   1.755   1.710 -0.1302  0.0501  0.0140
  271CLA    CLA22399   0.465   3.498   2.557 -0.0440 -0.4408  0.2729
  272CLA    CLA22400   3.810   1.064  13.070  0.0560 -0.3442 -0.5193
  273CLA    CLA22401   3.895   4.868  13.927  0.1540  0.2952  0.2153
  274CLA    CLA22402   5.614   1.130   2.612  0.2691 -0.2690 -0.0040
  275CLA    CLA22403   3.211   2.459  14.053  0.1231  0.1943  0.3549
  276CLA    CLA22404   4.815   3.303  16.690  0.0573 -0.4626  0.3214
  277CLA    CLA22405   6.393   4.870   0.810  0.3909  0.0318 -0.0354
  278CLA    CLA22406   0.655   2.606   4.236 -0.0081  0.4588 -0.6652
  279CLA    CLA22407   3.038   5.833  14.081  0.4142  0.2612  0.0637
  280CLA    CLA22408   6.305   1.613   2.037 -0.4469 -0.1559  0.2035
  281CLA    CLA22409   0.777   5.967  14.857  0.3354  0.0403 -0.0995
  282CLA    CLA22410   1.657   2.272   1.229 -0.1736  0.1707  0.0004
  283CLA    CLA22411   1.347   0.017  13.173 -0.3857  0.1259  0.2985
  284CLA    CLA22412   3.639   3.549   3.913 -0.0936  0.5451  0.2481
  285CLA    CLA22413   2.068   5.636   1.907  0.4464  0.1392 -0.0726
  286CLA    CLA22414   3.056   6.690   4.833  0.4198  0.1625 -0.2206
  287CLA    CLA22415   4.146   0.950  13.883 -0.1062 -0.1485 -0.8150
  288CLA    CLA22416   3.791   1.399  14.388  0.0720 -0.1717 -0.1796
  289CLA    CLA22417   2.337   3.796  11.701  0.0390 -0.0735 -0.5051
  290CLA    CLA22418   3.639   4.062   0.201 -0.2563 -0.0999 -0.2891
  291CLA    CLA22419   4.581   3.279   0.361  0.4502 -0.3790  0.2055
  292CLA    CLA22420   5.214   1.491   4.236 -0.2947  0.4929 -0.2580
  293CLA    CLA22421   4.772   0.553   2.814 -0.1877  0.4338  0.0033
  294CLA    CLA22422   0.290   1.816  13.125 -0.0602 -0.0835 -0.0457
  295CLA    CLA22423   4.126   0.635   0.750  0.0376  0.3265  0.2676
  296CLA    CLA22424   6.394   1.722   2.761  0.0586  0.3969 -0.5130
  297CLA    CLA22425   0.130   0.613  13.181 -0.5028  0.1538  0.1794
  298CLA    CLA22426   5.752   4.789   5.879  0.2406 -0.2698 -0.3018
  299CLA    CLA22427   0.799   1.294  16.782 -0.0286 -0.3784 -0.0483
  300CLA    CLA22428   4.740   3.267   5.216 -0.2470  0.1071  0.0591
  301CLA    CLA22429   5.255   3.500  15.390 -0.2133  0.2434 -0.3856
  302CLA    CLA22430   5.055   6.068   3.749  0.2038  0.1462 -0.0938
  303CLA    CLA22431   2.910   0.386  16.446 -0.2397 -0.2584 -0.6560
  304CLA    CLA22432   2.305   6.071  15.096 -0.0189  0.0019 -0.2234
  305CLA    CLA22433   2.415   0.023  11.690  0.1459  0.1575  0.1942
  306CLA    CLA22434   5.020   2.819   3.644  0.3917  0.1323  0.1378
  307CLA    CLA22435   3.423   0.113   1.246  0.0493  0.0043  0.1071
  308CLA    CLA22436   3.850   6.829  15.406  0.8474  0.0633  0.0329
  309CLA    CLA22437   4.809   4.353  12.873  0.0795 -0.0846  0.3888
  310CLA    CLA22438   0.650   5.411  13.348 -0.0727 -0.6217  0.1200
  311CLA    CLA22439   0.333   6.316   0.361 -0.0605 -0.3478 -0.0314
  312CLA    CLA22440   4.474   1.332   5.111 -0.2534 -0.0203  0.0333
  313CLA    CLA22441   1.023   0.583   3.387  0.2035  0.0785 -0.1028
  314CLA    CLA22442   1.897   4.054  16.476  0.4002  0.1885 -0.0239
  315CLA    CLA22443   4.922   2.850  15.426 -0.3160 -0.0976 -0.3887
  316CLA    CLA22444   1.267   0.605   2.769 -0.4537 -0.4819 -0.2672
  317CLA    CLA22445   1.714   2.398  12.986  0.0062  0.1662 -0.1532
  318CLA    CLA22446   6.782   0.457  17.056 -0.0142 -0.2735  0.2684
  319TIP3   OH222447   0.034   5.795   1.159  0.4677  0.2127  0.3066
  319TIP3    H122448   0.090   5.811   1.083  0.3231  1.5788  0.4731
  319TIP3    H222449  -0.029   5.866   1.158  0.2236  0.0297  1.4951
  320TIP3   OH222450   4.212   5.215   5.546 -0.7064  0.0525  0.1275
  320TIP3    H122451   4.117   5.207   5.552 -0.8000  0.7047 -0.3491
  320TIP3    H222452   4.245   5.128   5.564 -1.2259  0.4532  3.5838
  321TIP3   OH222453   3.268   2.319  14.583 -0.2756  0.1386  0.2868
  321TIP3    H122454   3.221   2.333  14.501  0.2406  0.7566  0.0912
  321TIP3    H222455   3.317   2.237  14.569 -0.8685 -0.2266  0.3046
  322TIP3   OH222456   0.242   3.600  12.120  0.1476 -0.1567  0.4918
  322TIP3    H122457   0.189   3.674  12.151  1.8293  1.0008  0.7524
  322TIP3    H222458   0.245   3.611  12.025  0.4157  0.1323  0.5326
  323TIP3   OH222459   1.830   0.971  11.528 -0.1006 -0.4109  0.0929
  323TIP3    H122460   1.887   1.010  11.462  0.3920 -0.8539  0.2471
  323TIP3    H222461   1.888   0.915  11.579 -0.9929 -2.4400 -0.9882
  324TIP3   OH222462   3.215   2.956   1.279 -0.3052 -0.2715 -0.4731
  324TIP3    H122463   3.196   3.049   1.269 -0.1082 -0.1081  0.5272
  324TIP3    H222464   3.135   2.919   1.315 -0.5310 -0.5768 -1.2696
  325TIP3   OH222465   4.564   5.113   0.597  0.9420 -0.5781  0.4793
  325TIP3    H122466   4.630   5.175   0.627  0.3868 -0.1888  0.9177
  325TIP3    H222467   4.482   5.162   0.598  0.1924 -1.7315  2.4149
  326TIP3   OH222468   5.119   5.087  16.435 -0.0279  0.1782 -0.1538
  326TIP3    H122469   5.153   5.031  16.506  2.4563  0.2673 -1.1797
  326TIP3    H222470   5.076   5.160  16.481 -0.6388 -0.9827  1.2148
  327TIP3   OH222471   6.790   3.720  16.773 -0.1351  0.3836 -0.1246
  327TIP3    H122472   6.800   3.628  16.798 -2.7171  0.1326  0.2660
  327TIP3    H222473   6.781   3.718  16.677  3.6778  0.7319 -0.6478
  328TIP3   OH222474   3.817   1.773   2.057  0.4497  0.3402 -0.3499
  328TIP3    H122475   3.814   1.706   1.990  1.0991 -1.2629  1.1502
  328TIP3    H222476   3.725   1.788   2.080  0.3481 -1.8711  0.9754
  329TIP3   OH222477   4.264   1.567   5.106  0.6848  0.4594  0.1253
  329TIP3    H122478   4.212   1.505   5.158  1.5146 -1.1478 -0.8986
  329TIP3    H222479   4.348   1.523   5.094  0.5204  0.7473 -2.5757
  330TIP3   OH222480   4.040   5.432  13.328 -0.1357 -0.3747 -0.4443
  330TIP3    H122481   4.066   5.351  13.372  0.9491  0.1702 -0.0404
  330TIP3    H222482   4.092   5.500  13.371  0.0305  0.3449 -1.7300
  331TIP3   OH222483   4.833   4.802  15.597 -0.2864  0.0808  0.6014
  331TIP3    H122484   4.918   4.808  15.555 -0.2835  0.1322  0.6138
  331TIP3    H222485   4.792   4.724  15.560  0.1173 -0.4432  1.2384
  332TIP3   OH222486   6.407   2.345  10.973  0.0687  0.3247 -0.3305
  332TIP3    H122487   6.411   2.308  11.061  0.4572  1.4784  0.1531
  332TIP3    H222488   6.461   2.287  10.920 -0.7865 -0.8228  0.0065
  333TIP3   OH222489   0.033   5.480   2.610 -0.0122 -0.5039  0.5248
  333TIP3    H122490   0.061   5.501   2.521 -2.0378 -1.1705 -0.3164
  333TIP3    H222491  -0.009   5.560   2.641  0.9130 -0.1849  1.0321
  334TIP3   OH222492   1.290   6.328  12.919 -0.7817 -0.3615  0.3139
  334TIP3    H122493   1.267   6.400  12.859  0.4201  0.1549  0.4329
  334TIP3    H222494   1.272   6.363  13.006 -0.6308 -0.3663  0.3475
  335TIP3   OH222495   0.291   1.036  12.120  0.4503  0.2953  0.3793
  335TIP3    H122496   0.215   0.981  12.101  0.6454 -0.2376  1.0892
  335TIP3    H222497   0.356   0.976  12.158  1.2004  0.7538 -0.1405
  336TIP3   OH222498   1.114   2.005  10.518 -0.1979  0.4095 -0.7919
  336TIP3    H122499   1.038   2.036  10.566 -0.5273  0.2486 -1.2029
  336TIP3    H222500   1.186   2.060  10.548 -0.5935  0.9598 -0.8442
  337TIP3   OH222501   4.841   1.074   0.724  0.0095  0.0561 -0.5198
  337TIP3    H122502   4.903   1.062   0.796  0.1746 -0.0343 -0.6772
  337TIP3    H222503   4.864   1.159   0.687  1.4287 -0.8912 -1.9220
  338TIP3   OH222504   6.803   3.745  16.508  0.4828  0.0839  0.0826
  338TIP3    H122505   6.845   3.723  16.425  0.8642 -0.0074  0.2929
  338TIP3    H222506   6.754   3.825  16.491 -0.8345 -0.8464 -0.6778
  339TIP3   OH222507   2.258   2.330   0.159 -0.2983 -0.1538  0.5581
  339TIP3    H122508   2.214   2.245   0.165 -0.8764  0.0261 -0.8513
  339TIP3    H222509   2.209   2.387   0.218 -2.5208  0.2563 -1.5622
  340TIP3   OH222510   0.031   0.684   4.435 -0.1542 -0.3817  0.4659
  340TIP3    H122511  -0.048   0.635   4.414 -2.2332  1.8886  2.3216
  340TIP3    H222512   0.038   0.750   4.366  0.0318 -0.4668  0.4014
  341TIP3   OH222513   1.649   0.273   5.974 -0.2553  0.2027  0.1025
  341TIP3    H122514   1.732   0.298   6.015 -1.1632  2.3571  0.7695
  341TIP3    H222515   1.628   0.188   6.012  1.3855 -0.1341  0.3066
  342TIP3   OH222516   1.012   1.518  15.897  0.1044 -0.0773  0.7758
  342TIP3    H122517   1.063   1.599  15.893  0.6616 -0.3908  1.4457
  342TIP3    H222518   1.077   1.449  15.906 -0.3099 -0.7036 -0.7971
  343TIP3   OH222519   0.022   5.063  12.860  0.1704 -1.0940  0.0166
  343TIP3    H122520   0.097   5.011  12.889  1.4019 -0.0453 -1.1315
  343TIP3    H222521   0.041   5.082  12.768 -0.1375  1.4740  0.4192
  344TIP3   OH222522   2.067   0.937  10.288  0.6101  0.5232  0.3354
  344TIP3    H122523   2.072   0.842  10.299 -2.0648  0.1909 -0.6414
  344TIP3    H222524   2.048   0.949  10.195 -2.4207  1.7848  1.0131
  345TIP3   OH222525   1.995   2.691   3.914 -0.4528 -0.4626  0.3960
  345TIP3    H122526   2.023   2.618   3.858 -2.5424 -0.2363 -1.0535
  345TIP3    H222527   1.926   2.734   3.864  0.2940  2.1904  1.4634
  346TIP3   OH222528   4.137   4.739   6.663 -0.2739 -0.5189 -0.2778
  346TIP3    H122529   4.232   4.727   6.659 -0.2300 -0.6768  0.8633
  346TIP3    H222530   4.103   4.650   6.672 -0.5268 -0.4561 -0.6241
  347TIP3   OH222531   0.624   0.668  11.202 -0.2060 -0.0008  0.2084
  347TIP3    H122532   0.609   0.738  11.265  0.0587 -0.6180  0.9792
  347TIP3    H222533   0.606   0.707  11.117 -0.1371  0.9755  0.6339
  348TIP3   OH222534   1.825   1.638  16.606  0.1266  0.5638 -0.1077
  348TIP3    H122535   1.793   1.671  16.522 -0.2020 -0.9442 -0.6130
  348TIP3    H222536   1.748   1.597  16.646  0.5502  0.2413  0.3897
  349TIP3   OH222537   2.237   0.011  15.997 -0.2271  0.2245  0.5354
  349TIP3    H122538   2.250  -0.044  16.074  1.0406 -1.7333 -0.9894
  349TIP3    H222539   2.317   0.001  15.946 -1.6202  0.2301 -1.7823
  350TIP3   OH222540   6.497   3.734  15.186 -0.0682  0.3136 -0.2819
  350TIP3    H122541   6.581   3.772  15.212  0.5163 -1.4997  0.6993
  350TIP3    H222542   6.505   3.641  15.209 -1.8277 -0.1824 -1.4915
  351TIP3   OH222543   2.131   5.000   2.836 -0.2028  0.1266 -0.3627
  351TIP3    H122544   2.041   5.021   2.858  0.2419  1.0729  0.5969
  351TIP3    H222545   2.124   4.936   2.765 -1.6156  0.4851 -0.5658
  352TIP3   OH222546   4.629   0.653   4.328  0.0139  0.1380 -0.2754
  352TIP3    H122547   4.694   0.640   4.259 -0.6179  0.5948 -0.9603
  352TIP3    H222548   4.595   0.566   4.346 -0.6755  0.1585 -1.3917
  353TIP3   OH222549   5.880   3.361   5.128  0.0687  0.2993 -0.2821
  353TIP3    H122550   5.890   3.455   5.111 -0.0161 -0.0494 -2.4244
  353TIP3    H222551   5.815   3.331   5.065 -1.5808 -0.8253  1.8264
  354TIP3   OH222552   3.974   3.307   2.109 -0.4870 -0.1601  0.8259
  354TIP3    H122553   4.062   3.325   2.075 -0.8824  0.9686  0.3691
  354TIP3    H222554   3.953   3.383   2.163 -1.3749 -0.1943  0.5432
  355TIP3   OH222555   4.774   0.006  14.230  0.2728  0.2540 -0.8252
  355TIP3    H122556   4.858   0.004  14.186  0.8113 -1.5541  0.1841
  355TIP3    H222557   4.761   0.098  14.254  1.6332  0.6551 -1.5507
  356TIP3   OH222558   6.238   1.327   1.056 -0.1682 -0.4334 -0.3527
  356TIP3    H122559   6.289   1.276   0.994 -1.6442 -0.4653 -1.6012
  356TIP3    H222560   6.264   1.418   1.039  2.0897 -0.6219  1.5325
  357TIP3   OH222561   3.978   5.037  14.410  0.0056 -0.2256  0.6332
  357TIP3    H122562   3.909   4.990  14.365  0.7784 -0.6736 -0.1157
  357TIP3    H222563   4.024   4.969  14.461  2.2064 -0.7031 -1.7913
  358TIP3   OH222564   0.877   1.741   0.774 -0.7528 -1.0856 -0.1572
  358TIP3    H122565   0.819   1.671   0.803 -1.0646  0.0759  2.2439
  358TIP3    H222566   0.846   1.819   0.820  0.6470  0.2914 -1.4142
  359TIP3   OH222567   3.920   5.673   6.616  0.8380  0.0324 -0.0432
  359TIP3    H122568   3.957   5.672   6.704  1.8498 -1.5018 -0.4504
  359TIP3    H222569   3.829   5.645   6.628  1.1484 -0.8039  0.4598
  360TIP3   OH222570   3.230   6.520  12.381 -0.0324 -0.2073 -0.2669
  360TIP3    H122571   3.248   6.563  12.464  1.4749 -1.2144 -0.0383
  360TIP3    H222572   3.196   6.590  12.325  1.4809  1.0790  0.3614
  361TIP3   OH222573   6.270   4.457  11.940  0.1824  0.2349 -0.2951
  361TIP3    H122574   6.235   4.532  11.987  0.7514  0.7017 -0.5976
  361TIP3    H222575   6.259   4.383  12.000 -2.8073  0.0057 -0.9943
  362TIP3   OH222576   6.382   4.285  12.310 -0.2527  0.0182  0.0565
  362TIP3    H122577   6.391   4.377  12.335 -0.0988  0.4534 -1.5211
  362TIP3    H222578   6.458   4.268  12.253  0.1559 -1.3148  0.9449
  363TIP3   OH222579   0.618   5.724  16.749  0.1434  0.9437 -0.5975
  363TIP3    H122580   0.570   5.683  16.820  0.9614  2.0413  0.6383
  363TIP3    H222581   0.557   5.722  16.675 -0.0717 -1.8357 -0.4380
  364TIP3   OH222582   6.709   3.941  12.205  0.5870  0.1839 -0.2882
  364TIP3    H122583   6.656   4.016  12.234 -0.1188 -0.5128  0.2747
  364TIP3    H222584   6.649   3.888  12.153  0.9084 -0.2971 -0.1785
  365TIP3   OH222585   0.194   6.140   2.857  0.7848 -0.0678 -0.2036
  365TIP3    H122586   0.174   6.123   2.765 -2.7361  1.8222  0.0832
  365TIP3    H222587   0.163   6.062   2.903  2.8954 -1.1854 -0.5242
  366TIP3   OH222588   0.018   3.433  16.259 -0.1997  0.2419 -0.0483
  366TIP3    H122589   0.010   3.405  16.350  1.0550 -1.0067 -0.2758
  366TIP3    H222590   0.077   3.508  16.262 -0.6780  0.6016  0.2401
  367TIP3   OH222591   6.560   4.904  15.134  0.6233 -0.2924 -0.2452
  367TIP3    H122592   6.585   4.898  15.226 -0.4733  2.6209  0.3479
  367TIP3    H222593   6.638   4.876  15.086  1.9489  0.1875  1.5493
  368TIP3   OH222594   0.512   2.156   4.962  0.2472 -0.1206 -0.4334
  368TIP3    H122595   0.469   2.193   4.885 -0.0087 -1.1851 -0.8149
  368TIP3    H222596   0.443   2.108   5.008  0.6876 -0.5756 -0.2395
  369TIP3   OH222597   1.132   2.048  11.674  0.3399  0.2058  0.0657
  369TIP3    H122598   1.213   2.035  11.625  0.2198  1.8814 -0.6256
  369TIP3    H222599   1.151   2.013  11.761  1.4514 -0.3673 -0.3943
  370TIP3   OH222600   0.496   2.456  16.089  0.2101 -0.3517 -0.1563
  370TIP3    H122601   0.560   2.445  16.160  1.4806  1.0580 -1.0173
  370TIP3    H222602   0.486   2.368  16.052  1.7543 -0.6141 -0.0426
  371TIP3   OH222603   6.631   6.141   0.211 -0.3791  0.6057  0.5257
  371TIP3    H122604   6.650   6.051   0.185 -1.0220  0.8450 -0.8377
  371TIP3    H222605   6.685   6.155   0.289  1.8685 -0.0736 -0.8021
  372TIP3   OH222606   6.374   2.196   4.816 -0.3090  0.5564  0.0845
  372TIP3    H122607   6.408   2.211   4.728 -0.6788  1.9197  0.1528
  372TIP3    H222608   6.285   2.164   4.802 -0.1373  0.1252 -0.0398
  373TIP3   OH222609   1.640   6.152  15.788 -0.0740 -0.5358 -0.1293
  373TIP3    H122610   1.689   6.124  15.710 -2.4226  1.5087 -2.5511
  373TIP3    H222611   1.629   6.247  15.776 -1.6568 -0.3797  2.0440
  374TIP3   OH222612   1.875   6.420  15.909  0.2057  0.8965 -0.3591
  374TIP3    H122613   1.922   6.424  15.826 -0.7674 -0.4165 -1.0070
  374TIP3    H222614   1.944   6.425  15.975  1.2737 -0.7208 -1.2821
  375TIP3   OH222615   0.492   2.741   5.599 -0.4848  0.2216  0.3741
  375TIP3    H122616   0.565   2.678   5.596 -0.5419  0.1504 -2.5620
  375TIP3    H222617   0.526   2.813   5.652  0.6450 -1.0173  1.4342
  376TIP3   OH222618   6.409   0.410   2.288 -0.3240  0.7182 -0.0097
  376TIP3    H122619   6.367   0.358   2.357 -2.7768  0.3498 -1.6505
  376TIP3    H222620   6.338   0.430   2.227  1.4571  2.2863 -1.6855
  377TIP3   OH222621   0.486   1.509   2.733 -0.4890 -0.1265 -0.2988
  377TIP3    H122622   0.500   1.566   2.809 -0.0994  0.7288 -0.9973
  377TIP3    H222623   0.457   1.568   2.664  1.1184 -0.5571 -1.3919
  378TIP3   OH222624   2.222   5.173  14.778  0.3856  0.0305  0.4542
  378TIP3    H122625   2.172   5.135  14.706  1.5699 -0.5411 -0.0964
  378TIP3    H222626   2.265   5.098  14.820  1.8170  0.6104  0.0896
  379TIP3   OH222627   1.310   3.491   2.666 -0.8255  0.0793 -0.8693
  379TIP3    H122628   1.356   3.445   2.737 -0.9307 -0.4817 -1.1597
  379TIP3    H222629   1.364   3.476   2.589 -0.4862  1.0496 -0.8365
  380TIP3   OH222630   5.389   5.159   4.982 -0.1436 -0.2633 -0.8999
  380TIP3    H122631   5.356   5.125   5.066 -0.6636 -1.2036 -1.4659
  380TIP3    H222632   5.465   5.212   5.006  0.1154 -1.0473  0.1165
  381TIP3   OH222633   4.266   3.074  11.661  0.2037 -0.3615 -0.7612
  381TIP3    H122634   4.194   3.124  11.622  0.4211  1.2758  0.8099
  381TIP3    H222635   4.342   3.094  11.607 -0.4231 -2.0421 -2.3861
  382TIP3   OH222636   1.615   2.495  16.710  0.4959 -0.4935  0.4989
  382TIP3    H122637   1.681   2.538  16.764  2.2464 -1.6197 -0.6343
  382TIP3    H222638   1.609   2.549  16.631 -2.0641  1.1580  1.7015
  383TIP3   OH222639   6.500   3.300  11.413 -0.1317 -0.2327 -0.1291
  383TIP3    H122640   6.478   3.292  11.320  1.3117 -1.5044 -0.4202
  383TIP3    H222641   6.571   3.236  11.426  0.0077  0.2375  1.7481
  384TIP3   OH222642   5.682   5.347   2.658 -0.0513 -0.0233 -0.3813
  384TIP3    H122643   5.704   5.286   2.588 -1.5174 -1.5165  0.3890
  384TIP3    H222644   5.587   5.355   2.654  0.0010  1.2888  0.3136
  385TIP3   OH222645   2.746   5.484  14.398  0.4047  0.2392 -0.0421
  385TIP3    H122646   2.828   5.500  14.352  0.3240  0.6506 -0.0498
  385TIP3    H222647   2.747   5.545  14.472 -0.0788  0.5404 -0.2801
  386TIP3   OH222648   0.200   6.165  16.850  0.3733 -0.1251  0.7387
  386TIP3    H122649   0.295   6.167  16.836  0.0641  1.3717 -1.9645
  386TIP3    H222650   0.182   6.247  16.896  0.0866  1.7744 -2.4584
  387TIP3   OH222651   3.073   2.297  11.285 -0.3894 -0.1923 -0.0784
  387TIP3    H122652   3.064   2.391  11.303 -1.6588  0.0072 -1.5998
  387TIP3    H222653   3.112   2.262  11.365  0.2830  1.6510  0.4545
  388TIP3   OH222654   5.675   5.506   1.512  0.0790  0.1031 -0.5655
  388TIP3    H122655   5.748   5.519   1.451 -0.4157  0.2304 -1.1348
  388TIP3    H222656   5.706   5.439   1.572  1.8361  2.1874  1.0346
  389TIP3   OH222657   4.803   1.118  10.731 -0.3275  0.0048 -0.2074
  389TIP3    H122658   4.875   1.156  10.681  0.7288 -1.6173  0.0322
  389TIP3    H222659   4.776   1.042  10.679 -1.2697  0.0741  0.1633
  390TIP3   OH222660   2.744   2.370  15.190  0.0351 -0.1173  0.0365
  390TIP3    H122661   2.686   2.311  15.143  0.4892  0.3942 -1.1896
  390TIP3    H222662   2.687   2.415  15.253 -0.9188  0.4346 -1.1952
  391TIP3   OH222663   1.222   5.537  16.694  0.1492  0.5420  0.1902
  391TIP3    H122664   1.227   5.612  16.635  0.7740 -0.5041 -1.1438
  391TIP3    H222665   1.150   5.484  16.659  0.4958 -0.0731  0.3841
  392TIP3   OH222666   0.299   0.804  16.140  0.3925  0.2570 -0.4858
  392TIP3    H122667   0.230   0.836  16.082  0.1368  0.3953 -0.1081
  392TIP3    H222668   0.303   0.869  16.210  0.9625  0.2919 -0.5436
  393TIP3   OH222669   2.279   4.516  15.068  0.1274 -0.4118 -0.0211
  393TIP3    H122670   2.210   4.576  15.040 -0.2622 -1.1708 -0.7423
  393TIP3    H222671   2.346   4.524  14.999  0.9577  0.5961  0.8592
  394TIP3   OH222672   3.423   4.032  14.065 -0.5207 -0.1408 -0.0221
  394TIP3    H122673   3.445   3.958  14.122  1.0095 -0.6698 -1.2107
  394TIP3    H222674   3.417   4.107  14.123  1.1761 -0.6224  0.8186
  395TIP3   OH222675   6.725   0.526   4.690 -0.7467 -0.2064  0.3102
  395TIP3    H122676   6.678   0.570   4.618 -1.1193 -0.4668  0.3920
  395TIP3    H222677   6.744   0.597   4.751 -0.6454 -0.0230  0.0703
  396TIP3   OH222678   2.024   2.324   2.548  0.6009  0.4009 -0.0478
  396TIP3    H122679   2.082   2.267   2.499  0.8079 -0.3528  1.0349
  396TIP3    H222680   2.071   2.343   2.629 -0.3014  0.4523  0.4851
  397TIP3   OH222681   6.069   0.486  17.076  0.4384 -0.6227 -0.0876
  397TIP3    H122682   5.999   0.434  17.114  0.2437 -0.3401 -0.0577
  397TIP3    H222683   6.033   0.574  17.069  1.1652 -0.2297  0.9344
  398TIP3   OH222684   4.422   5.699   4.668  0.3922  0.3570  0.8355
  398TIP3    H122685   4.410   5.680   4.761 -0.8881  2.8393  1.2661
  398TIP3    H222686   4.339   5.674   4.628  0.6890 -0.0519  0.4675
  399TIP3   OH222687   4.332   1.537   0.682  0.3831 -0.3842  0.7674
  399TIP3    H122688   4.252   1.548   0.631 -1.0235  1.4020  3.1480
  399TIP3    H222689   4.319   1.456   0.731  0.3359 -0.4549  0.6366
  400TIP3   OH222690   2.275   3.032  12.088 -0.4590 -0.2175  0.1013
  400TIP3    H122691   2.350   2.973  12.093  0.0649  0.4848  0.7316
  400TIP3    H222692   2.237   3.015  12.002  1.3479  0.5143 -0.9053
  401TIP3   OH222693   0.319   2.283   3.407 -0.3180  0.5151 -0.2537
  401TIP3    H122694   0.369   2.269   3.487 -0.4495 -1.3997 -0.4624
  401TIP3    H222695   0.350   2.215   3.347 -1.5078  0.7762 -1.2105
  402TIP3   OH222696   3.501   1.714  16.636  0.4263 -0.2641 -0.2281
  402TIP3    H122697   3.496   1.656  16.560  0.9560  0.3408 -0.7369
  402TIP3    H222698   3.414   1.751  16.645  0.4018 -0.2197 -0.6397
  403TIP3   OH222699   1.429   2.512   6.320 -0.4160 -0.0708  0.2093
  403TIP3    H122700   1.428   2.443   6.252  2.0740  0.2784 -0.2635
  403TIP3    H222701   1.499   2.486   6.379  0.5538  2.0208  0.0479
  404TIP3   OH222702   0.959   6.142  14.146  0.3127 -0.0559 -0.3997
  404TIP3    H122703   1.006   6.217  14.108  0.2488  0.3896  0.3873
  404TIP3    H222704   0.985   6.141  14.238 -0.2329 -0.5780 -0.2452
  405TIP3   OH222705   2.250   5.813  14.852  0.1453 -0.3690 -0.3477
  405TIP3    H122706   2.200   5.831  14.773 -2.0038 -1.1278  0.7680
  405TIP3    H222707   2.312   5.885  14.858 -1.8449  1.4930 -0.9898
  406TIP3   OH222708   3.332   3.670   4.762  0.0866 -0.4117 -0.0928
  406TIP3    H122709   3.372   3.737   4.707  0.0470  0.1816  0.5781
  406TIP3    H222710   3.406   3.635   4.813  0.3716 -1.9726 -1.5247
  407TIP3   OH222711   0.931   1.763  11.009 -0.2508 -0.7283  0.3805
  407TIP3    H122712   0.879   1.761  11.090  0.7527 -1.5153  1.0267
  407TIP3    H222713   1.022   1.760  11.039  0.2724  2.0051 -0.6819
  408TIP3   OH222714   5.986   0.661  13.962 -0.2001  0.0496 -0.5347
  408TIP3    H122715   6.002   0.742  13.913  1.7659  0.3656  0.5058
  408TIP3    H222716   5.941   0.691  14.041 -0.8118 -0.0929 -0.8208
  409TIP3   OH222717   3.722   5.341   3.571 -0.5624 -0.2467  0.1502
  409TIP3    H122718   3.635   5.309   3.591 -0.3370 -0.7884  0.2795
  409TIP3    H222719   3.711   5.393   3.492 -1.3348  1.2785  1.2098
  410TIP3   OH222720   4.466   1.589   2.088 -0.0383 -0.1111 -0.4832
  410TIP3    H122721   4.408   1.644   2.036  3.0998  2.0525 -2.0223
  410TIP3    H222722   4.449   1.616   2.179 -0.8843  0.9638 -0.9380
  411TIP3   OH222723   1.476   3.274   4.846 -0.4255 -1.0976 -0.4502
  411TIP3    H122724   1.401   3.238   4.799 -1.0164 -0.2917 -0.1306
  411TIP3    H222725   1.512   3.199   4.893 -2.3367 -1.1058  1.1442
  412TIP3   OH222726   6.319   2.886   5.265  0.5712  1.0273  0.3724
  412TIP3    H122727   6.404   2.901   5.307  0.2337  1.8023  0.7895
  412TIP3    H222728   6.267   2.839   5.330  0.7882  0.2090 -0.0206
  413TIP3   OH222729   1.566   4.481   4.827 -0.9497  0.0333 -0.0730
  413TIP3    H122730   1.553   4.425   4.751  0.8808 -0.1482 -0.2868
  413TIP3    H222731   1.594   4.565   4.790  1.3548 -0.4704  0.3912
  414TIP3   OH222732   0.513   1.454  16.756  0.6387 -0.6092  1.1265
  414TIP3    H122733   0.483   1.442  16.666  0.7387  1.7030  0.7262
  414TIP3    H222734   0.605   1.430  16.754  0.7925  0.0107  0.4533
  415TIP3   OH222735   5.455   4.746  12.720 -0.1627  0.0056  0.4568
  415TIP3    H122736   5.511   4.822  12.735  0.6263  0.0029 -2.0710
  415TIP3    H222737   5.513   4.671  12.723 -0.4020 -0.2055  0.0129
  416TIP3   OH222738   3.966   5.603   3.139  0.7984  0.0860 -0.0763
  416TIP3    H122739   3.979   5.559   3.223  1.0439 -1.9636 -1.1312
  416TIP3    H222740   3.968   5.532   3.074 -1.1982  1.3633 -1.6625
  417TIP3   OH222741   5.214   0.858  12.936  0.9445  0.1495 -0.6439
  417TIP3    H122742   5.228   0.768  12.967  0.0593  0.4081  0.6122
  417TIP3    H222743   5.199   0.908  13.016  2.9786  1.7446 -1.1778
  418TIP3   OH222744   3.800   2.358   5.415  0.2100 -0.4553 -0.0281
  418TIP3    H122745   3.848   2.399   5.343 -0.5393 -0.8225 -0.7557
  418TIP3    H222746   3.817   2.265   5.404 -0.6511 -0.5878 -0.2917
  419TIP3   OH222747   1.490   1.875  16.793  0.4595  0.1092  0.7419
  419TIP3    H122748   1.556   1.897  16.728  0.8356 -0.9419  0.7499
  419TIP3    H222749   1.424   1.824  16.745 -0.6346  1.5823  0.6204
  420TIP3   OH222750   1.551   1.327   1.092  0.7866  0.2380 -0.0294
  420TIP3    H122751   1.521   1.415   1.070  1.5649  0.3887 -0.5380
  420TIP3    H222752   1.540   1.277   1.011 -0.2794 -0.3240  0.4394
  421TIP3   OH222753   5.955   4.492  15.637  0.3383 -0.3851  0.0405
  421TIP3    H122754   6.036   4.543  15.640 -0.3879  0.7400  1.7525
  421TIP3    H222755   5.935   4.485  15.544  0.4971  2.4632 -0.3033
  422TIP3   OH222756   5.945   1.999   4.561 -0.3997 -0.1242 -0.3949
  422TIP3    H122757   5.961   2.076   4.506 -1.1264  0.0146 -0.4130
  422TIP3    H222758   5.962   1.925   4.503 -0.6047  0.0238 -0.6457
  423TIP3   OH222759   3.774   4.666  11.153  0.0299  0.0955  0.1680
  423TIP3    H122760   3.795   4.619  11.072 -0.8729  1.9340 -1.2008
  423TIP3    H222761   3.714   4.736  11.126 -0.0651  0.9589  2.3840
  424TIP3   OH222762   4.815   2.973  11.736  0.3744 -0.3011 -0.4444
  424TIP3    H122763   4.723   2.991  11.757  0.3488 -1.6794  0.7608
  424TIP3    H222764   4.811   2.899  11.674  0.6520 -3.6283  3.1082
  425TIP3   OH222765   1.233   4.397   4.122  0.6566  0.2311 -0.1236
  425TIP3    H122766   1.219   4.445   4.041 -2.3156  0.7630  0.5762
  425TIP3    H222767   1.229   4.464   4.190  0.3352 -0.5229  0.6196
  426TIP3   OH222768   2.978   2.561  13.460 -0.1444 -0.1744 -0.3723
  426TIP3    H122769   3.062   2.522  13.438  0.0215 -0.2120  0.3219
  426TIP3    H222770   2.930   2.563  13.376  0.7469  0.3760 -0.8802
  427TIP3   OH222771   1.857   1.338  13.309  0.4586  0.1278 -0.0844
  427TIP3    H122772   1.800   1.306  13.239 -1.1363  1.1419  0.6938
  427TIP3    H222773   1.878   1.260  13.360  0.8762 -0.4710 -1.1290
  428TIP3   OH222774   1.010   2.990   2.411 -0.2177 -0.1529  0.0419
  428TIP3    H122775   0.982   2.937   2.337 -0.2129 -1.0988  0.7051
  428TIP3    H222776   1.048   2.928   2.473 -1.9588  0.3255  1.6879
  429TIP3   OH222777   1.288   3.125   4.121 -0.3746 -0.1499  0.0737
  429TIP3    H122778   1.358   3.106   4.059 -0.5507  0.1571 -0.2278
  429TIP3    H222779   1.254   3.211   4.092  0.4538  0.6581  1.4228
  430TIP3   OH222780   6.720   5.693   4.328  0.8563  0.6697  0.1552
  430TIP3    H122781   6.695   5.769   4.276 -1.2699 -0.4129 -0.5102
  430TIP3    H222782   6.664   5.697   4.405 -0.0136 -0.7190 -0.3674
  431TIP3   OH222783   4.135   3.575  12.875  0.5485  0.5404 -0.6868
  431TIP3    H122784   4.060   3.622  12.911 -0.9499  0.4396 -3.3599
  431TIP3    H222785   4.138   3.493  12.924  1.0447  1.8883  1.6863
  432TIP3   OH222786   5.102   2.248  16.411  0.3760  0.3151 -0.3139
  432TIP3    H122787   5.112   2.342  16.428 -0.0856  0.5890 -1.4486
  432TIP3    H222788   5.161   2.231  16.338 -0.3537 -0.0352 -0.8390
  433TIP3   OH222789   0.697   6.777   2.730  0.2665  0.6870 -0.2376
  433TIP3    H122790   0.653   6.842   2.674 -0.3882  1.9633  1.6625
  433TIP3    H222791   0.789   6.781   2.702 -0.2627  0.1559 -2.2238
  434TIP3   OH222792   1.417   3.563  10.918  0.5541  0.5039  0.0685
  434TIP3    H122793   1.412   3.640  10.975  2.0848  0.6040  0.1274
  434TIP3    H222794   1.486   3.585  10.855  0.2414 -0.3842 -0.5973
  435TIP3   OH222795   3.738   3.281   3.738 -0.3487  0.5353 -0.5814
  435TIP3    H122796   3.691   3.225   3.799 -2.4258 -0.8407 -3.2393
  435TIP3    H222797   3.718   3.370   3.767 -0.4266 -0.0529  1.2794
  436TIP3   OH222798   1.964   0.551  12.072 -0.1812 -0.0363  0.0285
  436TIP3    H122799   1.899   0.621  12.085  0.1573  0.3044 -0.0956
  436TIP3    H222800   1.915   0.470  12.086 -0.9314  0.1701 -1.2767
  437TIP3   OH222801   0.474   0.449   5.373  0.5564 -0.1486 -0.0320
  437TIP3    H122802   0.502   0.406   5.292  0.4154  2.0780 -1.3329
  437TIP3    H222803   0.388   0.409   5.391  0.8542 -1.1084 -0.6184
  438TIP3   OH222804   1.649   3.657   2.518  0.4625  0.8324 -0.1331
  438TIP3    H122805   1.589   3.724   2.550 -0.0111  2.1607 -3.3918
  438TIP3    H222806   1.595   3.578   2.511 -0.2225  1.3221 -0.5226
  439TIP3   OH222807   2.709   0.225  14.108  0.3859  0.6425  0.0765
  439TIP3    H122808   2.725   0.286  14.035  0.8719  2.1328  1.3751
  439TIP3    H222809   2.769   0.152  14.091 -2.2621 -1.0610 -3.1211
  440TIP3   OH222810   4.062   4.934   1.682 -0.1889  0.0995  0.5141
  440TIP3    H122811   4.026   4.849   1.706  0.2878  0.2952  2.0071
  440TIP3    H222812   3.986   4.992   1.676 -0.5033 -0.3785 -0.3980
  441TIP3   OH222813   5.301   4.154  12.458 -0.3498  0.4758 -0.0810
  441TIP3    H122814   5.397   4.151  12.458 -0.1457  3.3297 -0.5908
  441TIP3    H222815   5.278   4.168  12.366 -1.1245  1.3002  0.2244
  442TIP3   OH222816   3.827   3.739   5.042 -0.4735  0.0485  0.0380
  442TIP3    H122817   3.851   3.662   4.990  2.4256  0.9745 -0.1857
  442TIP3    H222818   3.858   3.718   5.130 -1.8919  0.0184  0.5426
  443TIP3   OH222819   5.113   0.004  14.320  0.5117  0.0350  0.1959
  443TIP3    H122820   5.097   0.087  14.276  0.2470 -0.9453 -1.6657
  443TIP3    H222821   5.114  -0.061  14.250  4.2466 -1.1552  1.0970
  444TIP3   OH222822   1.981   5.843  12.974 -1.0151  0.2026 -0.5490
  444TIP3    H122823   2.067   5.867  12.941 -0.2067  1.5233  2.1907
  444TIP3    H222824   1.934   5.809  12.898  1.4209  0.7714 -2.4220
  445TIP3   OH222825   3.618   0.571   4.765  0.3162  0.4269  0.4280
  445TIP3    H122826   3.619   0.666   4.776 -0.9332  0.4382  0.5282
  445TIP3    H222827   3.617   0.536   4.854 -0.7264  0.3650  0.4090
  446TIP3   OH222828   2.055   2.929   3.586  0.2492 -0.0374 -1.0026
  446TIP3    H122829   2.038   3.008   3.638  0.9649 -1.0940  0.9327
  446TIP3    H222830   1.970   2.884   3.583  0.4631 -0.5856  0.3897
  447TIP3   OH222831   2.511   6.241  11.445 -0.3088 -0.2552 -0.0977
  447TIP3    H122832   2.581   6.260  11.507  1.0807  0.7030 -1.8698
  447TIP3    H222833   2.447   6.191  11.495  0.7622  0.4525  2.0749
  448TIP3   OH222834   4.443   3.528  16.831 -0.2552 -0.6644 -0.1094
  448TIP3    H122835   4.377   3.513  16.763 -1.2345 -0.8820  0.8735
  448TIP3    H222836   4.491   3.446  16.835 -0.9323 -1.0502  0.2413
  449TIP3   OH222837   1.300   3.119   2.612  0.3340  0.0447 -0.4785
  449TIP3    H122838   1.366   3.092   2.549  0.8801 -0.2079  0.1796
  449TIP3    H222839   1.282   3.040   2.663 -0.0540  0.2545 -0.2832
  450TIP3   OH222840   4.222   5.476   1.698  0.3118 -0.4902 -0.1359
  450TIP3    H122841   4.275   5.496   1.621 -0.7660 -0.0436 -0.7878
  450TIP3    H222842   4.180   5.393   1.677 -1.7610  0.7107 -1.0646
  451TIP3   OH222843   3.837   5.118   1.685  0.1366 -0.0470  0.5085
  451TIP3    H122844   3.805   5.168   1.760 -0.7471  1.5913 -0.8891
  451TIP3    H222845   3.759   5.077   1.648  0.2683  0.6188 -0.5353
  452TIP3   OH222846   5.192   6.344  13.117  0.0881  0.2899  0.0692
  452TIP3    H122847   5.187   6.437  13.092  0.6419  0.5631  0.9526
  452TIP3    H222848   5.170   6.297  13.036  1.3113  1.1555 -0.8030
  453TIP3   OH222849   4.175   6.624  13.807  0.2793 -0.0854  0.3769
  453TIP3    H122850   4.105   6.560  13.796 -0.7360  0.8054  1.3899
  453TIP3    H222851   4.147   6.699  13.755 -1.2723  1.5736  3.3442
  454TIP3   OH222852   2.198   0.923   2.643  0.2996  0.1726 -0.3543
  454TIP3    H122853   2.166   0.917   2.553 -0.5748 -1.0353  0.0000
  454TIP3    H222854   2.119   0.943   2.695  0.5014 -0.6899  0.3016
  455TIP3   OH222855   0.759   5.671   1.186 -0.2275 -0.0039  0.3729
  455TIP3    H122856   0.692   5.724   1.230 -0.9305 -1.0687  0.6239
  455TIP3    H222857   0.816   5.735   1.144 -0.8377  0.9630  0.9763
  456TIP3   OH222858   2.570   2.224   6.214 -0.6034 -0.0938  0.5680
  456TIP3    H122859   2.661   2.251   6.224 -0.3481  0.3430 -2.0836
  456TIP3    H222860   2.572   2.129   6.225  0.5600 -0.3357 -1.2348
  457TIP3   OH222861   0.421   3.100  13.639  0.5065  0.1945 -0.2471
  457TIP3    H122862   0.509   3.064  13.635  0.0373 -0.9449 -0.8463
  457TIP3    H222863   0.402   3.108  13.732  1.1981  0.3505 -0.1152
  458TIP3   OH222864   5.700   5.227  13.314 -0.3614 -0.0488  0.4323
  458TIP3    H122865   5.726   5.206  13.225  1.8310 -1.1274  1.2628
  458TIP3    H222866   5.635   5.297  13.304  0.9127  0.9153 -1.9507
  459TIP3   OH222867   5.108   6.335   5.054 -0.0289 -0.0602 -0.1885
  459TIP3    H122868   5.086   6.245   5.030 -2.6783  0.5916 -0.4890
  459TIP3    H222869   5.126   6.331   5.148  1.5253 -1.1416 -0.4998
  460TIP3   OH222870   3.729   3.385   3.059 -0.0745  0.7479  0.5578
  460TIP3    H122871   3.695   3.464   3.101 -1.3579 -0.0746  1.1230
  460TIP3    H222872   3.747   3.326   3.132 -0.0657  0.1586  0.0848
  461TIP3   OH222873   0.918   0.167  15.101  0.0269 -0.7927 -0.3530
  461TIP3    H122874   0.953   0.251  15.071 -0.5849  0.2641  1.7117
  461TIP3    H222875   0.980   0.137  15.168  0.0959 -1.8883 -0.8768
  462TIP3   OH222876   4.475   6.697   4.413  0.1841  0.5738 -0.3385
  462TIP3    H122877   4.509   6.741   4.335 -0.8639  1.2103 -0.4512
  462TIP3    H222878   4.519   6.611   4.413  0.5601  0.7514 -1.3466
  463TIP3   OH222879   4.339   1.739   6.632 -0.0632  0.3950 -0.0847
  463TIP3    H122880   4.409   1.676   6.613 -1.1022 -0.3615 -1.6875
  463TIP3    H222881   4.288   1.699   6.702  0.0843  0.0898 -0.1521
  464TIP3   OH222882   1.505   4.818  12.722  0.0290 -0.1761 -0.4043
  464TIP3    H122883   1.444   4.872  12.774  1.1391 -0.3238  1.1075
  464TIP3    H222884   1.470   4.729  12.730  0.4767 -0.2786  0.5535
  465TIP3   OH222885   5.448   5.312   3.169 -0.2199 -0.1106 -0.1698
  465TIP3    H122886   5.444   5.266   3.253  2.0185 -0.5760 -0.2473
  465TIP3    H222887   5.540   5.336   3.160 -0.3910 -0.1642 -2.5522
  466TIP3   OH222888   3.756   4.373   0.247  0.2156  0.0510 -0.8134
  466TIP3    H122889   3.843   4.355   0.283  0.2148 -1.2203 -1.4238
  466TIP3    H222890   3.709   4.290   0.253 -0.9346  0.6861 -0.6035
  467TIP3   OH222891   5.970   1.314   4.357 -0.3646 -1.0132 -0.2460
  467TIP3    H122892   5.961   1.403   4.325 -0.9985 -1.2439 -0.7436
  467TIP3    H222893   5.901   1.305   4.424  2.1165  0.0627  2.6969
  468TIP3   OH222894   2.803   4.671  10.537  0.1201 -0.1725  0.4544
  468TIP3    H122895   2.807   4.766  10.535  1.6428 -0.1725  1.7066
  468TIP3    H222896   2.794   4.645  10.445 -0.0152  1.1550  0.0748
  469TIP3   OH222897   1.684   4.526  13.438 -0.6466  0.1669 -0.6800
  469TIP3    H122898   1.617   4.594  13.426 -0.0735  0.9962  0.6313
  469TIP3    H222899   1.748   4.542  13.369  0.1644  1.8322  0.4029
  470TIP3   OH222900   4.104   4.710   2.408 -0.0243  0.5121  0.4398
  470TIP3    H122901   4.017   4.690   2.442 -0.3229 -0.9405 -1.0202
  470TIP3    H222902   4.164   4.668   2.471 -0.3552  1.3984  1.3729
  471TIP3   OH222903   1.290   4.644   1.941  0.2366  0.4222  0.2206
  471TIP3    H122904   1.213   4.690   1.975 -1.3012  0.5688 -3.0725
  471TIP3    H222905   1.255   4.562   1.905  1.4571  0.6875 -1.7599
  472TIP3   OH222906   0.772   0.825   4.864  0.3079  0.0077  0.6691
  472TIP3    H122907   0.784   0.920   4.872 -0.9751  0.0366  2.9958
  472TIP3    H222908   0.719   0.815   4.785  0.5108  1.2298  0.3524
  473TIP3   OH222909   1.955   3.059   5.867  0.0719 -0.2714  0.1226
  473TIP3    H122910   1.895   3.013   5.927 -0.2330  1.7552  1.4592
  473TIP3    H222911   1.926   3.033   5.780 -2.3349  0.0803  0.7342
  474TIP3   OH222912   5.571   3.416   0.301  0.6498 -0.2245 -0.5855
  474TIP3    H122913   5.587   3.353   0.371  0.7931  1.7286  1.2603
  474TIP3    H222914   5.595   3.370   0.221  0.0266 -2.7260  0.5716
  475TIP3   OH222915   2.286   1.947   0.352 -0.5906  0.1155 -0.6382
  475TIP3    H122916   2.335   1.887   0.295  1.9474  1.8338 -0.4155
  475TIP3    H222917   2.289   1.906   0.438  1.4424  0.6447 -0.4081
  476TIP3   OH222918   3.633   2.925   2.523  0.6322  0.0895 -0.0661
  476TIP3    H122919   3.556   2.876   2.494  0.4616  0.5524 -0.4072
  476TIP3    H222920   3.688   2.931   2.445  0.4942  0.7345 -0.1174
  477TIP3   OH222921   6.754   0.717   3.530 -0.3008 -0.4867 -0.2298
  477TIP3    H122922   6.725   0.634   3.568 -0.0302 -0.7494 -0.5911
  477TIP3    H222923   6.709   0.784   3.582 -1.0857 -0.8714 -0.4011
  478TIP3   OH222924   4.077   1.999   2.814  0.9364 -0.5944  0.1666
  478TIP3    H122925   4.031   1.951   2.745 -0.3444 -1.8690  1.8235
  478TIP3    H222926   4.141   1.936   2.848  0.3371 -0.6186  1.3009
  479TIP3   OH222927   6.012   2.883  13.669  0.2462 -0.0821  0.2921
  479TIP3    H122928   5.980   2.971  13.647  2.2623  1.1953  2.1112
  479TIP3    H222929   6.106   2.887  13.653  0.6618 -1.3232  2.1278
  480TIP3   OH222930   4.334   1.386   6.612  0.6272 -0.2152 -0.6232
  480TIP3    H122931   4.368   1.318   6.671  0.2872 -0.0768 -0.2610
  480TIP3    H222932   4.412   1.434   6.583  0.7789 -0.1124 -0.0630
  481TIP3   OH222933   0.168   3.243  15.093 -0.3490  0.1643 -0.2174
  481TIP3    H122934   0.204   3.195  15.018 -1.0343 -0.1467 -0.3557
  481TIP3    H222935   0.147   3.176  15.158  1.3213  0.5275  0.7419
  482TIP3   OH222936   1.992   1.617   5.518 -0.3978 -0.1631  0.2396
  482TIP3    H122937   1.927   1.629   5.588 -1.2042  0.9231 -0.6601
  482TIP3    H222938   2.037   1.536   5.542 -3.2772 -2.0119 -0.0047
  483TIP3   OH222939   0.462   4.912   0.932  0.0418  0.1959 -0.2824
  483TIP3    H122940   0.372   4.898   0.961 -0.2120  0.4845 -0.9174
  483TIP3    H222941   0.488   4.995   0.971  0.2485 -0.1845  0.4015
  484TIP3   OH222942   4.493   0.263  16.071 -0.0008 -0.2239  0.2531
  484TIP3    H122943   4.500   0.176  16.031  0.9011  0.0934 -0.2996
  484TIP3    H222944   4.563   0.264  16.136  2.6577  1.4566 -2.4072
  485TIP3   OH222945   5.168   3.358   3.149  0.1625  0.7947  0.0009
  485TIP3    H122946   5.173   3.282   3.207 -1.7469  1.4565  1.1312
  485TIP3    H222947   5.083   3.350   3.107  0.4304  1.7129 -0.7369
  486TIP3   OH222948   6.751   5.674   6.558  0.6606  0.4341 -0.0298
  486TIP3    H122949   6.828   5.653   6.611  2.5759  0.9401 -2.4410
  486TIP3    H222950   6.732   5.766   6.579  0.6076  0.2669  0.6779
  487TIP3   OH222951   4.051   5.434  15.893  0.3503 -0.2988  0.4387
  487TIP3    H122952   4.106   5.479  15.829 -1.8653  0.5926 -0.9472
  487TIP3    H222953   4.109   5.369  15.932  2.5027  0.9111 -0.5536
  488TIP3   OH222954   4.293   3.611  14.767 -0.3102  0.2914  0.1560
  488TIP3    H122955   4.271   3.561  14.689 -0.0070 -1.6045  1.2337
  488TIP3    H222956   4.343   3.551  14.821  0.0149  1.7536  1.5569
  489TIP3   OH222957   6.566   3.925   4.935 -0.0807 -0.7761 -0.0501
  489TIP3    H122958   6.569   3.936   5.030 -0.7715  1.3251 -0.2083
  489TIP3    H222959   6.548   3.832   4.922  0.1414 -1.1309  1.8604
  490TIP3   OH222960   1.621   0.270  16.198 -0.6373  0.7416  0.7242
  490TIP3    H122961   1.586   0.340  16.252 -1.2059  1.0847 -0.0651
  490TIP3    H222962   1.712   0.294  16.183 -0.4941  0.6843  1.4425
  491TIP3   OH222963   0.339   6.753   0.474 -0.5519 -0.1102  0.1784
  491TIP3    H122964   0.262   6.802   0.502  0.0250  1.2524 -0.5356
  491TIP3    H222965   0.413   6.800   0.512  0.1343  0.6834 -1.9894
  492TIP3   OH222966   0.844   5.156  11.371  0.0466 -0.2240  0.4448
  492TIP3    H122967   0.842   5.090  11.441 -3.7077  1.1345  1.8802
  492TIP3    H222968   0.840   5.105  11.290  4.2383 -1.8308  1.0141
  493TIP3   OH222969   4.197   1.302  15.001  0.1317  0.0700 -0.4730
  493TIP3    H122970   4.250   1.227  15.028 -1.6410 -1.0463  0.0290
  493TIP3    H222971   4.156   1.333  15.082  0.1910  1.0912 -0.8130
  494TIP3   OH222972   3.404   0.977  14.753  0.6879 -0.3328 -0.1562
  494TIP3    H122973   3.317   1.015  14.762  0.5587 -0.8093  0.6737
  494TIP3    H222974   3.438   1.014  14.672 -0.3285 -0.2306 -0.5453
  495TIP3   OH222975   1.872   2.965   4.008  0.6414 -0.1729  0.2571
  495TIP3    H122976   1.836   2.905   3.943 -0.1201 -0.6910  1.1381
  495TIP3    H222977   1.966   2.967   3.989  0.8465 -2.4279  0.8216
  496TIP3   OH222978   6.459   1.785  15.437 -0.1549 -0.2206  0.2300
  496TIP3    H122979   6.519   1.852  15.472  0.0150 -0.4623  0.4077
  496TIP3    H222980   6.411   1.754  15.514 -0.7817  0.2389  0.0313
  497TIP3   OH222981   4.224   0.345   0.627 -0.3970 -0.7400  0.5507
  497TIP3    H122982   4.299   0.403   0.647 -0.1746 -1.4879  2.0406
  497TIP3    H222983   4.148   0.394   0.657 -0.3259 -0.7349  0.7237
  498TIP3   OH222984   4.304   0.523  11.180  0.4296 -0.0950  0.2118
  498TIP3    H122985   4.376   0.538  11.118  0.5225  0.2106  0.3930
  498TIP3    H222986   4.329   0.442  11.226  1.2079  0.5880  1.0364
  499TIP3   OH222987   4.518   4.493  12.849 -0.1738  0.0004  0.1674
  499TIP3    H122988   4.506   4.446  12.766 -0.8976  1.0832 -0.3692
  499TIP3    H222989   4.602   4.462  12.882  0.1889 -0.3656 -1.0382
  500TIP3   OH222990   4.489   6.609  10.996  0.0147 -0.2830  0.0436
  500TIP3    H122991   4.461   6.699  10.976  1.0654  0.2936  1.0328
  500TIP3    H222992   4.455   6.593  11.084 -1.8754 -1.6301 -0.8572
  501TIP3   OH222993   3.310   5.776  12.493 -0.2385  0.0683  0.0224
  501TIP3    H122994   3.250   5.798  12.421  0.2364  1.6708  0.0651
  501TIP3    H222995   3.255   5.774  12.571 -0.5292 -0.3065 -0.1896
  502TIP3   OH222996   5.435   1.686   1.088 -0.0180 -0.0528 -0.4286
  502TIP3    H122997   5.414   1.597   1.060 -1.8026 -0.4182  1.7771
  502TIP3    H222998   5.530   1.692   1.080 -0.0357 -1.5117 -2.3520
  503TIP3   OH222999   1.959   6.821   1.420  0.0486  0.4093  0.3275
  503TIP3    H123000   2.025   6.858   1.478 -0.8432  2.5659  0.0299
  503TIP3    H223001   2.000   6.822   1.334  0.4515 -0.4606  0.4937
  504TIP3   OH223002   4.296   3.490  10.754  0.9397 -0.4489 -0.1577
  504TIP3    H123003   4.345   3.408  10.742  1.5801 -0.0955  0.0043
  504TIP3    H223004   4.215   3.463  10.798  1.7099 -0.8337  1.0793
  505TIP3   OH223005   1.076   5.626   0.081 -0.1871  0.5611 -0.0519
  505TIP3    H123006   1.007   5.688   0.104  0.6454  1.5435 -0.1303
  505TIP3    H223007   1.157   5.669   0.109  0.3848 -0.6604  0.2326
  506TIP3   OH223008   4.891   4.854  14.723  0.0750  0.2014 -0.3871
  506TIP3    H123009   4.838   4.833  14.799  1.8964 -1.2711  0.5891
  506TIP3    H223010   4.860   4.795  14.654  2.0191 -2.6107  0.9542
  507TIP3   OH223011   5.850   1.735   3.941  0.2594 -0.2125  0.3724
  507TIP3    H123012   5.924   1.726   3.882 -1.1897 -1.4386 -1.4090
  507TIP3    H223013   5.828   1.645   3.966 -0.5179  0.1330  1.0067
  508TIP3   OH223014   6.044   2.363  11.560  0.2294  0.5061 -0.4034
  508TIP3    H123015   5.953   2.381  11.583  0.1415  1.7497 -1.5630
  508TIP3    H223016   6.095   2.425  11.611  0.4255 -0.0451  0.0837
  509TIP3   OH223017   4.377   5.293   2.443  0.1390  0.3729 -0.4231
  509TIP3    H123018   4.287   5.289   2.475 -0.1344 -1.9788 -1.2537
  509TIP3    H223019   4.369   5.310   2.350  0.2667 -2.9518 -1.1600
  510TIP3   OH223020   3.278   0.795   5.985  0.0154 -0.6046  0.3333
  510TIP3    H123021   3.374   0.797   5.979 -0.0341 -1.1997 -0.9443
  510TIP3    H223022   3.253   0.888   5.985  0.4899 -0.4041 -1.9975
  511TIP3   OH223023   2.790   6.445  12.974  0.5008 -0.1838  0.3535
  511TIP3    H123024   2.763   6.503  13.045  0.0212  0.2828 -0.2000
  511TIP3    H223025   2.742   6.477  12.897  1.4364 -0.3318 -0.3078
  512TIP3   OH223026   3.878   6.735  12.885 -0.0992 -0.0665 -0.2863
  512TIP3    H123027   3.843   6.674  12.950  0.4189  0.9673  1.0083
  512TIP3    H223028   3.950   6.779  12.930  1.0024 -0.0785 -1.9337
  513TIP3   OH223029   2.909   4.331  13.387 -0.5370 -0.0233  0.1578
  513TIP3    H123030   2.842   4.291  13.442  0.7508  0.7381  2.4325
  513TIP3    H223031   2.883   4.423  13.379 -0.8847 -0.1931 -0.8402
  514TIP3   OH223032   1.117   3.106   4.916  0.5769  0.4734 -0.1308
  514TIP3    H123033   1.078   3.029   4.876  0.1243  0.5833  0.0970
  514TIP3    H223034   1.144   3.160   4.842  0.7123  0.1898 -0.2891
  515TIP3   OH223035   2.101   4.699   4.611 -0.9224  0.1932 -0.3186
  515TIP3    H123036   2.045   4.624   4.632 -1.7502  1.1155  0.9089
  515TIP3    H223037   2.053   4.746   4.543 -1.4621  0.7562  0.4368
  516TIP3   OH223038   1.181   5.004   4.217  0.2326 -0.4481 -0.6675
  516TIP3    H123039   1.131   4.965   4.289  0.7064  1.0694  0.5295
  516TIP3    H223040   1.267   5.020   4.254  0.0689  1.6810 -1.0930
  517TIP3   OH223041   4.459   4.624   1.554 -0.2247  0.1826 -0.4882
  517TIP3    H123042   4.535   4.593   1.602 -0.0466 -0.1337 -0.9778
  517TIP3    H223043   4.490   4.702   1.508 -0.1286 -0.0837 -0.8798
  518TIP3   OH223044   6.348   3.798   5.802  0.4898 -0.2449 -0.0797
  518TIP3    H123045   6.282   3.862   5.775  0.0333  0.2731  2.0318
  518TIP3    H223046   6.422   3.851   5.833  0.0573 -0.6584  1.8097
  519TIP3   OH223047   6.760   1.088  16.870 -0.4623  0.6470 -0.0028
  519TIP3    H123048   6.694   1.154  16.848 -1.0824  0.1090  0.2347
  519TIP3    H223049   6.750   1.022  16.802  1.5085  1.7116 -1.4440
  520TIP3   OH223050   0.877   3.555   5.125 -0.5480 -0.6125  0.7791
  520TIP3    H123051   0.790   3.594   5.124 -0.0949  0.4418  1.2721
  520TIP3    H223052   0.877   3.494   5.051 -1.9277 -1.1492  1.1778
  521TIP3   OH223053   1.573   5.783   1.823  0.6751 -0.0377  0.5075
  521TIP3    H123054   1.531   5.789   1.909  2.6296 -0.1625  1.5150
  521TIP3    H223055   1.641   5.716   1.833  3.0902  2.1550 -0.1591
  522TIP3   OH223056   6.429   0.128  17.038 -0.6272  0.6362  0.0965
  522TIP3    H123057   6.438   0.221  17.060 -0.9194  0.5798  0.4669
  522TIP3    H223058   6.485   0.083  17.102 -2.0123  0.4207  1.2133
  523TIP3   OH223059   4.642   6.256   3.037 -0.0709  0.1552 -0.0829
  523TIP3    H123060   4.712   6.321   3.047  3.0731 -2.6517 -1.6670
  523TIP3    H223061   4.582   6.295   2.974  1.7746  1.4846 -1.1353
  524TIP3   OH223062   6.315   0.190  14.537 -0.2910 -0.2403 -0.7775
  524TIP3    H123063   6.376   0.145  14.596  1.5367  1.4717 -1.2302
  524TIP3    H223064   6.253   0.234  14.596  0.7611  0.4312 -0.1308
  525TIP3   OH223065   5.925   4.354  14.593 -0.2590 -0.3013  0.0999
  525TIP3    H123066   5.830   4.342  14.594 -0.2419 -0.4571  0.9861
  525TIP3    H223067   5.949   4.354  14.500 -1.1909  0.2725 -0.1526
  526TIP3   OH223068   4.117   3.999   5.344  0.6570  0.4708 -0.4318
  526TIP3    H123069   4.086   4.008   5.435 -0.3372  0.0701 -0.7085
  526TIP3    H223070   4.178   3.925   5.347  0.3326  0.2097 -0.1526
  527TIP3   OH223071   5.719   6.116  14.639 -0.1809 -0.2722  0.5062
  527TIP3    H123072   5.758   6.145  14.722  0.2344  1.7110 -0.3125
  527TIP3    H223073   5.688   6.197  14.598 -1.3095 -1.3355 -0.8123
  528TIP3   OH223074   5.761   2.713  14.316 -0.6623 -0.1219 -0.0924
  528TIP3    H123075   5.785   2.643  14.254 -0.5271  0.1060 -0.2963
  528TIP3    H223076   5.750   2.667  14.400  0.4316 -0.2439  0.0003
  529TIP3   OH223077   5.587   3.669   2.326 -0.0885 -0.4427 -0.0139
  529TIP3    H123078   5.679   3.695   2.314  0.2895 -1.9573 -0.6731
  529TIP3    H223079   5.590   3.603   2.395 -0.4855 -1.4150 -0.9013
  530TIP3   OH223080   1.187   3.473  13.851  0.3808  0.3837  0.2767
  530TIP3    H123081   1.233   3.540  13.900  1.1648  0.7678 -0.9391
  530TIP3    H223082   1.177   3.509  13.763 -1.4948 -0.0445  0.2580
  531TIP3   OH223083   1.941   2.038   2.060  0.3182  0.3912  0.2062
  531TIP3    H123084   1.850   2.061   2.075  0.0202 -1.3199  1.3371
  531TIP3    H223085   1.945   2.012   1.968 -0.5343 -0.2760  0.3442
  532TIP3   OH223086   0.525   5.068  11.528 -0.2066  0.0520  0.2628
  532TIP3    H123087   0.488   5.156  11.529  0.3933  0.4072  3.3005
  532TIP3    H223088   0.609   5.077  11.573 -1.0298 -2.3192  2.5630
  533TIP3   OH223089   2.914   3.507   5.179  0.1931  0.7716 -0.2395
  533TIP3    H123090   2.941   3.500   5.271  0.9965  1.5054 -0.4070
  533TIP3    H223091   2.818   3.505   5.183  0.1855  1.6892  0.7173
  534TIP3   OH223092   2.473   0.420   6.261 -0.0915  0.1600 -0.3741
  534TIP3    H123093   2.473   0.515   6.248  0.2932  0.2895  0.5024
  534TIP3    H223094   2.437   0.408   6.349 -0.6753 -0.5475 -0.6962
  535TIP3   OH223095   2.989   1.204  14.719 -0.0201 -0.2069  0.4628
  535TIP3    H123096   3.034   1.127  14.753 -1.5187 -1.1465  0.3831
  535TIP3    H223097   3.053   1.245  14.661  1.2579 -0.6362  1.5114
  536TIP3   OH223098   2.433   4.406   3.539 -0.0199  0.6023  0.1013
  536TIP3    H123099   2.385   4.488   3.523 -0.9716  0.0989  0.2849
  536TIP3    H223100   2.508   4.433   3.592 -1.1659  1.1803  1.5258
  537TIP3   OH223101   0.001   6.268   1.832 -0.0984 -0.0305 -0.0140
  537TIP3    H123102   0.079   6.263   1.888  0.7665  1.4323 -1.0192
  537TIP3    H223103   0.034   6.251   1.744 -1.2986 -1.4197 -0.2311
  538TIP3   OH223104   3.069   0.286   0.072 -0.0139 -0.4757 -0.1525
  538TIP3    H123105   3.086   0.301   0.165 -0.4427 -1.1956  0.0453
  538TIP3    H223106   3.139   0.334   0.027 -1.6774  2.7296  0.4018
  539TIP3   OH223107   3.228   0.742   3.095 -0.9689 -0.1427 -0.0950
  539TIP3    H123108   3.252   0.683   3.167 -0.5349  0.4603  0.2609
  539TIP3    H223109   3.220   0.684   3.019 -0.3645 -0.6375  0.2074
  540TIP3   OH223110   4.230   1.049  15.263 -0.0914 -0.4601 -0.1371
  540TIP3    H123111   4.276   1.084  15.339  0.5318 -0.2052 -0.6220
  540TIP3    H223112   4.143   1.027  15.296 -0.7155  2.0727  0.0502
  541TIP3   OH223113   5.862   1.373  13.295 -0.4312  0.2775  0.2545
  541TIP3    H123114   5.910   1.453  13.316  0.8004 -0.6828  1.2384
  541TIP3    H223115   5.835   1.338  13.380 -0.2845 -0.7503 -0.1110
  542TIP3   OH223116   6.849   4.432   4.885 -0.0822 -0.0554  0.6316
  542TIP3    H123117   6.911   4.496   4.921  3.7657 -2.0808 -1.7151
  542TIP3    H223118   6.817   4.473   4.804 -1.7737  0.8755  1.7055
  543TIP3   OH223119   4.056   1.763   3.482 -0.1654  0.0301 -0.4607
  543TIP3    H123120   4.073   1.691   3.543  0.2710  1.2116  0.8767
  543TIP3    H223121   4.035   1.838   3.539  0.7130  1.2992 -1.7374
  544TIP3   OH223122   6.318   1.141  10.756  0.2856 -0.1658 -0.2276
  544TIP3    H123123   6.241   1.118  10.703  0.2331 -0.1202 -0.1698
  544TIP3    H223124   6.392   1.102  10.708  0.5111  1.7825 -1.5470
  545TIP3   OH223125   5.830   5.043  14.754 -0.3238 -0.0398  0.2476
  545TIP3    H123126   5.871   5.062  14.669 -0.7726  0.5490  0.1546
  545TIP3    H223127   5.823   4.948  14.756 -0.8774 -0.0368 -0.6547
  546TIP3   OH223128   5.252   6.503  16.589  0.0433  0.2570  0.2079
  546TIP3    H123129   5.320   6.570  16.583 -0.1448  0.5042  0.7847
  546TIP3    H223130   5.291   6.425  16.549  0.3709  0.6257 -0.1947
  547TIP3   OH223131   6.183   5.871  16.559 -0.2673  0.1267  0.2966
  547TIP3    H123132   6.211   5.800  16.502 -2.0463 -1.0698  0.8321
  547TIP3    H223133   6.186   5.834  16.648 -1.1331  0.7137  0.5900
  548TIP3   OH223134   2.745   2.889  15.319 -0.0357  0.0417  0.9874
  548TIP3    H123135   2.727   2.894  15.225  1.1167 -1.5091  0.6486
  548TIP3    H223136   2.692   2.814  15.349 -0.0420  0.2438  1.4957
  549TIP3   OH223137   5.459   2.689  10.930 -0.1641  0.1490  0.1161
  549TIP3    H123138   5.480   2.636  10.853 -2.4393  1.1585 -1.3151
  549TIP3    H223139   5.467   2.779  10.899 -0.0252  0.5989  1.4261
  550TIP3   OH223140   3.521   4.797  11.015  0.6240 -0.0377 -0.6398
  550TIP3    H123141   3.430   4.800  11.044  0.7828 -3.4066  0.6968
  550TIP3    H223142   3.516   4.799  10.919 -0.6785  1.3541 -0.5803
  551TIP3   OH223143   3.475   3.267  13.096  0.2075  0.2179  0.4064
  551TIP3    H123144   3.427   3.192  13.060 -2.1459  0.7209  2.2084
  551TIP3    H223145   3.467   3.335  13.029 -0.7255 -0.0622  0.2148
  552TIP3   OH223146   0.455   5.119  14.676 -0.2962  0.1893  0.3859
  552TIP3    H123147   0.497   5.085  14.597  0.4889 -0.0275  0.8855
  552TIP3    H223148   0.519   5.106  14.745 -1.4219 -0.7274  1.3043
  553TIP3   OH223149   6.609   5.506  11.177  0.7942  0.5722 -0.2922
  553TIP3    H123150   6.580   5.486  11.266  0.7763  0.5929 -0.2931
  553TIP3    H223151   6.703   5.487  11.178  0.3058 -2.3852 -1.1110
  554TIP3   OH223152   5.989   5.758   2.094 -0.0049 -0.2880 -0.0605
  554TIP3    H123153   6.023   5.680   2.138  0.3413 -0.9362 -1.4307
  554TIP3    H223154   5.917   5.725   2.040 -1.6064  0.7646  1.3272
  555TIP3   OH223155   2.595   6.740   6.508 -0.0894  0.0029 -0.0167
  555TIP3    H123156   2.634   6.653   6.502 -0.3426 -0.0567 -0.7902
  555TIP3    H223157   2.529   6.743   6.439 -0.1723  0.7649  0.0819
  556TIP3   OH223158   2.522   3.708  11.447 -0.3195  0.6986 -0.1164
  556TIP3    H123159   2.519   3.612  11.450  0.1138  0.6166 -1.7192
  556TIP3    H223160   2.455   3.736  11.509 -0.2579 -0.6327  0.5858
  557TIP3   OH223161   2.962   3.912  14.978 -0.3189 -0.0778  0.1915
  557TIP3    H123162   2.985   3.866  14.898 -0.4978  0.9495 -0.4724
  557TIP3    H223163   2.883   3.868  15.009 -0.4737 -0.2410 -0.4163
  558TIP3   OH223164   5.796   0.049  11.920 -0.4553  0.1544  0.3506
  558TIP3    H123165   5.715  -0.002  11.929 -0.2116 -1.1925 -3.2000
  558TIP3    H223166   5.769   0.139  11.933 -2.2682 -0.3789  0.5542
  559TIP3   OH223167   6.569   3.952   5.863  0.2588  0.5837  0.2828
  559TIP3    H123168   6.578   3.978   5.955 -0.2154 -0.6448  0.6973
  559TIP3    H223169   6.648   3.985   5.821  0.0606  1.9579  0.9273
  560TIP3   OH223170   4.568   1.591   0.852  0.6472  0.1095  0.0624
  560TIP3    H123171   4.600   1.681   0.866  0.2133  0.0197  1.8199
  560TIP3    H223172   4.480   1.603   0.817  0.1068  0.4191  1.4447
  561TIP3   OH223173   6.105   0.665  12.355  0.0117  0.1811  0.5943
  561TIP3    H123174   6.145   0.751  12.343  0.6287  0.4672  3.8411
  561TIP3    H223175   6.015   0.684  12.381 -0.3272 -0.2602 -0.2025
  562TIP3   OH223176   3.234   0.447   0.902 -0.1388  0.2689 -0.2994
  562TIP3    H123177   3.201   0.362   0.931  0.3269  0.7127  1.6617
  562TIP3    H223178   3.157   0.504   0.905 -0.9858 -0.4253 -3.6717
  563TIP3   OH223179   1.809   4.256   0.928 -0.1990  0.1659 -0.4356
  563TIP3    H123180   1.827   4.197   0.855  0.1251  0.1499 -0.3441
  563TIP3    H223181   1.783   4.197   0.999  1.7298 -0.0247  0.1630
  564TIP3   OH223182   4.155   0.955  12.274  0.1269  0.5283 -0.0025
  564TIP3    H123183   4.229   0.965  12.214 -0.3923 -0.8792 -0.9367
  564TIP3    H223184   4.172   0.872  12.319 -1.4532 -0.4566 -1.1339
  565TIP3   OH223185   5.406   5.285  13.659  0.2157  0.3599  0.0220
  565TIP3    H123186   5.446   5.312  13.742  0.0016 -1.6742  0.8455
  565TIP3    H223187   5.453   5.337  13.593  3.1023 -0.6538  1.0792
  566TIP3   OH223188   4.564   1.534   6.584 -0.2837 -0.0996 -0.2601
  566TIP3    H123189   4.620   1.612   6.589  0.4058 -0.6050  0.1677
  566TIP3    H223190   4.625   1.460   6.586 -0.9899 -0.6869  0.9195
  567TIP3   OH223191   5.390   2.236   2.184  0.0897 -0.0146 -0.5404
  567TIP3    H123192   5.475   2.261   2.148  0.0464  0.8716 -0.0548
  567TIP3    H223193   5.393   2.263   2.276 -0.7490  0.1382 -0.5432
  568TIP3   OH223194   2.687   4.530  12.255 -0.0358  0.4983 -0.2379
  568TIP3    H123195   2.706   4.471  12.182  2.7173 -0.8825  1.4426
  568TIP3    H223196   2.653   4.472  12.324 -0.2479  1.3774  0.4128
  569TIP3   OH223197   3.712   4.634   0.135 -0.1770  0.2142  0.2695
  569TIP3    H123198   3.657   4.623   0.057 -0.8145  1.4530  0.5084
  569TIP3    H223199   3.761   4.552   0.142  1.7843  0.9451 -2.8589
  570TIP3   OH223200   0.697   2.777   5.411 -0.6146  0.2128 -0.0494
  570TIP3    H123201   0.607   2.745   5.418 -0.1716 -0.9771  0.5060
  570TIP3    H223202   0.749   2.710   5.454  0.5924  0.6555 -0.7788
  571TIP3   OH223203   4.351   2.683  14.043  0.0828 -0.4444 -0.0560
  571TIP3    H123204   4.316   2.625  13.975 -0.8586  0.4129 -0.3348
  571TIP3    H223205   4.345   2.632  14.124 -5.3648  0.6690  0.6894
  572TIP3   OH223206   4.885   1.973   2.285  0.2715 -0.2324 -0.5571
  572TIP3    H123207   4.812   2.020   2.324 -0.3713 -0.4251 -1.4826
  572TIP3    H223208   4.964   2.016   2.319 -0.2871  1.6568 -1.5382
  573TIP3   OH223209   0.333   5.978  15.260 -0.1216  0.3549 -0.2629
  573TIP3    H123210   0.358   5.907  15.320 -0.7022  2.3755  2.6004
  573TIP3    H223211   0.389   5.965  15.184  0.6486 -2.4413  0.6444
  574TIP3   OH223212   1.240   0.141  13.428 -0.2838 -0.2102 -0.1378
  574TIP3    H123213   1.283   0.073  13.376 -0.3820 -1.4492  1.3400
  574TIP3    H223214   1.297   0.151  13.505 -0.0869  1.6499 -0.4914
  575TIP3   OH223215   1.190   0.205  14.756  0.2301 -0.5928 -0.3075
  575TIP3    H123216   1.269   0.242  14.717  0.8536 -0.4092  1.0590
  575TIP3    H223217   1.128   0.277  14.760  1.2475  0.2495  1.8353
  576TIP3   OH223218   0.395   6.757  16.252 -0.4358  0.2090 -0.0705
  576TIP3    H123219   0.306   6.726  16.269 -0.4360 -0.8239 -1.7823
  576TIP3    H223220   0.451   6.683  16.274  0.0494  0.8675  1.0317
  577TIP3   OH223221   6.295   6.483  13.450 -0.1443  0.3733 -0.8259
  577TIP3    H123222   6.291   6.428  13.372 -0.6575 -1.0393  0.1579
  577TIP3    H223223   6.373   6.455  13.496  0.0977  1.1262 -0.7578
  578TIP3   OH223224   1.269   2.037  13.273 -0.0875 -0.6069 -0.4246
  578TIP3    H123225   1.313   2.082  13.345 -1.0264 -0.9664  0.3949
  578TIP3    H223226   1.335   1.977  13.238  0.7881  0.5016 -0.7391
  579TIP3   OH223227   0.082   6.750   3.291  0.0093  0.3713 -0.0701
  579TIP3    H123228   0.055   6.834   3.326 -1.8680  0.4338 -1.4973
  579TIP3    H223229   0.130   6.708   3.362  1.9815  3.0392  0.3229
  580TIP3   OH223230   1.135   6.164  16.019 -0.3591 -0.0744 -0.4886
  580TIP3    H123231   1.125   6.208  15.935  0.2320 -0.2747 -0.6723
  580TIP3    H223232   1.207   6.212  16.062  0.8710 -1.3508 -1.0414
  581TIP3   OH223233   5.024   2.631  15.659  0.2625 -0.5349  0.3493
  581TIP3    H123234   4.992   2.704  15.606 -0.4053  0.2147  1.7340
  581TIP3    H223235   5.050   2.565  15.595  1.0137  0.9524 -0.9498
  582TIP3   OH223236   2.487   2.574  15.858 -0.0203  0.1849  0.1551
  582TIP3    H123237   2.547   2.560  15.931  2.5116  0.8880 -1.6307
  582TIP3    H223238   2.500   2.498  15.801 -1.4312 -0.0150  0.0754
  583TIP3   OH223239   2.182   2.767  12.848 -0.4319  0.0903 -0.1337
  583TIP3    H123240   2.124   2.798  12.779 -0.1510 -1.4677 -1.1204
  583TIP3    H223241   2.124   2.720  12.909 -0.6679  1.3976  0.6788
  584TIP3   OH223242   6.177   2.605  12.412 -0.1571  0.2180  0.4331
  584TIP3    H123243   6.252   2.547  12.424 -0.8386 -0.2903  2.9475
  584TIP3    H223244   6.103   2.556  12.448 -1.3523  1.4488 -0.2465
  585TIP3   OH223245   1.112   5.085  10.983  0.1064  0.6514  0.8980
  585TIP3    H123246   1.157   5.031  10.918  2.9709  0.0629  3.1865
  585TIP3    H223247   1.105   5.171  10.941  1.8659  0.3010 -0.2446
  586TIP3   OH223248   4.280   1.788  15.453  0.2671  0.3039  0.3706
  586TIP3    H123249   4.315   1.716  15.400 -1.2149  0.2049 -0.5452
  586TIP3    H223250   4.270   1.860  15.391  0.5967  0.9083  1.0190
  587TIP3   OH223251   2.022   6.156   2.656 -0.6214  0.3011 -0.2125
  587TIP3    H123252   1.951   6.096   2.633  0.7869 -2.1342  1.3619
  587TIP3    H223253   2.029   6.215   2.580 -2.9197 -0.7040 -1.2951
  588TIP3   OH223254   3.522   6.347   5.906 -0.0949  0.2929  0.0914
  588TIP3    H123255   3.582   6.361   5.979  0.2279  0.0412 -0.1193
  588TIP3    H223256   3.553   6.405   5.837  0.6423 -0.6969 -0.4346
  589TIP3   OH223257   6.414   0.732  15.115  0.2995 -0.3610  0.3224
  589TIP3    H123258   6.393   0.825  15.123 -0.0404 -0.3908 -0.2407
  589TIP3    H223259   6.468   0.726  15.036 -0.7394 -0.8171 -0.3692
  590TIP3   OH223260   5.433   5.761  16.435  0.0151 -0.4726  0.2966
  590TIP3    H123261   5.438   5.776  16.341 -1.1703 -1.0801  0.1161
  590TIP3    H223262   5.519   5.786  16.468  0.4394 -0.2351 -0.9389
  591TIP3   OH223263   3.890   6.465   1.477 -0.2478 -0.3834 -0.2314
  591TIP3    H123264   3.976   6.474   1.518 -0.4545 -0.0955  0.1472
  591TIP3    H223265   3.831   6.519   1.531 -0.5474 -0.0728 -0.8436
  592TIP3   OH223266   1.070   6.426   1.395 -0.1600 -0.1047  0.1563
  592TIP3    H123267   1.065   6.496   1.331  0.1390 -2.2899 -2.4664
  592TIP3    H223268   1.155   6.437   1.438  0.1870  0.7231 -0.7167
  593TIP3   OH223269   1.178   5.843  11.306  0.3772 -0.3430 -0.1977
  593TIP3    H123270   1.116   5.774  11.332 -0.3617  0.1500 -0.6001
  593TIP3    H223271   1.241   5.798  11.249 -0.8265 -0.4645 -1.4858
  594TIP3   OH223272   1.745   4.169   4.686  0.3876 -0.5075 -0.1795
  594TIP3    H123273   1.758   4.220   4.766  1.6983  2.0125 -1.8352
  594TIP3    H223274   1.830   4.127   4.671  0.8432  0.7454 -1.2821
  595TIP3   OH223275   2.459   4.096  14.143  0.0798 -0.0918 -0.1061
  595TIP3    H123276   2.439   4.032  14.075 -1.0260 -0.3435  0.4313
  595TIP3    H223277   2.485   4.043  14.218  3.5846  0.2278 -0.9451
  596TIP3   OH223278   0.535   3.859   6.307  0.1723  0.1783  0.4129
  596TIP3    H123279   0.606   3.893   6.253 -0.9512  0.6485 -0.8196
  596TIP3    H223280   0.516   3.773   6.271  1.4530 -0.8456  2.0564
  597TIP3   OH223281   0.359   5.351  13.774  0.9654 -0.1456  0.1580
  597TIP3    H123282   0.382   5.411  13.704  2.0875 -0.7330  0.0019
  597TIP3    H223283   0.411   5.379  13.849  0.9536 -0.4869  0.2971
  598TIP3   OH223284   6.195   4.131  11.719 -0.6814 -0.0395 -0.0945
  598TIP3    H123285   6.132   4.157  11.786 -0.3359  1.4424 -0.2935
  598TIP3    H223286   6.144   4.128  11.638 -0.2778  2.7960 -0.5617
  599TIP3   OH223287   2.826   3.643  12.376 -0.4713 -0.6263 -0.2896
  599TIP3    H123288   2.916   3.628  12.348  0.0406  1.5757  0.0392
  599TIP3    H223289   2.774   3.587  12.317  1.0897 -2.4495 -0.0589
  600TIP3   OH223290   4.028   2.703  15.726 -0.2942 -0.3538 -0.8677
  600TIP3    H123291   3.943   2.715  15.683 -1.1315  1.4175  1.1119
  600TIP3    H223292   4.011   2.639  15.795 -0.7445  1.6933  1.0681
  601TIP3   OH223293   5.527   6.761   2.416  0.3195  0.0830 -0.6159
  601TIP3    H123294   5.504   6.751   2.324 -2.0982  1.8833 -0.2926
  601TIP3    H223295   5.499   6.850   2.439  1.0945 -0.2147  1.7901
  602TIP3   OH223296   1.723   4.223  11.541 -0.5579  0.0805 -0.4564
  602TIP3    H123297   1.765   4.191  11.461 -0.7871  0.1952 -0.6249
  602TIP3    H223298   1.795   4.256  11.594 -0.3036 -0.7877 -0.2443
  603TIP3   OH223299   5.576   1.003  14.066 -0.7594 -0.3557 -0.1310
  603TIP3    H123300   5.566   0.908  14.058 -1.3019 -0.2508 -0.8794
  603TIP3    H223301   5.636   1.027  13.994 -1.3102 -0.0319 -0.4886
  604TIP3   OH223302   2.759   3.692   2.315 -0.0269  0.0561 -0.5004
  604TIP3    H123303   2.664   3.699   2.316 -0.0409 -0.0612 -0.7905
  604TIP3    H223304   2.782   3.701   2.222  0.1267 -1.4232 -0.6407
  605TIP3   OH223305   4.379   6.238  16.979 -0.5519  0.8551 -0.1932
  605TIP3    H123306   4.456   6.200  17.020 -1.7144  1.2737  2.5441
  605TIP3    H223307   4.305   6.200  17.025 -1.9520  1.6901 -1.6415
  606TIP3   OH223308   4.339   1.759   2.284 -0.7582 -0.6283  0.8287
  606TIP3    H123309   4.256   1.711   2.288  0.6362 -3.2211  0.5982
  606TIP3    H223310   4.389   1.726   2.358 -0.4254  2.0508  1.9160
  607TIP3   OH223311   3.992   4.667  16.288 -0.0844 -0.8117 -0.8056
  607TIP3    H123312   3.975   4.609  16.215 -1.5521 -0.9624 -0.3684
  607TIP3    H223313   4.037   4.742  16.249  1.7026 -2.1142 -1.3955
  608TIP3   OH223314   1.987   5.229   4.704 -0.1215 -0.1441 -0.2713
  608TIP3    H123315   2.058   5.230   4.768 -0.8582 -1.3248  0.6179
  608TIP3    H223316   1.942   5.313   4.717  1.4157  0.8749 -1.2547
  609TIP3   OH223317   6.663   1.689  16.181 -0.0328 -0.1476  0.7997
  609TIP3    H123318   6.744   1.701  16.230 -0.1683  0.0973  0.9604
  609TIP3    H223319   6.623   1.776  16.176 -0.6138 -0.3797  1.2896
  610TIP3   OH223320   3.200   5.069   1.071  0.1229  0.1987  0.0227
  610TIP3    H123321   3.170   5.033   0.987 -0.6369 -0.4192  0.5463
  610TIP3    H223322   3.284   5.025   1.087  0.9024  1.2446 -0.9992
  611TIP3   OH223323   5.790   3.779  12.002  0.3197 -0.0036 -0.2336
  611TIP3    H123324   5.765   3.686  11.995  0.5232 -0.1029  0.3108
  611TIP3    H223325   5.757   3.806  12.087  1.0450  0.1837 -0.0124
  612TIP3   OH223326   5.375   2.076  12.215 -0.4132  0.5240 -0.6132
  612TIP3    H123327   5.404   2.123  12.294  1.0842 -1.0312 -0.1904
  612TIP3    H223328   5.302   2.022  12.245  0.2600 -0.1906 -0.2323
  613TIP3   OH223329   1.741   1.009   5.749  0.3501  0.5150  0.1351
  613TIP3    H123330   1.789   0.990   5.829 -1.8609 -0.3988  1.3237
  613TIP3    H223331   1.681   1.079   5.772  0.5304  1.1013 -1.0913
  614TIP3   OH223332   4.380   3.495  14.473 -0.1702 -0.1283 -0.0133
  614TIP3    H123333   4.382   3.583  14.435 -0.1046 -0.5840 -1.1133
  614TIP3    H223334   4.471   3.468  14.477 -0.2245 -0.3322 -0.1365
  615TIP3   OH223335   1.972   0.862   5.125 -0.3724 -0.1256  0.7632
  615TIP3    H123336   2.014   0.825   5.202 -1.2486 -0.6584  0.9974
  615TIP3    H223337   2.044   0.879   5.064  0.3827  0.7420  1.8600
  616TIP3   OH223338   4.942   4.746   5.543 -0.3666 -0.3303 -0.4460
  616TIP3    H123339   5.011   4.690   5.508  0.6157  0.7488 -0.2963
  616TIP3    H223340   4.864   4.690   5.543  0.1032 -1.0703 -2.1994
  617TIP3   OH223341   3.038   6.687  16.109  0.3320  0.3265 -0.0116
  617TIP3    H123342   2.970   6.657  16.170  0.4910  0.0577  0.0352
  617TIP3    H223343   3.049   6.615  16.047  0.3148  0.5185 -0.2391
  618TIP3   OH223344   6.808   4.070   1.416  0.2886 -0.1370  0.0943
  618TIP3    H123345   6.808   4.134   1.488 -0.5006  0.3260 -0.2994
  618TIP3    H223346   6.899   4.069   1.385  0.3299  0.7409  0.1622
  619TIP3   OH223347   6.037   1.021  14.908  0.1223  0.4314  0.2662
  619TIP3    H123348   5.974   1.063  14.968 -1.0597 -1.3942  0.3811
  619TIP3    H223349   6.121   1.059  14.932 -0.7617  2.1140  0.9000
  620TIP3   OH223350   4.793   5.865  10.832  0.1832  0.4206  0.2931
  620TIP3    H123351   4.850   5.816  10.891  0.7596  0.4235 -0.2442
  620TIP3    H223352   4.709   5.819  10.836  1.3155 -2.1659 -1.9960
  621TIP3   OH223353   1.725   1.678   0.517 -0.4645  0.4115 -0.2689
  621TIP3    H123354   1.671   1.645   0.445 -1.8915  0.9751  0.4899
  621TIP3    H223355   1.668   1.670   0.594 -0.1628  2.7845  0.2734
  622TIP3   OH223356   0.292   1.143  10.814  0.1599  0.0551 -0.0653
  622TIP3    H123357   0.379   1.184  10.819 -0.4761  1.2874  1.5187
  622TIP3    H223358   0.284   1.094  10.896 -0.9784  0.7004  0.2319
  623TIP3   OH223359   3.958   2.562   2.827 -0.2275 -0.7845 -0.3602
  623TIP3    H123360   4.023   2.588   2.762 -0.0489 -2.4172 -0.8833
  623TIP3    H223361   3.994   2.484   2.868 -0.2328  0.3590  1.9304
  624TIP3   OH223362   1.731   6.152  14.630  0.5941 -0.1447 -0.0037
  624TIP3    H123363   1.671   6.128  14.560  0.6878 -1.1996  0.2533
  624TIP3    H223364   1.798   6.206  14.587 -0.4572  0.9435 -0.3074
  625TIP3   OH223365   4.174   4.419  14.593 -0.3585 -0.4394 -0.2892
  625TIP3    H123366   4.190   4.349  14.530 -0.6610 -1.9366  1.2116
  625TIP3    H223367   4.254   4.422  14.646 -0.1732  0.6815 -0.6060
  626TIP3   OH223368   0.863   5.959  16.460  0.0675  0.6467  0.2977
  626TIP3    H123369   0.923   6.033  16.449  1.1879 -0.2964 -0.1771
  626TIP3    H223370   0.883   5.925  16.547  2.1399 -1.2144 -0.7646
  627TIP3   OH223371   6.518   0.138  12.128 -0.3652  0.3256  0.1377
  627TIP3    H123372   6.449   0.107  12.069 -1.6537  1.6512  0.8732
  627TIP3    H223373   6.562   0.207  12.078 -0.3561  0.2976  0.1070
  628TIP3   OH223374   0.650   6.433  11.738  0.2766  0.8361  0.8498
  628TIP3    H123375   0.615   6.391  11.817  0.5761 -2.2661 -0.5390
  628TIP3    H223376   0.741   6.453  11.760  1.1131 -2.2424  0.6629
  629TIP3   OH223377   3.471   2.452  15.134 -0.1958 -0.4097  0.2733
  629TIP3    H123378   3.504   2.467  15.223 -0.0141 -0.6971  0.2567
  629TIP3    H223379   3.486   2.359  15.119 -0.8501 -0.5065  0.1935
  630TIP3   OH223380   2.645   5.355   2.118 -0.3066  0.2540 -0.0122
  630TIP3    H123381   2.647   5.441   2.076 -0.6823 -0.4411 -1.5448
  630TIP3    H223382   2.637   5.293   2.045 -1.0118 -1.0251  1.1035
  631TIP3   OH223383   6.354   5.583   5.159  0.3071  0.3283 -0.3641
  631TIP3    H123384   6.290   5.556   5.224  0.4159 -0.8757 -0.7263
  631TIP3    H223385   6.325   5.670   5.130 -2.9963 -1.3686 -2.7682
  632TIP3   OH223386   4.996   6.467   2.275  0.0502  0.3322 -0.2466
  632TIP3    H123387   4.965   6.480   2.364  0.2754  1.0896 -0.2711
  632TIP3    H223388   4.981   6.551   2.232 -0.9122 -0.2972 -1.1864
  633TIP3   OH223389   1.355   6.693   4.438  0.0362  0.5216 -0.1644
  633TIP3    H123390   1.362   6.732   4.525 -1.0464  1.3732 -0.4498
  633TIP3    H223391   1.365   6.767   4.378 -0.9051  0.2057 -0.7288
  634TIP3   OH223392   6.007   3.272  12.367 -0.0978 -0.4955 -0.3494
  634TIP3    H123393   6.022   3.353  12.416  1.2173 -1.1846  0.4456
  634TIP3    H223394   6.039   3.203  12.424 -3.3276 -1.8808 -0.0291
  635TIP3   OH223395   1.303   0.171  16.292  0.4609  0.3506  0.3666
  635TIP3    H123396   1.378   0.223  16.322  1.1793 -0.3103 -0.2563
  635TIP3    H223397   1.295   0.190  16.199 -0.0244  0.2497  0.3815
  636TIP3   OH223398   4.721   3.174  15.551 -0.5543  0.3285  0.2105
  636TIP3    H123399   4.679   3.149  15.469  0.3717  0.0171 -0.1794
  636TIP3    H223400   4.706   3.269  15.558 -0.5554  0.3726 -0.3586
  637TIP3   OH223401   6.461   6.315  14.547 -0.0371  0.0110  0.6318
  637TIP3    H123402   6.382   6.285  14.502 -0.1531  0.4834  0.5193
  637TIP3    H223403   6.503   6.374  14.485  0.0705  0.2622  0.9402
  638TIP3   OH223404   2.015   2.568   4.592  0.1538 -0.2542 -0.0706
  638TIP3    H123405   2.084   2.633   4.578 -0.2165  0.3737  0.9195
  638TIP3    H223406   1.934   2.619   4.594 -0.4072 -1.0164 -1.5462
  639TIP3   OH223407   5.770   5.882  10.811  0.0472  0.2452  0.8615
  639TIP3    H123408   5.699   5.843  10.761 -0.7069 -0.0150  2.0997
  639TIP3    H223409   5.830   5.809  10.828 -0.4750 -0.0225  1.6403
  640TIP3   OH223410   3.522   6.346  13.957 -0.3430 -0.9338  0.2687
  640TIP3    H123411   3.455   6.281  13.978 -0.7732 -0.5985 -0.0377
  640TIP3    H223412   3.494   6.384  13.874  0.4178 -1.0266 -0.0402
  641TIP3   OH223413   5.596   5.795  12.846 -0.3549 -0.1423 -0.0712
  641TIP3    H123414   5.681   5.835  12.867 -0.9774  2.3733 -1.8296
  641TIP3    H223415   5.593   5.795  12.750 -1.6083 -1.9037 -0.0665
  642TIP3   OH223416   1.547   3.964   4.596  0.3248 -0.2945 -0.3584
  642TIP3    H123417   1.533   3.933   4.685  1.3578 -0.1678 -0.1466
  642TIP3    H223418   1.621   4.024   4.602 -1.7502  2.5280 -0.6802
  643TIP3   OH223419   1.113   2.134  17.055  0.0810  0.0396  0.3317
  643TIP3    H123420   1.143   2.192  17.125  1.1190  0.2861 -0.3024
  643TIP3    H223421   1.018   2.146  17.054  0.2508  1.6171  0.3280
  644TIP3   OH223422   2.354   0.761   4.198  0.1091 -0.0205 -0.2945
  644TIP3    H123423   2.363   0.710   4.279 -1.0110  0.0676 -0.1070
  644TIP3    H223424   2.431   0.736   4.146  0.8015 -0.1453  0.7517
  645TIP3   OH223425   1.433   0.209  14.630  0.0403 -0.1449 -0.1194
  645TIP3    H123426   1.457   0.126  14.669 -1.6856 -0.1878  0.9742
  645TIP3    H223427   1.495   0.222  14.558  1.0570 -1.7897  0.4343
  646TIP3   OH223428   2.594   3.687  14.154  0.1515  0.2015 -0.1687
  646TIP3    H123429   2.636   3.770  14.129 -0.3850  0.9851  1.3354
  646TIP3    H223430   2.641   3.660  14.233 -1.6496  0.7405  1.1578
  647TIP3   OH223431   0.830   2.995   0.417  0.3050  0.4321 -0.0271
  647TIP3    H123432   0.777   2.922   0.385 -0.1042  0.8465 -0.3097
  647TIP3    H223433   0.906   2.998   0.359  0.9744 -0.5750  0.7817
  648TIP3   OH223434   5.240   1.201   3.280 -0.2135 -0.1448 -0.0168
  648TIP3    H123435   5.154   1.175   3.247 -0.6783  0.5231  0.6402
  648TIP3    H223436   5.223   1.279   3.333  0.8105  0.0482  0.0480
  649TIP3   OH223437   0.869   1.869   5.821 -0.5332 -0.7589  0.3219
  649TIP3    H123438   0.907   1.918   5.748  1.9145 -0.0576  1.9335
  649TIP3    H223439   0.777   1.896   5.823 -0.4553 -0.1141 -1.8944
  650TIP3   OH223440   2.628   4.744   4.195  0.1539  0.0580  0.3937
  650TIP3    H123441   2.701   4.683   4.202 -1.1838 -1.5660  0.9609
  650TIP3    H223442   2.551   4.688   4.186 -0.8183  1.7145 -2.9758
  651TIP3   OH223443   5.239   3.431  16.692 -0.9068  0.1271  0.3429
  651TIP3    H123444   5.268   3.465  16.777  0.8351  1.0031 -0.5552
  651TIP3    H223445   5.194   3.349  16.713  0.9872 -0.5559  1.9816
  652TIP3   OH223446   2.103   4.318  12.005 -0.0431  0.0816 -0.0148
  652TIP3    H123447   2.020   4.336  12.049 -1.0042  1.5967 -2.2088
  652TIP3    H223448   2.079   4.305  11.913  2.1151  0.3138 -0.6803
  653TIP3   OH223449   0.978   0.266  15.906  0.1848 -0.8803  0.1523
  653TIP3    H123450   0.983   0.198  15.839 -0.9241 -0.2213 -0.6294
  653TIP3    H223451   1.004   0.346  15.861 -0.9800 -0.3556  0.3784
  654TIP3   OH223452   4.862   5.951  14.839  0.1119  0.1875  0.2490
  654TIP3    H123453   4.806   5.948  14.917  0.4072  1.8939  0.5683
  654TIP3    H223454   4.951   5.943  14.873  0.2961  1.7573  0.2081
  655TIP3   OH223455   0.368   3.894   6.561 -0.3857  0.2476  0.0653
  655TIP3    H123456   0.432   3.906   6.491 -2.1571 -0.0543 -1.6929
  655TIP3    H223457   0.305   3.832   6.526 -0.2065 -1.6460  2.7973
  656TIP3   OH223458   4.637   0.252  16.314 -0.6369  0.0884 -0.3749
  656TIP3    H123459   4.604   0.321  16.371  0.7231  1.2828 -0.9839
  656TIP3    H223460   4.731   0.247  16.333 -0.3542 -0.2201 -1.7470
  657TIP3   OH223461   6.782   0.756   3.130  0.4677 -0.1162 -1.3124
  657TIP3    H123462   6.872   0.727   3.113  0.2371 -1.5031 -0.3499
  657TIP3    H223463   6.755   0.801   3.050  2.0371  0.3999 -1.5889
  658TIP3   OH223464   1.976   1.304  14.466 -0.1117 -0.1619  0.0303
  658TIP3    H123465   1.960   1.347  14.550 -2.3766  0.6020 -0.7217
  658TIP3    H223466   1.904   1.242  14.456 -2.6041  2.8762 -3.2327
  659TIP3   OH223467   6.153   6.326  15.129  0.2972  0.1512  0.1246
  659TIP3    H123468   6.068   6.282  15.139  0.0806  0.2948 -1.0004
  659TIP3    H223469   6.133   6.419  15.141  0.2902  0.1878 -0.1697
  660TIP3   OH223470   4.555   4.540   5.496  0.7310  0.1221 -0.3400
  660TIP3    H123471   4.538   4.512   5.586 -1.0088 -3.5164 -1.6243
  660TIP3    H223472   4.644   4.510   5.478  0.2248 -1.3183 -0.5219
  661TIP3   OH223473   2.077   1.211  10.674 -0.2767  0.5119  0.5127
  661TIP3    H123474   2.132   1.246  10.744 -0.8078 -0.8848  1.6800
  661TIP3    H223475   2.044   1.288  10.628  1.8947  1.3961  0.3503
  662TIP3   OH223476   5.668   6.095   3.102  0.6514 -0.4523  0.4763
  662TIP3    H123477   5.619   6.174   3.123 -1.6299 -1.2510 -1.4127
  662TIP3    H223478   5.706   6.112   3.016  1.9634 -0.6558  0.9881
  663TIP3   OH223479   1.135   2.952  11.312 -0.4283 -0.1309 -0.0984
  663TIP3    H123480   1.207   2.992  11.263  0.1910 -1.1423 -0.0587
  663TIP3    H223481   1.179   2.899  11.379 -1.2551  0.9792  1.3770
  664TIP3   OH223482   3.439   1.987  14.857 -0.8565  0.0318 -0.2885
  664TIP3    H123483   3.366   1.940  14.897 -0.2682  0.2905  1.1476
  664TIP3    H223484   3.443   1.952  14.768 -3.3459  0.7452 -0.7578
  665TIP3   OH223485   2.688   3.309  13.995  0.1483  0.1173  0.0956
  665TIP3    H123486   2.678   3.222  13.956  0.2830  1.0340 -2.1718
  665TIP3    H223487   2.779   3.314  14.022  0.3954 -0.1237 -0.6790
  666TIP3   OH223488   0.958   4.254   0.754  0.3372  0.0209 -0.1081
  666TIP3    H123489   0.937   4.271   0.663  0.4630 -0.7776 -0.2887
  666TIP3    H223490   1.044   4.212   0.752  0.1879 -0.3159  0.3521
  667TIP3   OH223491   0.747   0.496  12.777  0.2934 -0.0729 -0.5217
  667TIP3    H123492   0.667   0.464  12.819  0.5082 -0.1447 -0.1610
  667TIP3    H223493   0.806   0.515  12.850  0.8194 -0.5864 -0.8007
  668TIP3   OH223494   4.666   5.087  14.297 -0.2311  0.7491 -0.1784
  668TIP3    H123495   4.602   5.022  14.268 -0.4562  1.0407 -0.3345
  668TIP3    H223496   4.618   5.169  14.299  0.7443  1.4901 -2.8460
  669TIP3   OH223497   4.399   5.551   6.194  0.9548  0.3842  0.4158
  669TIP3    H123498   4.389   5.562   6.289  0.2036 -0.8899  0.5155
  669TIP3    H223499   4.365   5.632   6.157 -1.5197 -0.1991  1.1683
  670TIP3   OH223500   6.241   3.417   4.095 -0.2750 -0.1184 -0.7393
  670TIP3    H123501   6.250   3.338   4.042 -0.7447 -1.1614  0.6942
  670TIP3    H223502   6.158   3.407   4.141  0.2839  0.5711  0.4799
  671TIP3   OH223503   4.243   4.869  12.242 -0.2175  0.0496  0.1690
  671TIP3    H123504   4.251   4.955  12.283 -0.1605  0.5168 -0.7855
  671TIP3    H223505   4.317   4.819  12.275  0.6288  0.8795 -0.4479
  672TIP3   OH223506   4.389   0.413  13.162 -0.1078 -0.3123 -0.0592
  672TIP3    H123507   4.329   0.356  13.114  1.0869 -1.3598 -0.3632
  672TIP3    H223508   4.468   0.416  13.108  0.4336  0.3316  0.7405
  673TIP3   OH223509   6.452   4.080  11.787  0.0154 -0.2892 -0.2784
  673TIP3    H123510   6.361   4.100  11.765  0.2288  0.8820 -0.1620
  673TIP3    H223511   6.491   4.165  11.810  1.5085 -0.5321 -1.6890
  674TIP3   OH223512   0.772   0.782   3.209  0.1690  0.4397  0.2518
  674TIP3    H123513   0.699   0.753   3.265  1.2982  0.5481  1.8629
  674TIP3    H223514   0.730   0.830   3.138 -1.2965  1.4771  1.7281
  675TIP3   OH223515   5.655   3.779  16.945  1.2019  0.2283  0.0825
  675TIP3    H123516   5.635   3.764  17.037 -0.1644  0.5334 -0.1433
  675TIP3    H223517   5.706   3.860  16.944  1.2811  0.1859  0.5805
  676TIP3   OH223518   4.833   0.717  13.876 -0.4746 -0.2919 -0.3848
  676TIP3    H123519   4.896   0.653  13.842  0.2733  0.2156  0.0463
  676TIP3    H223520   4.755   0.704  13.821 -0.2124 -1.3305 -0.5316
  677TIP3   OH223521   3.336   6.524  16.441  0.0025  0.2536 -0.0062
  677TIP3    H123522   3.330   6.530  16.345 -1.0365 -0.6331  0.0006
  677TIP3    H223523   3.309   6.611  16.472 -3.1958 -0.4999 -0.4000
  678TIP3   OH223524   5.091   5.906   2.159  0.2238  0.1230 -0.0502
  678TIP3    H123525   5.173   5.955   2.152  0.5186 -0.5842 -3.1500
  678TIP3    H223526   5.028   5.957   2.108 -0.4035 -0.8805 -0.3125
  679TIP3   OH223527   3.977   6.392   0.639 -0.2338  0.2870  0.4892
  679TIP3    H123528   4.016   6.457   0.580 -0.9882 -0.3564 -0.7569
  679TIP3    H223529   4.019   6.409   0.724  4.3482 -1.5943 -1.0311
  680TIP3   OH223530   0.587   0.051  12.717 -0.2049 -0.7191 -0.1380
  680TIP3    H123531   0.628   0.096  12.791  1.9550  1.9100 -2.6769
  680TIP3    H223532   0.621  -0.038  12.721  1.8536  0.0370  0.6988
  681TIP3   OH223533   6.169   5.869  15.686  0.0686 -0.1968 -0.5017
  681TIP3    H123534   6.157   5.774  15.681  1.9125 -0.4103 -2.4439
  681TIP3    H223535   6.263   5.882  15.675  0.1737  1.8058  1.7971
  682TIP3   OH223536   5.544   2.124  11.198  0.5769  0.4967  0.3240
  682TIP3    H123537   5.618   2.081  11.240 -0.3976 -0.5478  1.0441
  682TIP3    H223538   5.470   2.106  11.256 -0.9826 -1.6595 -2.0944
  683TIP3   OH223539   0.507   6.681   3.826 -0.7217  0.0054 -0.5900
  683TIP3    H123540   0.488   6.596   3.787 -0.0893 -0.4356  0.0364
  683TIP3    H223541   0.469   6.744   3.765 -0.7908 -0.7063 -1.3031
  684TIP3   OH223542   0.963   2.834   2.944 -0.7167  0.4624  0.4870
  684TIP3    H123543   0.869   2.820   2.929 -1.1359  3.6309 -0.6075
  684TIP3    H223544   0.996   2.861   2.859  1.6024 -2.0468  0.4837
  685TIP3   OH223545   5.284   4.381  15.742 -0.0423  0.1560 -0.1808
  685TIP3    H123546   5.211   4.330  15.777  0.2538 -1.1358 -1.3498
  685TIP3    H223547   5.256   4.472  15.751 -1.2550 -0.2637  0.5424
  686TIP3   OH223548   1.862   2.037   3.372 -0.3613  0.0174 -0.1549
  686TIP3    H123549   1.774   2.028   3.409 -0.2333  0.0066  0.1503
  686TIP3    H223550   1.874   1.957   3.321  0.2497 -0.9808  1.4514
  687TIP3   OH223551   1.049   6.532  11.327  0.2780  0.1663  0.1649
  687TIP3    H123552   1.130   6.526  11.378 -1.0519 -1.3772  2.2308
  687TIP3    H223553   1.079   6.558  11.240  3.0693 -0.7531  0.7193
  688TIP3   OH223554   1.610   1.546   3.635 -0.0319  0.2207  0.1157
  688TIP3    H123555   1.661   1.494   3.574 -0.5589 -1.7545  1.2866
  688TIP3    H223556   1.655   1.631   3.636  1.8769 -0.7088 -0.5921
  689TIP3   OH223557   6.410   0.438  11.575 -0.3938 -0.5902  0.2448
  689TIP3    H123558   6.343   0.505  11.561 -1.0642 -0.9583  1.5842
  689TIP3    H223559   6.493   0.486  11.566 -0.8334  0.9163  3.0746
  690TIP3   OH223560   2.997   5.738   5.784  0.5093  0.5374  0.2203
  690TIP3    H123561   3.080   5.725   5.738  0.7704 -0.5464  0.9667
  690TIP3    H223562   3.020   5.791   5.860  0.9195 -1.3899  1.5054
  691TIP3   OH223563   4.273   6.640   1.784 -0.2659 -0.3754 -0.1683
  691TIP3    H123564   4.219   6.679   1.853  1.5202 -1.1543  1.7881
  691TIP3    H223565   4.321   6.714   1.746 -1.1103  0.0333 -0.4610
  692TIP3   OH223566   0.989   1.895  13.041 -0.4345  0.4629 -0.4616
  692TIP3    H123567   0.956   1.968  12.990 -0.1779 -0.3161 -1.7707
  692TIP3    H223568   0.910   1.848  13.070 -0.5768  0.8893 -0.1514
  693TIP3   OH223569   6.798   1.878   4.941  0.6420  0.0391 -0.0818
  693TIP3    H123570   6.811   1.810   4.876  0.4199  0.6649 -0.7923
  693TIP3    H223571   6.844   1.954   4.906 -0.5508  0.7602 -0.1441
  694TIP3   OH223572   0.606   4.212   6.227  0.5563  0.3405 -0.1489
  694TIP3    H123573   0.521   4.243   6.260  1.7215  1.7930  1.7629
  694TIP3    H223574   0.596   4.118   6.219 -1.4336  0.5522 -0.6402
  695TIP3   OH223575   5.286   0.850   5.464  0.5051 -0.3206  0.5568
  695TIP3    H123576   5.366   0.832   5.513  0.8051  0.4661  0.3793
  695TIP3    H223577   5.217   0.845   5.530  0.8708  0.4381  1.0182
  696TIP3   OH223578   4.558   0.582  15.754  0.3660  0.0416  0.1991
  696TIP3    H123579   4.587   0.580  15.845 -0.8686  0.2344  0.6269
  696TIP3    H223580   4.566   0.674  15.728 -0.5348  0.2387  0.5683
  697TIP3   OH223581   6.561   1.587  14.931  0.2259 -0.0317 -0.5953
  697TIP3    H123582   6.470   1.596  14.901  0.2228 -1.0246 -0.8990
  697TIP3    H223583   6.556   1.602  15.025 -0.4089 -1.0591 -0.4556
  698TIP3   OH223584   6.704   5.767  13.515  0.1244 -0.0156 -0.0667
  698TIP3    H123585   6.650   5.690  13.499 -0.0538  0.2514 -0.7840
  698TIP3    H223586   6.686   5.825  13.441  0.9538  0.3192 -0.0184
  699TIP3   OH223587   1.569   2.008  12.687 -0.2919 -0.2218  0.2806
  699TIP3    H123588   1.522   2.090  12.703 -0.3394 -0.3907  1.0316
  699TIP3    H223589   1.628   1.998  12.761  0.1292 -0.5840 -0.0910
  700TIP3   OH223590   1.664   2.918   2.923 -0.4607  0.0039  0.3716
  700TIP3    H123591   1.654   2.827   2.952 -0.1669  0.2328  1.1931
  700TIP3    H223592   1.642   2.971   2.999  2.2603  0.5883  0.8374
  701TIP3   OH223593   2.178   1.996   5.421  0.2044 -0.6321  0.4986
  701TIP3    H123594   2.110   2.062   5.434 -0.4988 -1.3662  0.6351
  701TIP3    H223595   2.138   1.932   5.362  0.4673 -1.4952  1.2294
  702TIP3   OH223596   5.530   1.784   1.680  0.7080  0.4863 -0.2023
  702TIP3    H123597   5.570   1.856   1.729 -0.5467  0.8293  0.3483
  702TIP3    H223598   5.548   1.805   1.588  0.3338  1.5235 -0.0500
  703TIP3   OH223599   0.061   5.311  16.723 -0.0643 -0.7065  0.1929
  703TIP3    H123600   0.104   5.232  16.754  1.1908 -0.4418 -0.8030
  703TIP3    H223601   0.076   5.311  16.629  1.3261  1.5067  0.3621
  704TIP3   OH223602   5.123   0.586  14.561  0.5492 -0.2875  0.0835
  704TIP3    H123603   5.138   0.566  14.653  1.1846 -1.3006 -0.2277
  704TIP3    H223604   5.033   0.558  14.544  0.5270 -0.3610  0.3220
  705TIP3   OH223605   6.813   1.305  12.539  0.3140  0.4188  0.1301
  705TIP3    H123606   6.868   1.374  12.575 -0.0332 -0.6500  3.0153
  705TIP3    H223607   6.785   1.255  12.616 -0.0345 -2.4880 -1.7400
  706TIP3   OH223608   2.102   3.231  16.770  0.0112 -1.0896  0.3366
  706TIP3    H123609   2.046   3.192  16.836 -0.6696 -1.8423 -0.6589
  706TIP3    H223610   2.048   3.233  16.690  1.1930 -1.2698 -0.4948
  707TIP3   OH223611   1.891   4.813  13.539 -0.0168 -0.2660 -0.3061
  707TIP3    H123612   1.916   4.748  13.473 -1.4823 -0.8765 -0.3178
  707TIP3    H223613   1.851   4.884  13.489  0.9060  0.3184 -0.2313
  708TIP3   OH223614   0.395   4.791   3.796  0.2157 -0.2637  0.0680
  708TIP3    H123615   0.380   4.879   3.760 -1.0580  0.4594  2.2232
  708TIP3    H223616   0.489   4.776   3.785  0.2010  0.6488 -1.7833
  709TIP3   OH223617   5.802   0.186  15.604  0.0529 -0.3049  0.2225
  709TIP3    H123618   5.804   0.090  15.602  1.3694 -0.3494 -3.4768
  709TIP3    H223619   5.894   0.212  15.591 -0.5557  1.3802 -1.0348
  710TIP3   OH223620   6.564   2.398  11.894  0.5770 -0.2916 -0.8762
  710TIP3    H123621   6.601   2.314  11.866 -2.0806 -1.6359 -0.7537
  710TIP3    H223622   6.603   2.414  11.980 -0.0935 -2.3426 -0.1142
  711TIP3   OH223623   6.088   5.876  13.721 -0.4338 -0.4749  0.4800
  711TIP3    H123624   6.159   5.866  13.784  0.4470 -0.9969 -0.5711
  711TIP3    H223625   6.020   5.816  13.752 -0.2171 -0.3664  1.1921
  712TIP3   OH223626   1.899   4.078   4.335 -0.1571 -0.4279  0.3639
  712TIP3    H123627   1.807   4.101   4.321 -0.2007  0.2143  1.6203
  712TIP3    H223628   1.902   4.044   4.425  0.7258 -1.0563  0.1107
  713TIP3   OH223629   0.019   0.205  12.257 -0.0922 -0.3225 -0.1974
  713TIP3    H123630   0.090   0.164  12.307  0.3453 -0.3663 -0.8420
  713TIP3    H223631  -0.029   0.132  12.219 -1.1982 -0.3487  1.1570
  714TIP3   OH223632   0.917   6.808   4.178  0.1796  0.4505 -0.4074
  714TIP3    H123633   0.899   6.877   4.114  0.7387 -0.0593 -1.1354
  714TIP3    H223634   0.998   6.767   4.147 -1.1120 -1.7734 -1.1284
  715TIP3   OH223635   5.015   1.318   0.970  0.7314 -0.2523 -0.1140
  715TIP3    H123636   5.063   1.375   1.030  2.9406 -0.0725 -1.9335
  715TIP3    H223637   5.076   1.248   0.950 -0.1563 -0.6061 -1.7071
  716TIP3   OH223638   1.569   3.250  12.522  0.3457 -0.2512  0.5185
  716TIP3    H123639   1.552   3.342  12.503 -1.1300 -0.4630  0.6823
  716TIP3    H223640   1.662   3.246  12.545  0.6032  1.0598 -0.2510
  717TIP3   OH223641   1.560   6.293   4.413 -0.1803  0.5581  0.2991
  717TIP3    H123642   1.574   6.326   4.324  0.7114 -0.5445  0.0096
  717TIP3    H223643   1.536   6.202   4.402 -1.9196  0.8689  1.1304
  718TIP3   OH223644   4.218   4.786   1.390 -0.0662 -0.0850 -0.1041
  718TIP3    H123645   4.308   4.806   1.365 -0.1856  0.1447 -0.3599
  718TIP3    H223646   4.187   4.865   1.436 -0.1341 -0.1629 -0.0163
  719TIP3   OH223647   1.524   1.219  14.064 -0.0851 -0.2419 -0.3118
  719TIP3    H123648   1.558   1.269  14.138  2.2068  0.0056 -1.4324
  719TIP3    H223649   1.556   1.130  14.078 -2.2682 -0.9742  0.5140
  720TIP3   OH223650   0.389   1.183  12.536  0.6871 -0.0838  0.7064
  720TIP3    H123651   0.407   1.112  12.475  2.1206  1.1496 -0.3633
  720TIP3    H223652   0.328   1.145  12.600  1.1735 -2.1549 -0.0043
  721TIP3   OH223653   1.293   2.526  16.729  1.0458 -0.2641  0.3130
  721TIP3    H123654   1.267   2.611  16.766  1.2545  0.3746 -0.9449
  721TIP3    H223655   1.372   2.546  16.679  0.6210 -1.0464 -0.6881
  722TIP3   OH223656   6.754   2.569  10.998 -0.2294  0.4142  0.2637
  722TIP3    H123657   6.826   2.626  11.026 -0.1430  1.1817 -1.4385
  722TIP3    H223658   6.675   2.622  11.013 -0.1561  0.9739 -1.2316
  723TIP3   OH223659   6.514   4.696  16.300 -0.1982 -0.1968  0.2041
  723TIP3    H123660   6.460   4.775  16.296 -1.1278 -0.7521  1.2822
  723TIP3    H223661   6.481   4.642  16.228  0.0735  0.1647 -0.1962
  724TIP3   OH223662   4.136   3.285   3.993 -0.3546 -0.2012 -0.2965
  724TIP3    H123663   4.144   3.195   4.024 -0.7206 -1.0840 -2.5351
  724TIP3    H223664   4.042   3.304   3.997 -0.0501  1.3945  3.2954
  725TIP3   OH223665   2.679   4.135   0.981 -1.3917  0.1940 -0.2148
  725TIP3    H123666   2.598   4.129   0.931 -1.9517  1.1072  0.5618
  725TIP3    H223667   2.711   4.224   0.967 -1.4641  0.4103  0.8829
  726TIP3   OH223668   6.110   5.718   5.335 -0.3697 -0.1570 -0.4032
  726TIP3    H123669   6.028   5.730   5.382  0.1033  3.0350 -0.1208
  726TIP3    H223670   6.093   5.752   5.247 -0.0948 -2.1841 -1.2947
  727TIP3   OH223671   0.592   1.439  10.447 -0.4550  0.3390 -0.2999
  727TIP3    H123672   0.512   1.488  10.431 -0.9862  0.0104  1.1336
  727TIP3    H223673   0.617   1.404  10.362 -1.7981  0.5100 -0.7857
  728TIP3   OH223674   5.722   1.560  11.737 -0.6673 -0.2039 -0.1804
  728TIP3    H123675   5.631   1.573  11.709 -1.0594 -0.2416  1.0169
  728TIP3    H223676   5.757   1.649  11.745 -1.3530 -0.0510  1.6601
  729TIP3   OH223677   2.166   4.005  13.119  0.1374  0.2343 -0.1243
  729TIP3    H123678   2.119   3.932  13.078  1.6541 -1.2410  0.6666
  729TIP3    H223679   2.246   4.015  13.067 -0.0191  1.3144 -0.1839
  730TIP3   OH223680   1.271   2.694   5.325 -0.5753 -0.5052 -0.2699
  730TIP3    H123681   1.185   2.727   5.351 -0.0358  0.4783  0.3444
  730TIP3    H223682   1.302   2.757   5.260  0.4750  0.2383  0.9179
  731TIP3   OH223683   4.514   1.303   4.545 -0.5299  0.0307  0.5848
  731TIP3    H123684   4.572   1.328   4.473 -1.2950 -0.0702 -0.0865
  731TIP3    H223685   4.548   1.350   4.621  0.7582 -0.4679  0.3361
  732TIP3   OH223686   5.910   2.888  13.133  0.3884  0.2985  0.2356
  732TIP3    H123687   5.900   2.861  13.224 -0.5745 -0.5977 -0.1220
  732TIP3    H223688   5.931   2.807  13.086  1.4825  0.8466 -0.2615
  733TIP3   OH223689   3.161   4.060  16.155  0.7119  0.5718 -0.3766
  733TIP3    H123690   3.128   3.970  16.148  1.5079  0.3374 -1.3827
  733TIP3    H223691   3.234   4.063  16.095  0.0214  2.2214 -1.1954
  734TIP3   OH223692   5.489   4.880  15.209  0.2002 -0.4448 -0.7690
  734TIP3    H123693   5.417   4.820  15.230 -0.0292 -0.2295 -0.9351
  734TIP3    H223694   5.567   4.837  15.243 -0.2856  0.4527  1.6900
  735TIP3   OH223695   4.731   0.924  16.199  0.2596  0.2011  0.1559
  735TIP3    H123696   4.733   0.971  16.116  0.6428  1.0205  0.6091
  735TIP3    H223697   4.693   0.987  16.261 -0.9451 -0.7303  0.4129
  736TIP3   OH223698   6.188   3.519   2.639 -0.0577 -0.4322  0.3794
  736TIP3    H123699   6.108   3.551   2.679 -0.7713  1.0621 -1.9851
  736TIP3    H223700   6.222   3.594   2.590  1.1465 -1.8387 -1.0830
  737TIP3   OH223701   1.630   4.314  15.884 -0.7384 -0.6584  0.3545
  737TIP3    H123702   1.676   4.354  15.958 -0.7971 -0.1986  0.1486
  737TIP3    H223703   1.538   4.314  15.910 -1.0280  1.3257 -0.4987
  738TIP3   OH223704   2.890   1.715   2.381  0.4612 -0.7676  0.0901
  738TIP3    H123705   2.829   1.654   2.422 -0.6782 -0.0407 -0.4532
  738TIP3    H223706   2.976   1.672   2.387  0.3090 -0.8272  2.8837
  739TIP3   OH223707   2.059   1.619   3.984 -0.2577 -0.1666  0.5184
  739TIP3    H123708   2.001   1.600   4.058 -0.1986 -1.9811  0.1439
  739TIP3    H223709   2.127   1.552   3.989  0.0495  0.0119 -0.8634
  740TIP3   OH223710   5.232   6.228   0.149  0.5974  0.0607 -0.2496
  740TIP3    H123711   5.264   6.315   0.122 -0.9292  0.8418  0.3591
  740TIP3    H223712   5.230   6.232   0.244 -1.5161  0.1363 -0.2661
  741TIP3   OH223713   0.779   4.389  14.780 -0.5137 -0.4524 -0.0889
  741TIP3    H123714   0.779   4.438  14.697 -1.4019 -0.8604 -0.3489
  741TIP3    H223715   0.746   4.303  14.756  1.9909 -1.5524  0.1776
  742TIP3   OH223716   3.800   0.054   3.055  0.4373  0.6486 -0.0383
  742TIP3    H123717   3.860   0.043   2.982  1.2282  1.8987  0.3888
  742TIP3    H223718   3.856   0.064   3.132 -0.3250  1.0719  0.4816
  743TIP3   OH223719   5.202   5.376   1.407 -0.0118 -0.6786  0.1726
  743TIP3    H123720   5.137   5.446   1.403  1.0677  0.2759 -1.8075
  743TIP3    H223721   5.246   5.389   1.491  0.4895  1.3530 -0.3599
  744TIP3   OH223722   4.838   5.861   3.788  0.1831  0.3702  0.0630
  744TIP3    H123723   4.767   5.895   3.733  0.7872  0.9995 -0.3353
  744TIP3    H223724   4.913   5.916   3.768  0.5322  0.3378  1.2136
  745TIP3   OH223725   0.061   5.596   3.748  0.1618  0.7749  0.2897
  745TIP3    H123726  -0.030   5.620   3.763  0.2421  0.6441  1.0747
  745TIP3    H223727   0.097   5.584   3.836  1.2960  2.1551  0.0670
  746TIP3   OH223728   6.724   4.939   3.830 -0.0595  0.6414  0.2921
  746TIP3    H123729   6.818   4.948   3.817  0.4133 -2.6365  0.4968
  746TIP3    H223730   6.686   4.953   3.743  0.5295  2.2043  0.2507
  747TIP3   OH223731   1.096   0.922   0.146  0.3705 -1.0074  0.3957
  747TIP3    H123732   1.130   0.968   0.223 -1.2598 -0.2413  0.6888
  747TIP3    H223733   1.022   0.871   0.179 -1.9307  1.2136 -0.9788
  748TIP3   OH223734   2.244   1.438  15.644  0.0362 -0.2426 -0.2628
  748TIP3    H123735   2.248   1.389  15.726  2.0198 -1.1726 -0.8632
  748TIP3    H223736   2.212   1.375  15.579  3.5081 -1.2022 -1.2421
  749TIP3   OH223737   1.597   5.273   0.903 -0.1187 -0.2923 -0.6594
  749TIP3    H123738   1.625   5.211   0.835 -2.2826 -0.7854 -1.1848
  749TIP3    H223739   1.598   5.358   0.859  2.7135  0.1243  0.0207
  750TIP3   OH223740   4.953   1.414  13.389  0.1897  0.1511  0.1034
  750TIP3    H123741   4.990   1.378  13.309 -0.9020 -2.7866  0.7815
  750TIP3    H223742   4.952   1.509  13.375  0.9494 -0.1905 -2.9034
  751TIP3   OH223743   1.327   2.116   5.038 -1.4380 -0.2931 -0.1150
  751TIP3    H123744   1.254   2.150   4.986 -0.9202  1.3481  0.1574
  751TIP3    H223745   1.337   2.180   5.109 -1.4991 -1.9639  1.4619
  752TIP3   OH223746   5.423   5.258  13.040  0.1877 -0.5020  0.1383
  752TIP3    H123747   5.431   5.335  12.984  0.9411 -1.0387 -0.5112
  752TIP3    H223748   5.335   5.225  13.022 -0.4096  0.5721  0.9337
  753TIP3   OH223749   3.743   5.552  15.891  0.5415 -0.1611  0.2298
  753TIP3    H123750   3.716   5.534  15.801 -2.9504  2.5450  0.5475
  753TIP3    H223751   3.825   5.601  15.883  1.0955 -1.2720 -1.3280
  754TIP3   OH223752   4.953   5.478   6.714 -0.7069  0.1782 -0.0012
  754TIP3    H123753   5.044   5.460   6.737 -0.9521  2.2508  3.2136
  754TIP3    H223754   4.956   5.508   6.623  1.9120  0.7431  0.2117
  755TIP3   OH223755   3.512   1.362  15.655  0.4845  0.2347 -0.4514
  755TIP3    H123756   3.493   1.425  15.586 -0.4108  0.3211 -0.1339
  755TIP3    H223757   3.472   1.280  15.625 -1.6822  0.7377  0.8260
  756TIP3   OH223758   1.044   6.256  13.050  0.1772  0.2619 -0.0675
  756TIP3    H123759   0.952   6.243  13.074  0.3292  0.8825  0.9426
  756TIP3    H223760   1.043   6.274  12.957 -0.8991  1.7748  0.2099
  757TIP3   OH223761   6.364   5.566   2.392 -0.4228  0.6727  0.2931
  757TIP3    H123762   6.379   5.493   2.452 -3.9610  1.3800  2.2851
  757TIP3    H223763   6.362   5.643   2.448 -3.8645  1.3628 -0.5921
  758TIP3   OH223764   5.089   3.958   5.699 -0.5288  0.2408  0.4002
  758TIP3    H123765   5.175   3.993   5.724 -0.1629  0.0972 -0.6102
  758TIP3    H223766   5.071   3.891   5.765  0.5051 -0.2734  0.1926
  759TIP3   OH223767   6.128   1.173  13.606  0.3648 -0.0200 -0.6081
  759TIP3    H123768   6.087   1.098  13.563 -1.2917  2.1279 -3.0657
  759TIP3    H223769   6.063   1.202  13.670 -0.6539  1.3937 -2.1958
  760TIP3   OH223770   1.842   2.797  14.237 -0.3071 -0.1800  0.1054
  760TIP3    H123771   1.858   2.705  14.256 -0.1282 -0.7021 -2.2539
  760TIP3    H223772   1.929   2.832  14.215 -0.5978  0.1318 -0.5757
  761TIP3   OH223773   3.762   3.621   3.190 -0.4905 -0.0650 -0.8106
  761TIP3    H123774   3.839   3.658   3.148  0.1848 -0.9307 -0.3692
  761TIP3    H223775   3.691   3.682   3.169  0.7688  2.1054  0.7721
  762TIP3   OH223776   0.573   1.156   1.248  0.2997  0.4504 -0.4705
  762TIP3    H123777   0.552   1.224   1.313  0.4810 -1.7300  2.0695
  762TIP3    H223778   0.633   1.097   1.294  1.2952 -0.6908 -3.0422
  763TIP3   OH223779   0.721   3.388  16.467  0.6107  0.0323  0.3995
  763TIP3    H123780   0.713   3.463  16.525  1.8225 -0.4086  1.1776
  763TIP3    H223781   0.816   3.375  16.457  0.4405 -1.4457  0.3887
  764TIP3   OH223782   2.913   3.793  11.331 -0.6179  0.1466  0.3984
  764TIP3    H123783   2.875   3.860  11.389  1.0014 -0.7428  2.5937
  764TIP3    H223784   2.862   3.714  11.348 -1.0452  0.2085 -0.4996
  765TIP3   OH223785   2.042   3.894   4.153  0.4736 -1.1515  0.4138
  765TIP3    H123786   2.132   3.917   4.130 -0.2259  0.9606 -0.3785
  765TIP3    H223787   2.011   3.966   4.207 -0.8761 -1.6615  0.3649
  766TIP3   OH223788   4.813   2.653   4.038 -0.2611 -0.7996  0.1567
  766TIP3    H123789   4.861   2.629   4.117 -0.0074 -0.0448  0.2446
  766TIP3    H223790   4.829   2.581   3.977  0.8298 -0.6541  0.2557
  767TIP3   OH223791   2.909   4.002   3.860 -0.0838  0.7526 -0.4735
  767TIP3    H123792   2.910   3.961   3.774  2.3288 -1.0508  0.3105
  767TIP3    H223793   2.817   4.001   3.886 -0.6099 -0.4932 -2.2061
  768TIP3   OH223794   0.713   5.707   1.602 -0.6086  0.7238  0.1209
  768TIP3    H123795   0.788   5.663   1.641 -0.9879  0.7533  0.9111
  768TIP3    H223796   0.650   5.715   1.674 -1.2518  0.9559 -0.4533
  769TIP3   OH223797   0.674   4.253  17.042 -0.5298 -0.3499 -0.2459
  769TIP3    H123798   0.693   4.279  17.132 -0.0354 -0.4118 -0.3309
  769TIP3    H223799   0.611   4.318  17.012  1.4486  1.4317 -0.7856
  770TIP3   OH223800   4.779   2.895   1.141 -0.2712  0.0134  0.7688
  770TIP3    H123801   4.838   2.821   1.126  1.9877  1.3669  2.3176
  770TIP3    H223802   4.691   2.857   1.139  0.6589 -2.2703 -0.7357
  771TIP3   OH223803   5.469   2.493  14.377 -0.1271 -0.2002 -0.3064
  771TIP3    H123804   5.453   2.483  14.471  0.1330 -0.7930 -0.3185
  771TIP3    H223805   5.530   2.422  14.355 -1.9818 -1.5474 -1.3796
  772TIP3   OH223806   3.921   1.943   6.609  0.0008  0.2965  0.0412
  772TIP3    H123807   4.005   1.936   6.566 -0.0811  1.5085 -0.3384
  772TIP3    H223808   3.924   1.877   6.679 -0.0326 -2.0158 -2.0083
  773TIP3   OH223809   4.350   6.255  13.764  0.3074  0.3108  0.1702
  773TIP3    H123810   4.420   6.313  13.733  0.5766  0.4809  1.0801
  773TIP3    H223811   4.362   6.174  13.714  0.6941  0.5972 -0.2108
  774TIP3   OH223812   0.149   4.539  16.771 -0.0873 -0.0083 -0.3855
  774TIP3    H123813   0.185   4.620  16.806 -0.5348  0.3784 -0.8149
  774TIP3    H223814   0.170   4.473  16.837 -0.8295  0.6894  0.5760
  775TIP3   OH223815   3.855   1.499   6.149 -0.2711  0.2516  0.4324
  775TIP3    H123816   3.799   1.432   6.187  0.2723  0.5531  1.8209
  775TIP3    H223817   3.914   1.452   6.091 -0.5357 -0.3409  0.6412
  776TIP3   OH223818   1.788   5.845   5.096  0.2319 -0.4802  0.3849
  776TIP3    H123819   1.792   5.940   5.111  0.0345 -0.3478 -0.3315
  776TIP3    H223820   1.713   5.834   5.037  0.8859 -0.9684 -0.3741
  777TIP3   OH223821   6.410   6.140  12.748 -0.7776  0.4664  0.0791
  777TIP3    H123822   6.382   6.147  12.657 -1.7513  0.4419  0.3721
  777TIP3    H223823   6.501   6.109  12.742  0.2992  3.4338 -0.9711
  778TIP3   OH223824   2.902   5.521   1.677  0.7753  0.4740  1.1337
  778TIP3    H123825   2.888   5.615   1.677 -0.0873  0.4205 -1.3256
  778TIP3    H223826   2.965   5.506   1.606  0.0410 -0.8833  0.7269
  779TIP3   OH223827   3.427   1.123  17.085  0.2617  0.0993 -0.0055
  779TIP3    H123828   3.366   1.067  17.037  0.0764  0.5483 -0.2968
  779TIP3    H223829   3.372   1.190  17.125  0.6067  0.7407 -0.6023
  780TIP3   OH223830   2.714   3.065   1.206 -0.1937  0.3646 -0.0309
  780TIP3    H123831   2.650   3.073   1.135 -0.9627  0.6507  0.6747
  780TIP3    H223832   2.693   2.982   1.248  0.1546  0.2737 -0.0357
  781TIP3   OH223833   4.465   0.433   2.049 -0.6332  0.4928 -0.0430
  781TIP3    H123834   4.475   0.499   2.118  0.0169  0.0909  0.2591
  781TIP3    H223835   4.478   0.482   1.968 -2.2956  1.1422  0.0530
  782TIP3   OH223836   1.355   3.975  16.995 -0.0355  0.0242  0.1424
  782TIP3    H123837   1.402   3.940  16.920  2.9485  2.5630  0.6331
  782TIP3    H223838   1.348   3.902  17.056  1.1845 -1.0292 -0.9391
  783TIP3   OH223839   3.711   5.988  16.463 -0.0877 -0.2825  0.2419
  783TIP3    H123840   3.628   5.950  16.493 -0.4531 -0.5476 -1.0604
  783TIP3    H223841   3.723   5.954  16.374  0.4238  1.3176 -0.3351
  784TIP3   OH223842   3.394   1.839  12.045  0.4324  0.6531  0.4887
  784TIP3    H123843   3.330   1.864  12.111 -0.0046 -0.2992  0.4486
  784TIP3    H223844   3.447   1.772  12.088  0.3582  0.2682 -0.0072
  785TIP3   OH223845   5.429   0.345   3.406  1.3244  0.1278 -0.3217
  785TIP3    H123846   5.401   0.371   3.318 -2.0733  1.6393  1.0392
  785TIP3    H223847   5.474   0.421   3.440 -0.3321  0.8562  0.3489
  786TIP3   OH223848   6.148   1.000   3.222  0.0966  0.0844  0.0514
  786TIP3    H123849   6.093   0.923   3.208  0.6881 -0.2804 -0.2846
  786TIP3    H223850   6.228   0.982   3.173  2.2052 -1.1593  3.5727
  787TIP3   OH223851   1.483   1.462   0.862  0.2680 -0.1561 -0.0264
  787TIP3    H123852   1.458   1.440   0.773 -2.0580 -0.6115  0.6749
  787TIP3    H223853   1.433   1.541   0.882  1.2060  0.2724  0.6978
  788TIP3   OH223854   0.080   6.414  15.472 -0.1986 -0.4397  0.0072
  788TIP3    H123855   0.106   6.424  15.380  1.0241 -2.3530  0.0862
  788TIP3    H223856   0.089   6.501  15.509  2.6246 -0.2400 -0.9128
  789TIP3   OH223857   1.293   5.755   3.835 -0.0016 -0.3568  0.6952
  789TIP3    H123858   1.305   5.689   3.904 -2.0290 -2.0419 -0.4555
  789TIP3    H223859   1.309   5.707   3.754  0.8604  1.2237 -0.0972
  790TIP3   OH223860   3.256   0.741   4.757 -0.0683  0.7485  0.0566
  790TIP3    H123861   3.162   0.756   4.757 -0.7614 -2.6316  0.3690
  790TIP3    H223862   3.285   0.768   4.844 -1.2862 -0.4043  0.8609
  791TIP3   OH223863   0.372   4.261   1.249  0.5034 -0.0453  0.3825
  791TIP3    H123864   0.358   4.269   1.154  0.1152 -1.7975  0.2616
  791TIP3    H223865   0.424   4.338   1.271 -0.4539  1.0786 -1.0228
  792TIP3   OH223866   3.734   6.550  15.343 -0.1656  0.2692  0.2062
  792TIP3    H123867   3.771   6.636  15.325  3.0012 -1.3254 -1.6981
  792TIP3    H223868   3.669   6.536  15.274 -1.1118  1.2493  0.8533
  793TIP3   OH223869   3.126   6.671   1.357 -0.1584  0.3164  0.1378
  793TIP3    H123870   3.088   6.713   1.280  1.8481 -1.5855 -2.0402
  793TIP3    H223871   3.054   6.618   1.393 -0.7425  0.0663 -1.3298
  794TIP3   OH223872   3.580   6.058  11.042  0.2020  0.2812 -0.0173
  794TIP3    H123873   3.666   6.020  11.056 -0.3704 -1.3782 -0.7991
  794TIP3    H223874   3.589   6.110  10.962  1.3773  3.1977  1.8404
  795TIP3   OH223875   6.681   2.021  10.546 -0.2777 -0.2416  0.5661
  795TIP3    H123876   6.685   2.007  10.451  2.1690  0.6897  0.4784
  795TIP3    H223877   6.603   2.076  10.559 -0.6037 -0.3188 -0.8952
  796TIP3   OH223878   0.554   1.750   2.855 -0.0967 -0.1147 -0.2123
  796TIP3    H123879   0.646   1.774   2.843 -0.0105  0.6014  1.5929
  796TIP3    H223880   0.507   1.834   2.861 -0.4180 -0.3761  1.7682
  797TIP3   OH223881   1.704   0.391  13.004  0.0199  0.1993 -0.3828
  797TIP3    H123882   1.708   0.479  13.040 -1.6452 -0.1310  0.7437
  797TIP3    H223883   1.612   0.379  12.980  0.0542 -1.4474  0.1430
  798TIP3   OH223884   4.341   5.670  13.470  0.0254  0.1731 -0.4785
  798TIP3    H123885   4.419   5.725  13.464 -0.2756  0.6146 -0.4509
  798TIP3    H223886   4.274   5.718  13.421 -0.3102 -0.0500 -0.2455
  799TIP3   OH223887   5.894   4.971  17.097 -0.1274 -0.8163 -0.3001
  799TIP3    H123888   5.903   4.906  17.027 -1.4391 -0.1262 -1.1684
  799TIP3    H223889   5.801   4.968  17.120 -0.3019  0.9427 -0.6066
  800TIP3   OH223890   0.008   0.176   3.312  0.1519 -0.9033  0.5760
  800TIP3    H123891   0.066   0.252   3.310  0.4318 -1.1346 -0.1477
  800TIP3    H223892  -0.078   0.213   3.332 -0.0101 -0.1993 -1.2673
  801TIP3   OH223893   6.130   2.759   4.890  0.2382 -0.3916  0.6105
  801TIP3    H123894   6.107   2.763   4.798  0.7873  0.6661  0.4973
  801TIP3    H223895   6.047   2.768   4.937 -0.0068 -0.6179  0.2201
  802TIP3   OH223896   1.458   0.495  16.334 -0.1571  0.0423  0.2325
  802TIP3    H123897   1.455   0.508  16.429 -2.4745 -0.4560  0.3033
  802TIP3    H223898   1.450   0.583  16.297 -0.7157  0.1193  0.5292
  803TIP3   OH223899   3.649   1.022   6.378 -0.3023  0.7491  0.5301
  803TIP3    H123900   3.708   0.948   6.394 -0.3241  0.7882  0.8036
  803TIP3    H223901   3.626   1.054   6.466 -2.5972 -0.7526  0.5809
  804TIP3   OH223902   0.659   2.170   0.434  0.1271  0.0669  0.3032
  804TIP3    H123903   0.662   2.159   0.338  0.2010  0.4837  0.2585
  804TIP3    H223904   0.566   2.175   0.454  0.1369  1.1625  0.1171
  805TIP3   OH223905   3.193   0.204  15.048 -0.0351  0.2441 -0.3754
  805TIP3    H123906   3.246   0.227  15.125 -0.0962 -2.3390  0.5234
  805TIP3    H223907   3.104   0.225  15.074  0.0670  0.4370 -0.1757
  806TIP3   OH223908   0.165   5.208   3.186  0.1360  0.3277 -0.1339
  806TIP3    H123909   0.163   5.116   3.159  0.6523  0.7520 -1.6938
  806TIP3    H223910   0.258   5.226   3.200 -0.0129  0.4806  0.6897
  807TIP3   OH223911   0.226   3.949  13.420  0.4751  0.5384  0.2693
  807TIP3    H123912   0.293   3.889  13.450 -1.3805 -0.7048  2.2759
  807TIP3    H223913   0.185   3.906  13.345 -0.8325 -0.8229  1.6857
  808TIP3   OH223914   4.289   6.563   5.796  0.2382 -0.1605 -0.2444
  808TIP3    H123915   4.321   6.591   5.711  0.7342 -1.9887 -0.7056
  808TIP3    H223916   4.367   6.563   5.852  0.5287 -1.8806 -0.6155
  809TIP3   OH223917   4.856   4.775   0.990 -0.6638 -0.3275 -0.6376
  809TIP3    H123918   4.923   4.772   0.922 -0.7738 -0.9479 -0.7276
  809TIP3    H223919   4.817   4.687   0.990  0.2197 -0.7661  1.1104
  810TIP3   OH223920   5.274   1.186   5.175 -0.0411 -0.5141  0.1280
  810TIP3    H123921   5.225   1.241   5.237 -0.6133 -1.5062  0.5869
  810TIP3    H223922   5.250   1.220   5.089 -1.2953 -0.7587  0.3618
  811TIP3   OH223923   0.121   4.320   4.235  0.0453  0.8308 -0.6640
  811TIP3    H123924   0.136   4.226   4.222 -0.3074  0.7861 -0.7670
  811TIP3    H223925   0.208   4.357   4.246  0.1292  0.2770  0.7959
  812TIP3   OH223926   3.600   1.961  14.083 -0.2913  0.0811  0.0826
  812TIP3    H123927   3.675   2.018  14.100  0.4557 -0.9662  0.3995
  812TIP3    H223928   3.550   1.961  14.165  0.7324 -1.1907  0.7358
  813TIP3   OH223929   5.688   4.348  15.357 -0.4173  0.6515 -0.6181
  813TIP3    H123930   5.598   4.350  15.324 -0.7427 -1.1465  0.0485
  813TIP3    H223931   5.680   4.370  15.450 -0.1533  0.6468 -0.5933
  814TIP3   OH223932   5.611   5.345   1.921  0.1592  0.3581  0.0681
  814TIP3    H123933   5.699   5.377   1.904 -0.1435  1.2735  0.1583
  814TIP3    H223934   5.582   5.309   1.837  0.5568  0.1924 -0.0020
  815TIP3   OH223935   1.075   4.664  11.665 -0.1815  0.7359 -0.0804
  815TIP3    H123936   1.072   4.724  11.740 -1.9989  1.6834 -0.8609
  815TIP3    H223937   1.097   4.721  11.591  0.7697 -0.0589 -0.4261
  816TIP3   OH223938   4.834   3.872   6.763  0.3559 -0.5970 -0.0569
  816TIP3    H123939   4.824   3.923   6.682 -0.8745 -0.0986  0.3827
  816TIP3    H223940   4.776   3.797   6.751  0.2605 -0.5820  0.3030
  817TIP3   OH223941   6.221   0.058   1.453 -0.4283  0.4273  0.5542
  817TIP3    H123942   6.169   0.110   1.392 -0.6730 -0.0419  0.3588
  817TIP3    H223943   6.158  -0.000   1.495  0.2209 -2.0207 -1.5659
  818TIP3   OH223944   0.298   4.420   3.564  0.0556  0.0207  0.3315
  818TIP3    H123945   0.304   4.388   3.653 -1.1375 -0.6086  0.2024
  818TIP3    H223946   0.280   4.514   3.574  4.4938  1.0605  0.7086
  819TIP3   OH223947   3.831   3.722  11.633  0.2429  0.1080 -0.1888
  819TIP3    H123948   3.894   3.753  11.697  2.8842 -2.1982 -1.4317
  819TIP3    H223949   3.840   3.782  11.559 -0.7251  1.0944  0.4665
  820TIP3   OH223950   6.214   0.808   5.252  0.0112  0.5487 -0.4416
  820TIP3    H123951   6.227   0.884   5.308 -0.5355  0.1155  0.3013
  820TIP3    H223952   6.161   0.840   5.179 -1.2370  0.6428  0.4707
  821TIP3   OH223953   0.016   3.516  11.605 -0.0081  0.3653  0.1150
  821TIP3    H123954  -0.080   3.513  11.604 -0.0049 -1.6544  0.5669
  821TIP3    H223955   0.038   3.591  11.551 -1.8461  0.7239 -0.2190
  822TIP3   OH223956   1.435   3.103  12.326 -0.0561 -0.2749  0.3479
  822TIP3    H123957   1.344   3.090  12.350  0.0860 -0.2067  0.9349
  822TIP3    H223958   1.464   3.178  12.379  0.5659 -0.8072  0.7742
  823TIP3   OH223959   6.324   1.424   5.620 -0.0631 -0.0598 -0.4487
  823TIP3    H123960   6.322   1.433   5.715  0.0742  0.1351 -0.4619
  823TIP3    H223961   6.387   1.491   5.592  2.1081 -1.9937 -0.4507
  824TIP3   OH223962   6.806   3.036  14.799 -0.3744 -0.7103 -0.1710
  824TIP3    H123963   6.820   3.120  14.754 -1.3340 -0.8325 -0.7334
  824TIP3    H223964   6.847   3.047  14.885 -0.0371  0.1487 -0.4304
  825TIP3   OH223965   5.892   4.024   0.426 -0.4691  0.5518  0.2068
  825TIP3    H123966   5.976   3.993   0.391  0.5875 -0.6588  3.4578
  825TIP3    H223967   5.832   3.951   0.413 -0.7569  0.9913 -1.0864
  826TIP3   OH223968   1.549   6.819   3.379 -0.5230 -0.4391  0.4902
  826TIP3    H123969   1.604   6.742   3.395 -1.3259 -1.2029 -0.2337
  826TIP3    H223970   1.547   6.865   3.462 -1.7841 -2.3863  1.6213
  827TIP3   OH223971   2.532   1.469   0.930  0.0091  0.4660  0.2658
  827TIP3    H123972   2.504   1.378   0.937  2.0976 -0.2205  0.4784
  827TIP3    H223973   2.457   1.515   0.893 -0.0647 -1.9633 -3.0285
  828TIP3   OH223974   3.802   4.490   5.894  0.1689  0.0870  0.7094
  828TIP3    H123975   3.768   4.451   5.974 -1.5249  0.2702  0.1287
  828TIP3    H223976   3.828   4.579   5.920 -2.2799  0.8829  0.7147
  829TIP3   OH223977   4.397   4.147  12.508  0.3759 -0.4247  0.2074
  829TIP3    H123978   4.460   4.194  12.561  0.4129  1.4991 -1.4345
  829TIP3    H223979   4.375   4.207  12.436 -1.7997 -1.7899 -0.3915
  830TIP3   OH223980   2.905   2.822   4.709  0.3297 -0.2599 -0.0021
  830TIP3    H123981   2.969   2.883   4.672 -0.1418  0.3456  0.1528
  830TIP3    H223982   2.953   2.740   4.721  1.0056  0.1139 -0.1153
  831TIP3   OH223983   2.601   0.437   4.969 -0.0673 -0.1723 -0.7302
  831TIP3    H123984   2.530   0.412   4.911 -0.0458 -3.0104  0.2735
  831TIP3    H223985   2.644   0.354   4.991  0.7809  0.9108  2.2134
  832TIP3   OH223986   0.537   3.043   0.340 -0.4241 -0.1461 -0.0627
  832TIP3    H123987   0.530   3.067   0.432 -0.3380  1.1457 -0.3755
  832TIP3    H223988   0.630   3.053   0.319 -0.7842  1.8996 -0.8660
  833TIP3   OH223989   4.013   0.354  17.018 -0.5894 -0.7694  0.8450
  833TIP3    H123990   3.963   0.406  17.081  0.9178  3.1971 -0.8917
  833TIP3    H223991   4.093   0.406  17.003  1.2230 -3.7888 -0.9899
  834TIP3   OH223992   6.009   4.321  13.011  0.8957  0.2094 -0.7261
  834TIP3    H123993   6.092   4.358  12.980  2.0801 -0.5029  1.3833
  834TIP3    H223994   6.035   4.253  13.073 -1.2725 -1.9291 -2.0060
  835TIP3   OH223995   3.465   3.581   5.317 -0.2803  0.4220  0.1910
  835TIP3    H123996   3.523   3.649   5.282 -0.3957  0.5764  0.2941
  835TIP3    H223997   3.510   3.549   5.395 -0.2756  0.4555  0.2019
  836TIP3   OH223998   3.497   1.921   1.409 -0.0250  0.0016 -0.1572
  836TIP3    H123999   3.432   1.924   1.479 -0.9078  1.9745 -0.9912
  836TIP3    H224000   3.572   1.876   1.448 -1.0202 -0.2617  1.5764
  837TIP3   OH224001   1.785   6.255   1.918 -0.2792 -0.4254 -0.8494
  837TIP3    H124002   1.734   6.189   1.872  0.2516 -1.1984 -0.3577
  837TIP3    H224003   1.855   6.279   1.857  0.3019 -1.2973 -0.5503
  838TIP3   OH224004   6.845   5.839   5.871 -0.0031 -0.2479  0.3531
  838TIP3    H124005   6.897   5.799   5.941 -2.4096 -2.6427  0.9380
  838TIP3    H224006   6.803   5.914   5.913  1.8559  0.9600  0.2022
  839TIP3   OH224007   6.491   1.336   0.266  0.1153 -0.0146  0.3590
  839TIP3    H124008   6.528   1.414   0.225 -3.3521  0.2154 -2.9699
  839TIP3    H224009   6.508   1.265   0.203  1.2186 -1.4996  2.2394
  840TIP3   OH224010   6.230   3.952  13.389 -0.0930  0.5880  0.0098
  840TIP3    H124011   6.273   4.010  13.453  0.6933 -0.0737  0.0986
  840TIP3    H224012   6.185   3.887  13.442 -1.6611  1.5499 -0.0691
  841TIP3   OH224013   1.173   0.577  13.120 -0.2794  0.3051  0.2066
  841TIP3    H124014   1.241   0.510  13.119 -0.1499  0.4332  0.4000
  841TIP3    H224015   1.221   0.660  13.128 -0.4838  0.3615  0.8737
  842TIP3   OH224016   4.486   6.824  13.259 -0.4081 -0.4800 -0.3834
  842TIP3    H124017   4.463   6.756  13.323 -2.2428 -0.3482 -0.8497
  842TIP3    H224018   4.448   6.904  13.295  0.5440  0.0487 -0.5265
  843TIP3   OH224019   2.986   2.990  15.663  0.0691 -0.1894 -0.3542
  843TIP3    H124020   3.074   2.967  15.635  0.2461 -0.4874  0.4475
  843TIP3    H224021   2.983   3.085  15.656  0.1614 -0.2363 -1.2128
  844TIP3   OH224022   2.495   4.662  12.643  0.2371  0.0852  1.0980
  844TIP3    H124023   2.469   4.662  12.551 -1.5331  1.2565  1.5455
  844TIP3    H224024   2.573   4.607  12.646 -0.5503 -1.2542 -0.8498
  845TIP3   OH224025   5.540   1.503   3.817  0.2977 -0.0293  0.5913
  845TIP3    H124026   5.463   1.512   3.873 -0.2259  0.0041 -0.1229
  845TIP3    H224027   5.532   1.416   3.779  1.5751 -0.7704  1.8998
  846TIP3   OH224028   1.080   1.653   3.467  0.0362 -0.2790  0.3548
  846TIP3    H124029   1.073   1.688   3.555 -0.1953  1.2043 -0.2335
  846TIP3    H224030   1.165   1.609   3.465 -0.4955 -1.4336  1.6709
  847TIP3   OH224031   3.516   2.197  16.167 -0.3279  0.5643  0.5416
  847TIP3    H124032   3.548   2.249  16.241  0.9842  1.6122 -0.7081
  847TIP3    H224033   3.465   2.259  16.114 -1.5008 -0.2453  0.6943
  848TIP3   OH224034   6.222   3.101  10.906 -0.6332 -0.3337 -0.0260
  848TIP3    H124035   6.244   3.008  10.913 -0.0600 -0.0902  3.3773
  848TIP3    H224036   6.293   3.139  10.855  0.2701 -1.4730  0.3440
  849TIP3   OH224037   4.920   6.309   4.423  0.1715 -0.3933  0.7911
  849TIP3    H124038   4.901   6.253   4.347  0.1757  1.0221 -0.2985
  849TIP3    H224039   4.887   6.259   4.498 -1.2395 -1.1919 -0.2981
  850TIP3   OH224040   5.338   4.334   5.765  0.3932 -0.4375  0.3391
  850TIP3    H124041   5.393   4.342   5.687 -1.0199 -1.4258 -0.7995
  850TIP3    H224042   5.378   4.263   5.815  1.0795 -0.0569  0.3507
  851TIP3   OH224043   5.762   5.075  12.199 -0.1505  0.0142 -0.0090
  851TIP3    H124044   5.698   5.054  12.131 -2.1371  0.8585  1.4858
  851TIP3    H224045   5.715   5.057  12.281  2.1513 -0.9964  1.1700
  852TIP3   OH224046   0.931   1.591  15.361  0.0982 -0.1445 -1.0318
  852TIP3    H124047   0.877   1.609  15.438 -1.1861 -0.6576 -1.7804
  852TIP3    H224048   0.974   1.674  15.342  0.4579 -0.0135  0.2455
  853TIP3   OH224049   0.315   4.645   4.309  0.2963 -0.1113 -0.0337
  853TIP3    H124050   0.325   4.557   4.272  1.4924 -0.1105  0.2640
  853TIP3    H224051   0.244   4.636   4.372  1.3706 -1.2361  1.0762
  854TIP3   OH224052   5.130   0.964   5.250 -0.4888  0.0157 -0.2062
  854TIP3    H124053   5.162   0.918   5.172 -0.9554  0.1431 -0.4762
  854TIP3    H224054   5.175   0.922   5.323  0.0492 -0.0176 -0.5573
  855TIP3   OH224055   6.509   4.170   5.131  0.3074 -0.3057  0.2451
  855TIP3    H124056   6.592   4.198   5.093  0.7236 -1.1765  0.4885
  855TIP3    H224057   6.508   4.209   5.218  1.9803 -2.8583  1.5248
  856TIP3   OH224058   0.512   2.745  12.773  0.1990 -0.0218 -0.4320
  856TIP3    H124059   0.531   2.667  12.720  0.4392  0.6063 -1.2775
  856TIP3    H224060   0.586   2.751  12.833 -0.0635 -0.7244 -0.0226
  857TIP3   OH224061   1.567   4.732   6.398 -0.1927 -0.3328 -0.1160
  857TIP3    H124062   1.607   4.803   6.348  0.6887 -0.1682  0.8006
  857TIP3    H224063   1.635   4.704   6.459  0.1272 -3.1535 -1.5837
  858TIP3   OH224064   2.825   5.177  11.673  0.6156 -0.1627  0.5524
  858TIP3    H124065   2.800   5.152  11.584  1.0114 -0.7767  0.6064
  858TIP3    H224066   2.873   5.259  11.662 -1.6364  1.2276  0.4798
  859TIP3   OH224067   1.761   6.588   2.224  1.2531  0.4374  0.3921
  859TIP3    H124068   1.737   6.576   2.132  2.1938 -0.2189  0.2209
  859TIP3    H224069   1.686   6.554   2.273  0.4589  1.3966 -0.1161
  860TIP3   OH224070   0.950   3.203   3.099  0.0055  0.2991 -0.4106
  860TIP3    H124071   0.929   3.292   3.070  0.0134  0.2384 -0.6079
  860TIP3    H224072   0.926   3.148   3.024  0.5778  0.1950 -0.5190
  861TIP3   OH224073   3.100   3.838  13.967 -0.5084 -0.1877 -0.0886
  861TIP3    H124074   3.083   3.744  13.961  2.0999 -0.6828 -1.2685
  861TIP3    H224075   3.073   3.872  13.881  0.9951 -0.3934 -0.6829
  862TIP3   OH224076   5.813   3.562  11.742  0.4038  1.1276  0.1717
  862TIP3    H124077   5.839   3.486  11.689 -0.8082  1.2669 -0.6616
  862TIP3    H224078   5.853   3.547  11.827 -1.9571 -1.8441  0.9255
  863TIP3   OH224079   5.331   1.631   3.976 -0.2229 -0.3145 -0.3062
  863TIP3    H124080   5.300   1.550   4.016 -3.8814  1.2231  0.3324
  863TIP3    H224081   5.354   1.687   4.050 -1.7142  0.5990 -0.4856
  864TIP3   OH224082   4.027   1.315  14.182  0.4270  0.0372  0.3429
  864TIP3    H124083   3.942   1.325  14.225  0.6315 -0.8867  0.9830
  864TIP3    H224084   4.076   1.394  14.207  0.0080  0.2345  0.5470
  865TIP3   OH224085   2.517   1.893  12.094  0.0095  0.2517  0.0161
  865TIP3    H124086   2.540   1.888  12.187 -1.9397  1.0946  0.6158
  865TIP3    H224087   2.500   1.803  12.068  0.5347  0.0112  0.4830
  866TIP3   OH224088   2.110   5.887  16.750  0.0590 -0.1885 -0.1286
  866TIP3    H124089   2.096   5.958  16.688 -0.9768 -0.1219  0.1698
  866TIP3    H224090   2.024   5.870  16.788  0.6387 -0.3290  1.1852
  867TIP3   OH224091   0.622   1.978  15.288 -0.4758 -0.0062 -0.0520
  867TIP3    H124092   0.701   1.980  15.342  0.1376 -1.2089 -0.8471
  867TIP3    H224093   0.550   1.988  15.350  0.2721  0.4197  0.7697
  868TIP3   OH224094   5.582   2.156   3.119  0.1744 -0.1892 -0.4761
  868TIP3    H124095   5.645   2.133   3.051 -0.3796 -1.5614 -0.5669
  868TIP3    H224096   5.497   2.133   3.082 -0.0449 -2.5539  1.1991
  869TIP3   OH224097   3.413   1.528  16.991 -0.0142 -0.2785  0.3073
  869TIP3    H124098   3.429   1.600  17.052 -0.8238  1.5294 -1.4506
  869TIP3    H224099   3.494   1.520  16.941 -0.5613  0.8973 -0.8517
  870TIP3   OH224100   1.440   0.610  17.044 -0.0441  0.0289  0.3832
  870TIP3    H124101   1.494   0.531  17.041  0.7369  0.5409  0.8123
  870TIP3    H224102   1.368   0.588  17.104  1.9757  0.7265  3.2377
  871TIP3   OH224103   1.814   2.002  14.080 -0.1174 -0.1766  0.3667
  871TIP3    H124104   1.850   1.917  14.104 -0.2214 -0.4451 -0.3994
  871TIP3    H224105   1.783   2.039  14.163 -0.7829 -1.2212  0.6069
  872TIP3   OH224106   1.630   3.647   1.871 -0.0764 -0.6107 -0.1821
  872TIP3    H124107   1.692   3.610   1.934  0.0666 -1.6633 -0.9163
  872TIP3    H224108   1.682   3.708   1.820  0.6863 -2.3154 -1.5383
  873TIP3   OH224109   1.783   1.975   6.127 -0.1835  0.4192 -0.2571
  873TIP3    H124110   1.873   2.007   6.128 -0.5318  1.4996 -1.3082
  873TIP3    H224111   1.750   1.991   6.215  0.3688  0.8289 -0.1215
  874TIP3   OH224112   2.498   3.895  14.333  0.0573 -0.1012  0.6470
  874TIP3    H124113   2.553   3.892  14.412  1.5227  0.0557 -0.3243
  874TIP3    H224114   2.508   3.808  14.294  2.0106  0.7846 -1.0429
  875TIP3   OH224115   5.807   6.847  13.937 -0.3282 -0.1686 -0.3716
  875TIP3    H124116   5.812   6.860  14.032 -1.5066  2.5162 -0.5783
  875TIP3    H224117   5.715   6.858  13.916 -0.4518 -2.8933 -1.6604
  876TIP3   OH224118   3.820   1.692   2.331 -0.7218 -0.1569 -0.3369
  876TIP3    H124119   3.726   1.689   2.313 -0.8900 -1.8972  0.6043
  876TIP3    H224120   3.860   1.701   2.244 -1.7586  1.7091 -0.6605
  877TIP3   OH224121   0.847   2.437   4.415 -0.6786 -0.2098  0.0652
  877TIP3    H124122   0.803   2.505   4.363  0.8883 -0.6034 -1.9034
  877TIP3    H224123   0.782   2.410   4.480 -0.6756  4.7542  2.5915
  878TIP3   OH224124   1.462   2.893   1.377  0.2750 -0.2804 -0.9323
  878TIP3    H124125   1.395   2.887   1.309 -0.6300 -0.5225 -0.0470
  878TIP3    H224126   1.505   2.807   1.376 -1.6660 -1.3556  0.6904
  879TIP3   OH224127   2.151   6.621   0.220 -0.2299 -0.1683 -0.2557
  879TIP3    H124128   2.208   6.672   0.278  1.0358  1.3831 -2.6704
  879TIP3    H224129   2.193   6.535   0.215 -0.5254 -0.4404  1.2711
  880TIP3   OH224130   3.604   0.173  14.047  0.2114  0.0984  0.2052
  880TIP3    H124131   3.580   0.259  14.080  1.2416  0.6276 -0.3997
  880TIP3    H224132   3.641   0.127  14.122  0.2693  0.4173  0.3708
  881TIP3   OH224133   3.176   5.890  12.275  0.2761  0.7538  0.5111
  881TIP3    H124134   3.162   5.970  12.325  0.7557  1.0948  0.1098
  881TIP3    H224135   3.237   5.916  12.205 -0.0754  0.1971 -0.0132
  882TIP3   OH224136   6.252   4.782   5.931  0.1070 -0.0691  0.2358
  882TIP3    H124137   6.241   4.779   5.836  0.3152  0.6842  0.1811
  882TIP3    H224138   6.164   4.769   5.966  0.0987 -0.8224 -0.0430
  883TIP3   OH224139   6.320   3.688   4.028  0.0745  0.3043 -0.5606
  883TIP3    H124140   6.375   3.706   4.104  0.1032  0.7500 -0.6826
  883TIP3    H224141   6.280   3.603   4.046  1.5506 -0.4998 -0.9158
  884TIP3   OH224142   0.966   6.812  15.927  0.6712  0.0632 -0.1642
  884TIP3    H124143   0.880   6.853  15.932  0.7278  0.2241 -0.4753
  884TIP3    H224144   0.956   6.729  15.973  0.6145  0.5265  0.6887
  885TIP3   OH224145   4.589   0.057   0.136 -0.0781 -0.0915  0.9095
  885TIP3    H124146   4.498   0.030   0.148 -0.5769  1.5773  1.0958
  885TIP3    H224147   4.614   0.020   0.051 -0.8583 -0.7624  0.9666
  886TIP3   OH224148   0.084   3.591   1.996 -0.1510 -0.0567 -0.1465
  886TIP3    H124149   0.095   3.541   1.916  0.4692 -0.8795  0.4393
  886TIP3    H224150   0.135   3.544   2.062 -1.4103  0.0652  0.9706
  887TIP3   OH224151   6.187   3.590   6.486  0.2046  0.4984 -0.2555
  887TIP3    H124152   6.144   3.505   6.493  0.9879  0.1433  0.3232
  887TIP3    H224153   6.236   3.585   6.404 -0.8618  0.9261 -0.9487
  888TIP3   OH224154   6.803   2.048   1.689  0.6683  0.4556  0.6882
  888TIP3    H124155   6.835   1.964   1.721 -0.1254 -0.0958  0.0469
  888TIP3    H224156   6.709   2.046   1.704  0.2252  0.1143 -1.7387
  889TIP3   OH224157   3.445   2.811   4.644  0.3065  0.0896  0.6457
  889TIP3    H124158   3.381   2.862   4.693 -0.7398 -1.3704  0.8563
  889TIP3    H224159   3.402   2.727   4.628  1.8480 -0.6235  0.0301
  890TIP3   OH224160   0.903   1.998  13.630 -0.0870 -0.1607 -0.3141
  890TIP3    H124161   0.936   1.995  13.540  0.2600  1.1601 -0.2516
  890TIP3    H224162   0.808   1.995  13.620 -0.0432 -0.5085 -0.6863
  891TIP3   OH224163   6.668   0.714   6.266 -0.3579 -0.4017 -0.6636
  891TIP3    H124164   6.731   0.781   6.239 -0.1303 -0.6883 -0.8495
  891TIP3    H224165   6.665   0.721   6.361 -0.2466 -0.2056 -0.6742
  892TIP3   OH224166   4.437   4.359  10.506  0.1075  0.5320  0.2829
  892TIP3    H124167   4.397   4.446  10.501  1.4171  1.2316  1.2806
  892TIP3    H224168   4.372   4.301  10.467 -1.2013  1.8238  0.4249
  893TIP3   OH224169   4.130   5.860   4.271  0.2293 -0.5180 -0.7269
  893TIP3    H124170   4.161   5.871   4.360  1.3918 -0.1091 -1.1597
  893TIP3    H224171   4.038   5.887   4.273 -0.0292 -1.4048  0.5216
  894TIP3   OH224172   0.941   1.984   6.088 -0.0300  0.2816 -0.2108
  894TIP3    H124173   0.965   1.926   6.016 -0.3643 -0.8060  0.5240
  894TIP3    H224174   0.846   1.981   6.091  0.0033 -0.1740  0.6590
  895TIP3   OH224175   3.718   6.416  13.009  0.0049 -0.1583  0.4068
  895TIP3    H124176   3.730   6.341  12.951 -1.7610 -1.0740  1.1280
  895TIP3    H224177   3.656   6.384  13.076  1.8924  0.8379  2.7677
  896TIP3   OH224178   3.730   5.273  11.370  0.0071  0.2208 -0.2206
  896TIP3    H124179   3.823   5.294  11.364 -0.2461  1.7875  0.7911
  896TIP3    H224180   3.723   5.216  11.447  0.3370 -1.4780 -1.3906
  897TIP3   OH224181   3.410   6.356   0.465 -0.3678 -0.5182 -0.5676
  897TIP3    H124182   3.380   6.415   0.534 -0.6479 -2.3330  0.9428
  897TIP3    H224183   3.445   6.280   0.512  1.7086 -0.7783 -2.3902
  898TIP3   OH224184   0.039   3.813   0.100  0.2101  0.0246  0.2634
  898TIP3    H124185   0.018   3.829   0.008  0.4688 -2.0289 -0.2009
  898TIP3    H224186   0.134   3.822   0.106  0.3893 -1.3259 -0.0568
  899TIP3   OH224187   0.032   3.293   5.088  0.3590 -0.2709  0.0419
  899TIP3    H124188   0.066   3.374   5.126  1.7346 -0.4709 -0.7037
  899TIP3    H224189  -0.038   3.266   5.147  1.7655 -0.0543  1.9104
  900TIP3   OH224190   4.043   0.640  12.654  0.1616  0.7151 -0.0592
  900TIP3    H124191   3.986   0.697  12.705 -0.0883  2.9150 -2.5990
  900TIP3    H224192   3.999   0.631  12.570  2.9777  1.6342 -1.7542
  901TIP3   OH224193   0.764   3.296   4.936  0.0202 -0.3402 -0.3132
  901TIP3    H124194   0.765   3.203   4.916 -2.3567 -0.2350 -1.1511
  901TIP3    H224195   0.672   3.318   4.946  0.5880  1.6729  1.2175
  902TIP3   OH224196   6.572   6.192   3.425  0.1420  0.1523  0.1796
  902TIP3    H124197   6.596   6.154   3.510 -0.6410 -1.1887 -0.1747
  902TIP3    H224198   6.634   6.154   3.363 -0.2513 -0.0679 -0.0838
  903TIP3   OH224199   6.479   5.666   4.163 -0.0872 -0.3636 -1.0440
  903TIP3    H124200   6.533   5.743   4.147 -0.3249 -0.3701 -1.9497
  903TIP3    H224201   6.531   5.593   4.129  0.5613 -0.7447  0.6974
  904TIP3   OH224202   1.979   4.017  13.301 -0.6635 -0.3567  0.1599
  904TIP3    H124203   2.036   4.015  13.224  0.8419 -1.3875  1.2197
  904TIP3    H224204   1.959   3.925  13.318 -0.2610 -0.2294  1.4570
  905TIP3   OH224205   1.659   4.112  16.871  0.3718  0.0125  0.2497
  905TIP3    H124206   1.732   4.156  16.827 -0.0639 -0.2732 -0.7858
  905TIP3    H224207   1.607   4.182  16.909 -0.3034  0.4105 -1.3634
  906TIP3   OH224208   1.529   3.726   0.630  0.2707  0.1512  0.1417
  906TIP3    H124209   1.567   3.767   0.708  0.8531 -0.4598  0.1879
  906TIP3    H224210   1.528   3.632   0.650 -2.3381  0.2001  0.6008
  907TIP3   OH224211   1.537   4.497   6.220 -0.1657  0.0067 -0.2553
  907TIP3    H124212   1.443   4.501   6.206 -0.5287 -1.7499  1.2794
  907TIP3    H224213   1.555   4.562   6.287 -0.3830 -0.0693 -0.1257
  908TIP3   OH224214   3.972   3.761  13.021  0.1067 -0.5696  0.1773
  908TIP3    H124215   3.896   3.816  13.002 -0.0142 -1.1043 -0.9803
  908TIP3    H224216   4.038   3.821  13.056  0.1712  0.4459 -1.5769
  909TIP3   OH224217   5.369   3.578   2.110 -0.3343  0.3212  0.5403
  909TIP3    H124218   5.440   3.604   2.168 -0.4688  0.8670  0.4713
  909TIP3    H224219   5.306   3.650   2.117  0.0029  0.7679 -0.8859
  910TIP3   OH224220   3.026   5.412   4.408 -0.1936 -0.5413 -0.2032
  910TIP3    H124221   2.955   5.476   4.399 -0.5058 -0.8997 -0.3232
  910TIP3    H224222   3.012   5.351   4.336 -1.8017 -2.5700  1.6629
  911TIP3   OH224223   5.771   2.265   3.345  0.8589  0.2268  0.1040
  911TIP3    H124224   5.842   2.273   3.282  1.1085  1.0885  0.4742
  911TIP3    H224225   5.701   2.319   3.310  1.0562  0.8379  0.6303
  912TIP3   OH224226   5.627   4.709  13.651 -0.0512  0.1537  0.6627
  912TIP3    H124227   5.675   4.761  13.588 -0.7477  0.3122  0.2570
  912TIP3    H224228   5.687   4.699  13.725  0.0694  1.5577  0.7657
  913TIP3   OH224229   3.267   3.348   4.616  0.1955 -0.3424  0.4583
  913TIP3    H124230   3.260   3.442   4.598  1.8932 -0.4651 -1.1274
  913TIP3    H224231   3.242   3.340   4.708 -0.7390  1.5373  0.4352
  914TIP3   OH224232   3.685   0.232   3.382 -0.7397  0.0726  0.0883
  914TIP3    H124233   3.711   0.315   3.422  0.0788  0.6197 -1.4825
  914TIP3    H224234   3.765   0.200   3.340 -1.8302  0.2698 -2.3136
  915TIP3   OH224235   5.333   6.457  13.614 -1.0935 -0.1461  0.3935
  915TIP3    H124236   5.405   6.426  13.559 -1.4696 -0.9891  0.3708
  915TIP3    H224237   5.257   6.457  13.556 -0.7779  2.7969 -0.2302
  916TIP3   OH224238   6.795   0.929  15.503 -0.0246  0.3137 -0.7473
  916TIP3    H124239   6.783   0.841  15.536 -0.7460  0.0955 -1.5514
  916TIP3    H224240   6.776   0.923  15.409  1.8391  0.9258 -1.2255
  917TIP3   OH224241   2.941   0.163   1.259  0.1986  0.3188 -0.7553
  917TIP3    H124242   2.874   0.148   1.193 -0.2057  0.2060 -0.3279
  917TIP3    H224243   2.891   0.181   1.340  0.6686 -1.1262 -0.1221
  918TIP3   OH224244   3.518   3.928   6.568  0.4775 -0.5127  0.0345
  918TIP3    H124245   3.554   4.015   6.584 -1.1754  0.3938 -0.8317
  918TIP3    H224246   3.431   3.930   6.610 -0.6580 -0.7892 -2.1604
  919TIP3   OH224247   1.294   5.791   2.576 -0.2723 -0.0782  0.1821
  919TIP3    H124248   1.267   5.788   2.668 -1.7486  0.8620 -0.1830
  919TIP3    H224249   1.295   5.699   2.548 -2.4940 -0.2368  0.4355
  920TIP3   OH224250   3.492   3.577   6.387 -0.5484  0.0497 -0.4563
  920TIP3    H124251   3.568   3.618   6.430 -0.2053 -1.0232  0.0011
  920TIP3    H224252   3.417   3.630   6.414 -0.3532 -0.6225  1.5558
  921TIP3   OH224253   4.846   2.324  15.756  0.0256 -0.3058  0.0375
  921TIP3    H124254   4.793   2.245  15.746  0.2541 -0.2287 -2.3757
  921TIP3    H224255   4.935   2.291  15.769 -0.2170 -0.4234  1.5252
  922TIP3   OH224256   5.427   1.303  14.827 -0.3119 -0.0671 -0.2431
  922TIP3    H124257   5.367   1.354  14.772 -0.1544 -1.5692 -1.8869
  922TIP3    H224258   5.500   1.281  14.770 -0.2831 -1.9467  0.4571
  923TIP3   OH224259   5.715   1.398  13.823 -0.3666 -0.0755 -0.0346
  923TIP3    H124260   5.750   1.459  13.888  0.0692 -1.1207  0.7329
  923TIP3    H224261   5.640   1.358  13.866 -0.6142 -0.1324 -0.5145
  924TIP3   OH224262   0.952   1.037  14.159 -0.4189 -0.0621 -0.2933
  924TIP3    H124263   0.971   1.033  14.066 -1.0517 -1.0800 -0.3958
  924TIP3    H224264   1.017   1.098  14.195 -0.3246  0.5209 -1.4222
  925TIP3   OH224265   0.773   3.661  12.300 -0.3622  0.0028 -0.0586
  925TIP3    H124266   0.815   3.586  12.343 -0.9443 -0.9603 -1.1123
  925TIP3    H224267   0.697   3.624  12.256 -3.3883  1.9141  3.0631
  926TIP3   OH224268   5.633   2.191  13.281 -0.5477  0.4845  0.0434
  926TIP3    H124269   5.661   2.245  13.206 -1.0050 -0.0651 -0.5367
  926TIP3    H224270   5.563   2.136  13.245 -0.2388 -0.3342  0.6885
  927TIP3   OH224271   2.148   4.085   5.391  0.2339 -0.0346  0.0714
  927TIP3    H124272   2.117   4.070   5.481  2.2861  1.3492  1.0806
  927TIP3    H224273   2.186   4.001   5.365  0.1793 -0.2776  0.7423
  928TIP3   OH224274   1.236   6.728   3.793 -0.1994  0.0986  0.1897
  928TIP3    H124275   1.296   6.670   3.746 -0.9420  0.3500 -1.1044
  928TIP3    H224276   1.152   6.681   3.794 -0.9124  1.2611 -1.2032
  929TIP3   OH224277   3.639   3.584  16.156 -0.2810 -0.0382 -0.0064
  929TIP3    H124278   3.555   3.596  16.199 -0.7586 -1.1730 -0.5706
  929TIP3    H224279   3.686   3.522  16.212 -0.0729  0.1049 -0.0222
  930TIP3   OH224280   0.034   3.107   2.649 -0.4147  0.3982  0.1531
  930TIP3    H124281   0.048   3.070   2.561  1.7191 -0.6521  0.8589
  930TIP3    H224282   0.036   3.031   2.707  0.9966  1.2996  1.3533
  931TIP3   OH224283   1.557   4.734   2.038 -0.0259  0.0680 -0.0471
  931TIP3    H124284   1.589   4.663   2.094 -1.1562 -0.9035 -0.6003
  931TIP3    H224285   1.468   4.708   2.014  0.9979 -0.4539 -3.7519
  932TIP3   OH224286   2.037   4.140   0.384 -0.4575  0.7310 -0.2416
  932TIP3    H124287   1.963   4.099   0.339  0.0380  2.4664 -2.7848
  932TIP3    H224288   2.115   4.105   0.340  0.1951  0.4501  1.0757
  933TIP3   OH224289   0.527   4.166   0.374 -0.9674 -0.1385  0.0568
  933TIP3    H124290   0.441   4.204   0.361 -1.9794 -2.0611  0.6428
  933TIP3    H224291   0.570   4.224   0.437 -0.9673  2.0114 -1.8226
  934TIP3   OH224292   4.806   5.213  15.642  0.3039  1.0198 -0.2142
  934TIP3    H124293   4.805   5.166  15.726 -0.8626  0.5856 -0.4491
  934TIP3    H224294   4.788   5.304  15.666 -1.7285  0.6414 -0.0901
  935TIP3   OH224295   4.321   5.737   1.816  0.4953 -0.1011  0.1638
  935TIP3    H124296   4.273   5.770   1.740  1.0632  0.3550 -0.0031
  935TIP3    H224297   4.317   5.642   1.808 -1.4109 -0.1118  0.7989
  936TIP3   OH224298   1.837   0.983   0.787 -0.5578 -0.1265 -0.0747
  936TIP3    H124299   1.773   0.931   0.738 -1.0069  0.0747  0.2891
  936TIP3    H224300   1.800   0.990   0.875 -1.6814  2.7528 -0.6796
  937TIP3   OH224301   4.328   1.898   2.681  0.9391 -0.5654  0.1073
  937TIP3    H124302   4.239   1.868   2.667  1.2678 -1.0333 -1.0830
  937TIP3    H224303   4.363   1.839   2.748  0.4326 -0.5091  0.4280
  938TIP3   OH224304   6.012   6.378   1.491 -0.1037  0.0950 -0.1054
  938TIP3    H124305   6.097   6.402   1.528  0.9809 -0.5503 -2.0357
  938TIP3    H224306   5.988   6.453   1.436  0.1443 -0.4711 -1.0123
  939TIP3   OH224307   5.124   2.435  11.872  0.0095  0.3672  0.4242
  939TIP3    H124308   5.150   2.389  11.792 -0.5680  0.6080  0.0905
  939TIP3    H224309   5.054   2.494  11.844  0.2202  0.9031  0.9930
  940TIP3   OH224310   3.113   2.252  12.405 -0.4238 -0.0304  0.2653
  940TIP3    H124311   3.047   2.218  12.466  0.8587  0.6210  2.0996
  940TIP3    H224312   3.089   2.214  12.320 -1.3708 -2.2393  1.4434
  941TIP3   OH224313   1.275   2.934  14.532 -0.2815 -0.3608 -0.1788
  941TIP3    H124314   1.249   2.964  14.619  2.5361 -0.7369  0.9065
  941TIP3    H224315   1.236   2.847  14.523 -1.6471  0.1986  0.1311
  942TIP3   OH224316   1.545   1.192  11.125 -0.2225  0.5728 -0.0054
  942TIP3    H124317   1.630   1.225  11.153  1.0613 -2.9169  0.7680
  942TIP3    H224318   1.524   1.243  11.046  2.5051  1.6603 -0.1343
  943TIP3   OH224319   3.205   6.102   0.482  0.4188  0.2321  0.0675
  943TIP3    H124320   3.272   6.126   0.547 -0.7272 -0.6932  1.6422
  943TIP3    H224321   3.146   6.177   0.480 -0.2068 -0.2159  1.0200
  944TIP3   OH224322   5.930   6.618  13.855 -0.6991  0.1273  0.2464
  944TIP3    H124323   6.024   6.636  13.861  0.0210 -3.0821  0.5701
  944TIP3    H224324   5.888   6.695  13.892  1.9069  0.8444  1.9668
  945TIP3   OH224325   2.505   3.088  12.379  0.3869 -0.8372 -0.2308
  945TIP3    H124326   2.490   2.994  12.389  1.6012 -1.1105 -0.7619
  945TIP3    H224327   2.434   3.119  12.323  0.9438 -1.7680 -1.4721
  946TIP3   OH224328   2.895   4.553   3.864  0.2073  0.2130  0.4524
  946TIP3    H124329   2.987   4.529   3.871  0.1723  0.0988  0.5234
  946TIP3    H224330   2.875   4.596   3.946  0.7008  1.9751 -0.3006
  947TIP3   OH224331   4.717   3.900   2.816  0.1148 -0.2663  0.4238
  947TIP3    H124332   4.803   3.871   2.846  0.7584  0.1054 -0.9394
  947TIP3    H224333   4.656   3.835   2.849  0.9331 -0.5854  1.3391
  948TIP3   OH224334   3.411   1.845  11.572  0.3614 -0.8659  0.2382
  948TIP3    H124335   3.361   1.898  11.509 -1.3043 -0.2869  1.9577
  948TIP3    H224336   3.497   1.886  11.575  0.6105 -1.1285 -1.8994
  949TIP3   OH224337   5.270   3.603   1.520  0.0489  0.2985 -0.0840
  949TIP3    H124338   5.306   3.514   1.522  1.7864  0.9854  0.8622
  949TIP3    H224339   5.193   3.599   1.577  0.6624 -0.3906  0.7203
  950TIP3   OH224340   4.815   1.726  14.471  1.0542  0.6211  0.2269
  950TIP3    H124341   4.876   1.797  14.451 -1.5230  2.8474 -0.4566
  950TIP3    H224342   4.816   1.671  14.393  2.8248  0.0097  0.6222
  951TIP3   OH224343   2.213   1.350  15.979  0.1059  0.3319 -0.4937
  951TIP3    H124344   2.141   1.320  15.923 -0.9021  0.2826  0.7878
  951TIP3    H224345   2.197   1.309  16.064  1.0596  1.1569  0.1141
  952TIP3   OH224346   4.807   5.687   1.028  0.2164 -0.2729  0.0934
  952TIP3    H124347   4.759   5.751   0.975  1.9942 -0.9151 -2.4467
  952TIP3    H224348   4.891   5.677   0.984  0.5398 -3.3294  1.1735
  953TIP3   OH224349   4.094   1.619   6.293  0.2309 -0.3202 -0.3217
  953TIP3    H124350   4.058   1.560   6.359 -1.4990  1.8665  0.8154
  953TIP3    H224351   4.062   1.584   6.210  0.9544 -2.0873  0.0765
  954TIP3   OH224352   5.478   3.332  15.085 -0.2018  0.6006 -0.1982
  954TIP3    H124353   5.489   3.375  15.170 -1.5299 -0.4568  0.5419
  954TIP3    H224354   5.410   3.266  15.099 -0.4471  0.3783 -2.0812
  955TIP3   OH224355   6.228   6.580   4.800 -0.5310 -0.0650  0.5450
  955TIP3    H124356   6.239   6.638   4.876  0.1841  0.2446  0.2126
  955TIP3    H224357   6.145   6.608   4.761 -0.5128  0.2988  0.7568
  956TIP3   OH224358   3.771   0.692   3.714 -0.1029 -0.4204  0.2009
  956TIP3    H124359   3.777   0.759   3.647  0.6482  0.0701  0.7400
  956TIP3    H224360   3.859   0.687   3.752 -0.3738 -1.0598  0.7868
  957TIP3   OH224361   1.767   5.586   1.775 -0.4945  0.4702 -0.5091
  957TIP3    H124362   1.852   5.614   1.808  1.6062 -4.5799 -0.6278
  957TIP3    H224363   1.765   5.616   1.685  1.7024 -0.0783 -0.8017
  958TIP3   OH224364   3.421   0.105  12.696  0.6032 -0.3705  0.0630
  958TIP3    H124365   3.357   0.141  12.758  2.3812  1.1203  1.1625
  958TIP3    H224366   3.440   0.177  12.636 -0.6231 -1.6103 -1.9009
  959TIP3   OH224367   0.522   0.126  13.795  0.4440 -0.2694  0.2198
  959TIP3    H124368   0.464   0.051  13.805  0.0820 -0.0566 -0.2012
  959TIP3    H224369   0.463   0.200  13.777  0.8628 -0.1714 -0.8858
  960TIP3   OH224370   0.782   4.648   0.844 -0.4097 -0.8396 -0.7401
  960TIP3    H124371   0.774   4.582   0.913 -0.0191 -0.0568  0.0785
  960TIP3    H224372   0.703   4.638   0.792 -1.6430 -0.2382  0.9330
  961TIP3   OH224373   1.301   1.503   5.819 -0.9300  0.3638  0.2048
  961TIP3    H124374   1.224   1.560   5.823 -4.7838 -4.2455  0.6220
  961TIP3    H224375   1.281   1.431   5.878  2.6814 -2.3573 -1.4762
  962TIP3   OH224376   1.798   0.875   0.387  0.1977  0.3421  0.2336
  962TIP3    H124377   1.724   0.879   0.326  0.9953  1.2380 -0.7157
  962TIP3    H224378   1.758   0.858   0.472 -0.8625 -2.1740 -0.6655
  963TIP3   OH224379   6.456   6.666  14.007 -0.2848  0.2116  0.2118
  963TIP3    H124380   6.407   6.717  14.072 -0.1273 -0.7223  1.0901
  963TIP3    H224381   6.390   6.641  13.942 -0.7198  0.0211  0.7178
  964TIP3   OH224382   2.749   0.866  12.627  0.5046  0.0275 -0.0936
  964TIP3    H124383   2.748   0.961  12.617 -1.2447  0.2684  1.6257
  964TIP3    H224384   2.750   0.852  12.722  0.6199 -1.6843 -0.3083
  965TIP3   OH224385   6.652   0.907  16.440  0.0275  0.3457 -0.0718
  965TIP3    H124386   6.569   0.939  16.405 -0.4358  1.5820  1.9478
  965TIP3    H224387   6.717   0.929  16.374 -1.3036 -1.3994 -2.0823
  966TIP3   OH224388   6.362   3.199   4.868  0.1089  0.3258  0.1095
  966TIP3    H124389   6.362   3.122   4.926  0.1575  0.5572  0.4175
  966TIP3    H224390   6.371   3.162   4.780  1.8976  0.0759  0.3688
  967TIP3   OH224391   4.816   0.662   4.110 -0.3038 -0.7109 -0.2247
  967TIP3    H124392   4.820   0.604   4.034 -1.3497 -0.2174 -0.6735
  967TIP3    H224393   4.895   0.716   4.102 -1.1264  0.3436 -1.8250
  968TIP3   OH224394   5.495   6.181   4.574 -0.1754  0.9238  0.4204
  968TIP3    H124395   5.402   6.180   4.593 -0.5510 -0.7422 -1.2474
  968TIP3    H224396   5.503   6.236   4.496  0.2856  1.2519  0.6896
  969TIP3   OH224397   2.784   5.289   4.823  0.1078  0.3918 -0.5266
  969TIP3    H124398   2.803   5.215   4.765  0.9531  0.0887  0.1191
  969TIP3    H224399   2.747   5.249   4.901  0.0784  0.7026 -0.3815
  970TIP3   OH224400   0.549   0.844   5.399  0.5173  0.0095 -0.5078
  970TIP3    H124401   0.503   0.781   5.343  0.6580  0.9157 -1.6646
  970TIP3    H224402   0.616   0.882   5.343  0.3894  1.2520  0.1464
  971TIP3   OH224403   1.426   5.203   3.981 -0.4955  0.3031 -0.7787
  971TIP3    H124404   1.392   5.197   3.892 -1.2249 -1.8236 -0.4359
  971TIP3    H224405   1.362   5.257   4.028 -2.6286 -2.1628 -0.5818
  972TIP3   OH224406   4.114   1.234   6.680 -0.3218 -0.4761  0.2143
  972TIP3    H124407   4.190   1.201   6.633 -0.6186  0.1903 -0.7603
  972TIP3    H224408   4.060   1.157   6.697  1.0403 -1.1272  1.8634
  973TIP3   OH224409   1.900   6.165  13.064  1.1609  0.5669 -0.4546
  973TIP3    H124410   1.959   6.221  13.014 -0.2941  0.7561 -2.0313
  973TIP3    H224411   1.905   6.079  13.021 -0.0973  0.7302 -0.9774
  974TIP3   OH224412   4.568   5.436  15.897  0.1654  0.1920  0.2588
  974TIP3    H124413   4.533   5.510  15.849  0.8544  2.3291  2.8101
  974TIP3    H224414   4.524   5.439  15.982  1.2953 -1.4144  0.9576
  975TIP3   OH224415   6.441   3.603  13.117  0.0585  0.0165  0.1953
  975TIP3    H124416   6.454   3.617  13.023 -0.7063  1.1724  0.2460
  975TIP3    H224417   6.517   3.552  13.144 -0.1873 -1.2000 -1.2283
  976TIP3   OH224418   1.996   2.835  13.837 -0.0777 -0.1909 -0.0769
  976TIP3    H124419   2.015   2.925  13.864 -0.0248 -0.0178 -0.6780
  976TIP3    H224420   2.072   2.808  13.785  0.0158 -0.6682  0.2998
  977TIP3   OH224421   3.039   3.188  14.769 -0.2336  0.7182  0.4333
  977TIP3    H124422   3.009   3.143  14.848 -0.0735  0.7913  0.5364
  977TIP3    H224423   2.960   3.199  14.716 -0.2331  0.0911  0.2938
  978TIP3   OH224424   2.286   1.255   3.667  0.2475  0.4832  0.4881
  978TIP3    H124425   2.333   1.333   3.697  1.5509  0.4938 -1.4182
  978TIP3    H224426   2.278   1.267   3.572 -2.8330  0.0157  0.5970
  979TIP3   OH224427   0.751   1.555  13.756  0.1105 -0.4764  0.5409
  979TIP3    H124428   0.768   1.485  13.693  0.2424 -0.0461  0.0855
  979TIP3    H224429   0.769   1.516  13.841  1.2041 -0.6997  0.2249
  980TIP3   OH224430   4.380   6.439   1.178  0.3274  1.0479 -0.3237
  980TIP3    H124431   4.438   6.507   1.213  1.0845  0.8236 -1.1228
  980TIP3    H224432   4.350   6.474   1.094 -1.3979  1.5364  0.4369
  981TIP3   OH224433   1.832   4.667   3.160  0.2002 -0.1799  0.2191
  981TIP3    H124434   1.882   4.674   3.079 -1.2521  0.3045 -0.6869
  981TIP3    H224435   1.814   4.757   3.185 -0.2927 -0.3449  0.4710
  982TIP3   OH224436   1.091   1.650  14.105  0.5789 -0.3868 -0.2183
  982TIP3    H124437   1.170   1.595  14.099  0.0139 -1.0722 -2.4955
  982TIP3    H224438   1.091   1.701  14.024 -1.6108 -0.8570 -0.5864
  983TIP3   OH224439   3.329   3.531   3.916 -0.2082  0.0722 -0.0111
  983TIP3    H124440   3.304   3.494   4.001  0.9367 -1.9188 -0.4588
  983TIP3    H224441   3.424   3.541   3.922 -0.0743 -0.3565 -1.1184
  984TIP3   OH224442   6.184   3.519   5.115 -0.1556  0.7045  0.7305
  984TIP3    H124443   6.165   3.497   5.206 -0.3643  0.7822  0.7075
  984TIP3    H224444   6.152   3.609   5.105  1.4934  1.3641  1.0753
  985TIP3   OH224445   0.291   0.480  15.522 -0.4329  0.2481 -0.8586
  985TIP3    H124446   0.339   0.525  15.453  0.9752 -2.6305 -1.9049
  985TIP3    H224447   0.359   0.456  15.586 -1.4111  1.0789  0.5385
  986TIP3   OH224448   0.937   2.235  13.242  0.0921 -0.3554  0.0263
  986TIP3    H124449   0.862   2.221  13.299  0.2894 -2.7780 -0.2042
  986TIP3    H224450   1.012   2.201  13.291  0.6386 -0.2955 -0.7441
  987TIP3   OH224451   5.931   5.047   5.831  0.2057  0.2273  0.5633
  987TIP3    H124452   5.887   4.963   5.844 -1.2983  1.0398  1.0066
  987TIP3    H224453   6.011   5.025   5.784 -0.2071 -1.4398  0.5715
  988TIP3   OH224454   2.790   1.294   3.676  0.6600 -0.5162  0.4894
  988TIP3    H124455   2.846   1.235   3.728  2.0204  0.4039  0.1370
  988TIP3    H224456   2.820   1.382   3.700 -0.8976  0.0350  0.5364
  989TIP3   OH224457   5.232   1.946  10.454  0.3391 -0.6003  0.1064
  989TIP3    H124458   5.157   1.899  10.488 -1.1562  2.3118  1.1815
  989TIP3    H224459   5.308   1.896  10.485 -1.0697 -1.1520  3.0427
  990TIP3   OH224460   4.610   2.236   3.831 -0.9316 -0.2343  0.1087
  990TIP3    H124461   4.555   2.297   3.782 -0.5301 -0.4270 -0.5953
  990TIP3    H224462   4.683   2.288   3.862 -1.2904 -0.0668  0.6966
  991TIP3   OH224463   3.394   1.281  15.290 -0.2536  0.3122  0.1794
  991TIP3    H124464   3.349   1.351  15.243 -0.2193 -0.1632 -0.5764
  991TIP3    H224465   3.483   1.314  15.305  0.2566 -0.1596 -1.5757
  992TIP3   OH224466   4.224   0.774   2.244  0.0427  0.2026 -0.0773
  992TIP3    H124467   4.244   0.867   2.260 -0.0984  0.4928 -1.4458
  992TIP3    H224468   4.164   0.775   2.169  0.7463 -1.0377 -0.6864
  993TIP3   OH224469   3.632   3.526   0.314  0.4392 -0.5340  0.2959
  993TIP3    H124470   3.606   3.450   0.263  0.0128 -0.4863  0.4366
  993TIP3    H224471   3.611   3.601   0.258  0.4712 -0.5035  0.3243
  994TIP3   OH224472   4.673   1.187  15.280 -0.6317  0.3384 -0.5029
  994TIP3    H124473   4.703   1.132  15.208 -2.0154 -0.9734 -0.1281
  994TIP3    H224474   4.753   1.210  15.327  0.1479  0.0596 -1.6521
  995TIP3   OH224475   2.662   0.229   1.368  0.1656  0.0856  0.5002
  995TIP3    H124476   2.690   0.244   1.277  1.1813 -0.4972  0.6965
  995TIP3    H224477   2.713   0.291   1.419  0.8411 -0.7240  0.8291
  996TIP3   OH224478   2.738   6.493  16.787  0.4769  0.4458 -0.2890
  996TIP3    H124479   2.691   6.529  16.862  0.3212 -1.5463  0.6172
  996TIP3    H224480   2.671   6.479  16.721  0.3016  0.4764 -0.1163
  997TIP3   OH224481   0.695   5.246   6.293  0.1607 -0.1105  0.2252
  997TIP3    H124482   0.702   5.323   6.349 -0.9428  0.4266 -0.3403
  997TIP3    H224483   0.621   5.265   6.235  0.5775 -1.1181 -0.6733
  998TIP3   OH224484   4.597   4.862   0.690 -0.2715 -0.4545  0.2855
  998TIP3    H124485   4.619   4.875   0.782  2.2005  1.3021 -0.4544
  998TIP3    H224486   4.579   4.950   0.657 -0.3655 -0.9560 -1.0765
  999TIP3   OH224487   6.765   5.943  12.424  0.3876 -0.3264  0.0206
  999TIP3    H124488   6.840   5.893  12.458  0.4748 -0.4180 -0.2999
  999TIP3    H224489   6.689   5.903  12.466  0.2449 -2.2112 -1.8915
 1000TIP3   OH224490   3.311   6.431   3.826 -0.1279  0.4360 -0.5393
 1000TIP3    H124491   3.252   6.406   3.755 -1.6762  1.4186  0.3278
 1000TIP3    H224492   3.253   6.467   3.894  1.2134 -0.9634  1.4726
 1001TIP3   OH224493   3.305   6.254  12.340 -0.1740  0.2924  0.1912
 1001TIP3    H124494   3.285   6.345  12.364 -0.6620 -0.3334  2.3853
 1001TIP3    H224495   3.221   6.209  12.346  0.4348 -0.7481  1.5101
 1002TIP3   OH224496   3.757   2.204   3.956  0.3454  0.3325  0.0623
 1002TIP3    H124497   3.672   2.231   3.920  1.1877  0.8571 -1.6419
 1002TIP3    H224498   3.791   2.283   3.998  1.1729  0.9842 -1.7027
 1003TIP3   OH224499   3.589   4.964  12.651  0.2356  0.2785  0.4733
 1003TIP3    H124500   3.623   4.885  12.691 -1.1855 -1.8915 -2.2785
 1003TIP3    H224501   3.635   4.971  12.567  0.0045  2.1578  0.4418
 1004TIP3   OH224502   4.158   0.061  15.080  0.0158  0.4591 -0.2019
 1004TIP3    H124503   4.216   0.131  15.050 -2.7567  3.3011  0.5148
 1004TIP3    H224504   4.084   0.107  15.119 -1.3754 -2.9666  1.5705
 1005TIP3   OH224505   3.597   3.533   2.764 -0.1260 -0.4245  0.4901
 1005TIP3    H124506   3.506   3.559   2.776 -0.0027 -0.5107  1.6772
 1005TIP3    H224507   3.594   3.438   2.751 -0.5754 -0.0147 -3.8335
 1006TIP3   OH224508   6.618   3.872   3.054 -0.0223 -0.2211  0.4295
 1006TIP3    H124509   6.574   3.819   3.121  3.5863 -4.9771 -0.4304
 1006TIP3    H224510   6.673   3.932   3.104 -1.2994  0.0449  1.5763
 1007TIP3   OH224511   2.384   1.328  13.814 -0.0005  0.5633 -0.4495
 1007TIP3    H124512   2.366   1.356  13.903 -0.8787  1.3075 -0.8355
 1007TIP3    H224513   2.375   1.408  13.762  0.7214  0.1887 -1.1792
 1008TIP3   OH224514   4.776   2.591  13.687  0.0091 -0.1336 -0.1147
 1008TIP3    H124515   4.730   2.590  13.771 -0.1522 -0.8975 -0.2114
 1008TIP3    H224516   4.869   2.587  13.711  0.0226  0.9088  0.0624
 1009TIP3   OH224517   6.294   0.216   2.473  0.6203  0.6207 -0.0329
 1009TIP3    H124518   6.335   0.133   2.495 -1.9410 -0.1479  2.3424
 1009TIP3    H224519   6.201   0.204   2.494 -0.3504  3.2080 -2.2329
 1010TIP3   OH224520   0.755   1.752  14.317  0.3064  0.2850 -0.1509
 1010TIP3    H124521   0.811   1.676  14.308  1.0183  0.7394  0.3314
 1010TIP3    H224522   0.790   1.816  14.255 -0.5896  0.0534 -0.9149
 1011TIP3   OH224523   1.379   5.802   2.859  0.2832 -0.1048  0.0111
 1011TIP3    H124524   1.391   5.874   2.921  1.2043 -1.4101  1.4153
 1011TIP3    H224525   1.422   5.832   2.779 -0.6895  1.5101  0.0487
 1012TIP3   OH224526   6.212   5.539  14.054  0.2739  0.0630 -0.1379
 1012TIP3    H124527   6.222   5.544  14.149 -0.6007 -1.1063  0.0467
 1012TIP3    H224528   6.235   5.449  14.032 -0.0668  0.1640 -0.9526
 1013TIP3   OH224529   0.709   3.491  15.741 -0.3699  0.2610  0.5904
 1013TIP3    H124530   0.647   3.420  15.760  1.2290 -1.2528  0.3603
 1013TIP3    H224531   0.747   3.512  15.826  1.1187 -1.0901  0.3010
 1014TIP3   OH224532   1.896   1.094  13.019 -0.1857 -0.1936 -0.2122
 1014TIP3    H124533   1.954   1.164  13.048  0.0166 -0.9248  1.2184
 1014TIP3    H224534   1.810   1.119  13.054 -0.1081 -0.6483  0.3201
 1015TIP3   OH224535   1.636   0.430  11.267  0.2438  0.2682 -0.8344
 1015TIP3    H124536   1.664   0.504  11.321  1.1258 -0.1955 -0.6462
 1015TIP3    H224537   1.541   0.425  11.282  0.4047  0.4093  0.3568
 1016TIP3   OH224538   1.518   6.380   6.259  0.7272  0.1891  0.2557
 1016TIP3    H124539   1.541   6.343   6.174 -0.9911 -0.2245 -0.0777
 1016TIP3    H224540   1.596   6.427   6.287  2.9431 -3.3336  0.5335
 1017TIP3   OH224541   6.065   1.561   3.522  0.6318 -0.2626 -0.2761
 1017TIP3    H124542   5.977   1.543   3.555  0.1400 -0.8590 -1.8023
 1017TIP3    H224543   6.073   1.504   3.445  2.5597 -0.6102  0.1444
 1018TIP3   OH224544   5.388   3.610   3.180  0.0491  0.5039  0.3944
 1018TIP3    H124545   5.339   3.531   3.157  0.5944  0.8022 -2.1129
 1018TIP3    H224546   5.356   3.677   3.120  1.6304  1.4163  0.5039
 1019TIP3   OH224547   1.242   1.291  16.351  0.2283  0.0624 -0.5628
 1019TIP3    H124548   1.175   1.240  16.305 -1.1391 -1.4691  2.7787
 1019TIP3    H224549   1.221   1.382  16.331 -0.6752 -0.4789 -2.3319
 1020TIP3   OH224550   3.060   6.722   0.336 -0.0694 -0.1550 -0.0122
 1020TIP3    H124551   3.004   6.756   0.267 -1.5461  0.9307  1.6283
 1020TIP3    H224552   3.005   6.659   0.383  0.9331 -0.9576  0.1090
 1021TIP3   OH224553   0.642   1.325  13.157 -0.0501  0.0470  0.0966
 1021TIP3    H124554   0.591   1.244  13.155  2.7701 -1.9029  0.2626
 1021TIP3    H224555   0.620   1.367  13.240 -2.5875  0.2437 -0.6064
 1022TIP3   OH224556   4.545   6.425   6.156 -0.3131  0.0538 -0.9355
 1022TIP3    H124557   4.614   6.372   6.196  0.1497  0.1604 -1.5798
 1022TIP3    H224558   4.591   6.502   6.123 -1.3265  2.2925  2.4111
 1023TIP3   OH224559   5.496   1.054  11.778 -0.0990  0.1532 -0.1078
 1023TIP3    H124560   5.567   1.019  11.832  0.3307  0.6966 -0.3153
 1023TIP3    H224561   5.536   1.124  11.727 -1.3025  2.1944  1.5768
 1024TIP3   OH224562   3.708   4.449  16.196 -0.0198  0.4180  0.3717
 1024TIP3    H124563   3.703   4.419  16.286 -0.3612  0.8047  0.4836
 1024TIP3    H224564   3.792   4.416  16.164  0.1126  0.3060  0.8362
 1025TIP3   OH224565   4.645   1.009  11.238 -0.0270  0.4908 -0.0793
 1025TIP3    H124566   4.648   0.959  11.156  0.3395  2.2766 -1.2164
 1025TIP3    H224567   4.736   1.013  11.267 -0.5134 -3.7993  2.8828
 1026TIP3   OH224568   2.196   0.865   4.516 -0.4492  0.6166 -0.3457
 1026TIP3    H124569   2.256   0.890   4.446 -0.7612  1.9173 -0.1717
 1026TIP3    H224570   2.232   0.906   4.595 -0.3987 -0.3860  0.1659
 1027TIP3   OH224571   4.113   1.933  15.214  0.1870 -0.5070  0.1843
 1027TIP3    H124572   4.066   1.996  15.269  2.0708  0.3242  0.8992
 1027TIP3    H224573   4.101   1.967  15.125 -0.1616 -0.0430  0.4001
 1028TIP3   OH224574   4.488   4.189  16.808  0.1244 -0.6055  0.0657
 1028TIP3    H124575   4.452   4.151  16.889  0.7336  1.1990  1.2481
 1028TIP3    H224576   4.551   4.124  16.777 -0.6472 -1.6582  0.6246
 1029TIP3   OH224577   3.593   4.789   1.815 -0.3792 -0.1453 -0.4830
 1029TIP3    H124578   3.553   4.737   1.885 -1.2493  1.8852  0.6190
 1029TIP3    H224579   3.670   4.738   1.788 -0.6388 -1.5159  1.1903
 1030TIP3   OH224580   4.966   4.906   4.343 -0.0472  0.1051  0.2058
 1030TIP3    H124581   5.018   4.942   4.415 -1.7292  2.4648  0.3618
 1030TIP3    H224582   5.022   4.914   4.267  0.6870  0.3780  0.7642
 1031TIP3   OH224583   2.466   1.564   5.028  0.0405  0.0736 -0.1797
 1031TIP3    H124584   2.438   1.645   4.985 -1.0124  0.2535  0.7909
 1031TIP3    H224585   2.562   1.569   5.030 -0.0219  2.3994  1.8537
 1032TIP3   OH224586   5.997   0.552   1.601 -0.2695 -0.0679 -0.2933
 1032TIP3    H124587   5.974   0.644   1.592  0.2737  0.2864  1.4487
 1032TIP3    H224588   6.010   0.521   1.512  0.2226  1.7121 -0.8720
 1033TIP3   OH224589   2.088   2.438  15.643 -0.1923 -0.2578 -0.3488
 1033TIP3    H124590   2.076   2.345  15.623 -0.9424 -0.0934 -0.6938
 1033TIP3    H224591   2.062   2.445  15.735 -0.9237 -0.2604 -0.5431
 1034TIP3   OH224592   3.083   5.620  13.162 -0.2156  0.3295  0.2492
 1034TIP3    H124593   3.085   5.525  13.153  0.6848  0.3079  0.5364
 1034TIP3    H224594   3.011   5.638  13.223 -0.6553 -0.1373 -0.1369
 1035TIP3   OH224595   6.274   5.168  16.306  0.9887  0.7104  0.5383
 1035TIP3    H124596   6.267   5.249  16.255 -1.0396  0.0467 -0.3387
 1035TIP3    H224597   6.197   5.169  16.363  0.6414 -0.8297  0.1339
 1036TIP3   OH224598   4.921   1.708  10.855  0.1008 -0.4140 -0.0797
 1036TIP3    H124599   4.864   1.650  10.905 -1.6775  1.1247 -0.2111
 1036TIP3    H224600   4.868   1.736  10.780  0.7985  1.4945  0.0792
 1037TIP3   OH224601   4.285   4.990   3.198  0.2960 -0.3864  0.5805
 1037TIP3    H124602   4.300   5.025   3.286 -0.2520  1.5821 -0.0640
 1037TIP3    H224603   4.373   4.984   3.159  0.5269 -1.1378  1.1857
 1038TIP3   OH224604   0.974   3.412  13.095 -0.0063  0.0063 -0.1400
 1038TIP3    H124605   0.986   3.507  13.088  1.6738 -0.1845 -0.2332
 1038TIP3    H224606   0.886   3.402  13.131 -0.3806  1.5851 -0.5309
 1039TIP3   OH224607   2.427   2.013   3.539 -0.3705  0.3995  0.5456
 1039TIP3    H124608   2.443   2.103   3.509 -0.3034  0.5529  1.0433
 1039TIP3    H224609   2.357   1.981   3.481  1.5586 -0.2330 -1.5883
 1040TIP3   OH224610   3.256   3.519  13.296  0.2240  0.6107 -0.0362
 1040TIP3    H124611   3.188   3.579  13.266  0.9185  1.0050 -0.8740
 1040TIP3    H224612   3.332   3.539  13.241  0.9078 -0.0694  0.6297
 1041TIP3   OH224613   2.582   6.776  13.398 -0.2549  0.3871  0.5747
 1041TIP3    H124614   2.492   6.748  13.416 -0.0970 -0.2888  0.3450
 1041TIP3    H224615   2.573   6.839  13.327 -0.3645 -1.7974 -1.5066
 1042TIP3   OH224616   6.665   3.872  12.936  0.5065 -0.6186  0.3496
 1042TIP3    H124617   6.716   3.802  12.976  0.2183 -0.5390  0.8729
 1042TIP3    H224618   6.603   3.828  12.879 -0.8491 -0.9441  1.9794
 1043TIP3   OH224619   1.745   4.052   3.849  0.3983 -0.0886  0.6854
 1043TIP3    H124620   1.786   4.090   3.927  0.2783  0.2825  0.5731
 1043TIP3    H224621   1.769   4.113   3.778 -0.4845  0.2240  0.6489
 1044TIP3   OH224622   2.138   0.010  14.792 -0.0577 -0.2914 -0.3799
 1044TIP3    H124623   2.061  -0.038  14.823 -0.7877  0.2029 -1.4066
 1044TIP3    H224624   2.106   0.097  14.770  1.1680  0.5731  1.0294
 1045TIP3   OH224625   4.936   3.765  11.614  0.0304 -0.1210  0.4421
 1045TIP3    H124626   4.996   3.694  11.638 -0.8088 -0.4242  1.6930
 1045TIP3    H224627   4.850   3.734  11.640 -0.3868  1.2525  0.7534
 1046TIP3   OH224628   3.441   1.399   0.763  0.4481  0.0649  0.1172
 1046TIP3    H124629   3.461   1.478   0.714 -0.0855 -0.4079 -0.9036
 1046TIP3    H224630   3.519   1.344   0.752 -0.4007 -0.8510 -1.9443
 1047TIP3   OH224631   2.157   1.360   5.976 -0.3279  0.9615  0.0501
 1047TIP3    H124632   2.123   1.331   5.891  1.7349  0.2524 -0.6012
 1047TIP3    H224633   2.123   1.298   6.039  1.3960 -1.0471 -0.8784
 1048TIP3   OH224634   1.099   0.660  11.469 -0.6718 -0.4525 -0.4741
 1048TIP3    H124635   1.078   0.728  11.404 -1.2741  0.7361  0.9061
 1048TIP3    H224636   1.192   0.674  11.488 -0.4323 -0.9636 -1.2510
 1049TIP3   OH224637   1.889   1.138  10.882  0.1203  0.0162 -0.0530
 1049TIP3    H124638   1.814   1.195  10.866  0.9671  1.2918  0.3653
 1049TIP3    H224639   1.940   1.142  10.801 -0.1107 -0.6403 -0.2408
 1050TIP3   OH224640   0.212   1.291   4.039  0.5924  0.7864  0.1889
 1050TIP3    H124641   0.301   1.273   4.008  0.5037 -1.5411  1.0688
 1050TIP3    H224642   0.157   1.232   3.986 -0.3206  1.5051  0.3189
 1051TIP3   OH224643   0.124   6.393  13.897  0.3153 -0.1701  0.1013
 1051TIP3    H124644   0.146   6.309  13.938  1.8830 -0.3882 -1.1068
 1051TIP3    H224645   0.177   6.457  13.945  0.6191 -0.1544 -0.2498
 1052TIP3   OH224646   3.097   0.906   2.830  0.6297  0.2713  0.3152
 1052TIP3    H124647   3.096   0.815   2.860 -1.4211  0.5803  1.3831
 1052TIP3    H224648   3.119   0.956   2.908  1.9073  0.7020 -0.3070
 1053TIP3   OH224649   6.058   1.591  13.300  0.1079 -0.1742 -0.1430
 1053TIP3    H124650   6.077   1.541  13.379  0.5188 -2.4362 -1.5758
 1053TIP3    H224651   6.140   1.638  13.281 -0.2189  0.9452  1.1109
 1054TIP3   OH224652   3.761   4.763   5.980 -0.5163 -0.4363 -0.4002
 1054TIP3    H124653   3.732   4.734   6.067 -0.3392 -2.3057 -0.9141
 1054TIP3    H224654   3.710   4.842   5.963 -1.0355 -0.3951  1.1249
 1055TIP3   OH224655   0.668   5.703  11.894  0.3720  0.0914  0.4267
 1055TIP3    H124656   0.734   5.646  11.933 -0.4283  0.3005  2.2132
 1055TIP3    H224657   0.676   5.785  11.943 -0.0339  0.7259 -0.5406
 1056TIP3   OH224658   4.091   4.765   5.662  1.1038 -0.1599  0.1742
 1056TIP3    H124659   4.090   4.820   5.740  1.0899  0.2668 -0.1229
 1056TIP3    H224660   4.176   4.722   5.664  1.0352 -0.2829  0.5143
 1057TIP3   OH224661   1.713   3.169   3.872 -0.5929  0.1707  0.5378
 1057TIP3    H124662   1.729   3.254   3.914  0.5980  0.2631 -0.0368
 1057TIP3    H224663   1.785   3.113   3.902  1.2024  0.6739 -2.3924
 1058TIP3   OH224664   5.623   2.915  12.595  0.0774 -0.1609 -0.3893
 1058TIP3    H124665   5.630   2.894  12.502 -1.0962  1.5907 -0.9239
 1058TIP3    H224666   5.549   2.974  12.601 -0.0394 -0.4408  1.7262
 1059TIP3   OH224667   3.350   6.731  17.000  0.1779 -0.0488 -0.2209
 1059TIP3    H124668   3.335   6.645  16.961  1.3863 -0.6116  0.5062
 1059TIP3    H224669   3.263   6.771  17.004 -0.2424 -0.7329 -1.6709
 1060TIP3   OH224670   4.219   2.615  16.020  0.2772  0.3913  0.0202
 1060TIP3    H124671   4.202   2.591  16.111  2.2394  0.4259  0.4306
 1060TIP3    H224672   4.166   2.554  15.969 -0.4333  0.0218  1.1645
 1061TIP3   OH224673   1.449   1.374   6.305  0.4080 -0.6849 -0.2697
 1061TIP3    H124674   1.501   1.447   6.337 -1.5064  0.4663  0.3766
 1061TIP3    H224675   1.381   1.414   6.251 -0.3424 -2.0333 -0.3769
 1062TIP3   OH224676   1.540   6.156  14.218 -0.6593 -0.1561  0.3291
 1062TIP3    H124677   1.634   6.171  14.206 -0.2990 -0.3266  2.4907
 1062TIP3    H224678   1.514   6.101  14.144  0.7307  0.6298 -0.7915
 1063TIP3   OH224679   1.469   3.819   5.247 -0.2675 -0.1120  0.1206
 1063TIP3    H124680   1.403   3.772   5.195  1.1961 -0.5426 -1.4276
 1063TIP3    H224681   1.470   3.773   5.331 -1.1173 -0.8374 -0.2462
 1064TIP3   OH224682   3.858   6.083  14.141  0.0609  0.3022 -0.2087
 1064TIP3    H124683   3.764   6.066  14.147 -0.2016  1.5622 -0.4298
 1064TIP3    H224684   3.893   6.009  14.091 -0.8506 -0.0602 -0.3189
 1065TIP3   OH224685   3.686   0.059  14.281 -0.1715 -0.3189  0.5485
 1065TIP3    H124686   3.773   0.066  14.322  0.5708  0.8926 -1.0733
 1065TIP3    H224687   3.655  -0.028  14.303  1.6504 -0.9307  0.8609
 1066TIP3   OH224688   6.276   1.299  11.385  0.5458  0.1639  0.1041
 1066TIP3    H124689   6.185   1.291  11.412  1.0027  0.1885  1.7461
 1066TIP3    H224690   6.274   1.287  11.290 -0.9089 -1.8240  0.3341
 1067TIP3   OH224691   4.701   0.900   0.987 -0.2403 -0.0643 -0.4993
 1067TIP3    H124692   4.750   0.979   1.008  0.6481 -0.6363 -0.3701
 1067TIP3    H224693   4.631   0.898   1.052 -0.0134  0.3854 -0.2318
 1068TIP3   OH224694   5.186   0.831  10.991 -0.3657  0.1449 -0.2210
 1068TIP3    H124695   5.152   0.836  10.902 -0.5535 -0.8466 -0.2169
 1068TIP3    H224696   5.265   0.777  10.984  0.3991  1.1917  0.0077
 1069TIP3   OH224697   5.807   1.826  14.554  0.0024 -0.2434 -0.2463
 1069TIP3    H124698   5.781   1.739  14.524 -1.5996  0.0855  0.0903
 1069TIP3    H224699   5.783   1.885  14.482  0.4354  0.0194 -0.1871
 1070TIP3   OH224700   6.598   2.735   2.806  0.5894 -0.1047  0.3727
 1070TIP3    H124701   6.691   2.746   2.825  1.3299 -1.8495 -1.7225
 1070TIP3    H224702   6.572   2.818   2.765  1.3361  0.2652  0.6377
 1071TIP3   OH224703   3.932   6.055   4.676  0.0336 -0.0046 -0.1761
 1071TIP3    H124704   3.961   6.030   4.588  0.5190  0.1936 -0.0743
 1071TIP3    H224705   4.004   6.028   4.734 -0.3499 -0.2790  0.1808
 1072TIP3   OH224706   1.682   3.164   2.770  0.0559  0.1786  0.1014
 1072TIP3    H124707   1.774   3.186   2.753  0.4181 -0.9135  0.5660
 1072TIP3    H224708   1.685   3.081   2.816 -1.2112 -0.2710 -0.5619
 1073TIP3   OH224709   0.490   3.572  15.172 -0.0271  0.1924 -1.2028
 1073TIP3    H124710   0.418   3.627  15.139 -0.2642  0.3393 -0.4558
 1073TIP3    H224711   0.498   3.502  15.107  1.9429  2.3911 -3.5509
 1074TIP3   OH224712   4.519   0.013  16.436  0.2438 -0.5230 -0.3600
 1074TIP3    H124713   4.529   0.108  16.429 -1.3503 -0.3897 -1.2376
 1074TIP3    H224714   4.460   0.001  16.510  1.1754 -0.8945  0.3339
 1075TIP3   OH224715   6.043   6.309  15.932 -0.3824 -0.4152  0.2138
 1075TIP3    H124716   5.957   6.267  15.937 -1.3224  1.2072 -0.9970
 1075TIP3    H224717   6.085   6.269  15.856 -0.8578  0.0851 -0.3249
 1076TIP3   OH224718   0.917   5.468  14.441  0.0419 -0.1161 -0.3701
 1076TIP3    H124719   0.897   5.391  14.389 -1.8652  0.1587 -0.1234
 1076TIP3    H224720   0.837   5.485  14.491 -0.6459  3.4990 -2.3027
 1077TIP3   OH224721   4.830   1.786  13.119 -0.4598  0.1365 -0.5277
 1077TIP3    H124722   4.785   1.707  13.092 -0.1498  0.3183 -1.6347
 1077TIP3    H224723   4.876   1.762  13.199 -1.3832 -0.4400 -0.1672
 1078TIP3   OH224724   2.161   0.913  13.343  0.7297 -0.4714 -0.2097
 1078TIP3    H124725   2.206   0.978  13.397  2.0783 -0.8139 -0.8821
 1078TIP3    H224726   2.177   0.941  13.253  1.9374 -2.0941 -0.5342
 1079TIP3   OH224727   5.562   3.865   3.979  0.0552 -0.1846  0.2050
 1079TIP3    H124728   5.526   3.806   4.046  1.0375  0.2103  1.1170
 1079TIP3    H224729   5.638   3.904   4.021  0.7700 -0.0059 -1.2027
 1080TIP3   OH224730   0.568   4.764  14.729  0.4528  0.4046 -0.2009
 1080TIP3    H124731   0.495   4.790  14.785 -0.2826  0.0891 -0.9942
 1080TIP3    H224732   0.628   4.839  14.730 -0.2068  0.9334 -0.0829
 1081TIP3   OH224733   1.300   0.472   0.175 -0.4118 -0.0311  0.0871
 1081TIP3    H124734   1.224   0.530   0.176 -0.2201  0.2283  0.9768
 1081TIP3    H224735   1.263   0.384   0.188 -0.7115 -0.1454 -1.3736
 1082TIP3   OH224736   1.872   0.946  12.071  0.5848 -0.0233  0.6220
 1082TIP3    H124737   1.883   0.952  12.166 -0.5460 -0.3982  0.7904
 1082TIP3    H224738   1.812   0.873  12.058  0.9014 -0.1133 -0.3968
 1083TIP3   OH224739   1.136   0.865  12.892  0.5633 -0.1597  0.1582
 1083TIP3    H124740   1.172   0.834  12.975  0.4134  0.9824  0.6710
 1083TIP3    H224741   1.132   0.960  12.901 -0.7018 -0.1011 -0.6444
 1084TIP3   OH224742   3.599   0.135   4.486 -0.3389 -0.3314 -0.2660
 1084TIP3    H124743   3.558   0.221   4.481 -0.0941 -0.2122 -0.2185
 1084TIP3    H224744   3.525   0.074   4.490 -0.5138 -0.0891  0.3076
 1085TIP3   OH224745   6.318   0.269  11.368  0.8513 -0.3698  0.3903
 1085TIP3    H124746   6.395   0.254  11.313  2.1987 -0.0371  2.0940
 1085TIP3    H224747   6.349   0.329  11.437 -0.3477 -1.8526  2.3207
 1086TIP3   OH224748   6.189   3.972  15.720 -0.6670  0.2996  0.6300
 1086TIP3    H124749   6.240   3.983  15.800  0.0870 -0.7964  0.3201
 1086TIP3    H224750   6.173   4.062  15.690 -0.7328  0.7238  1.8468
 1087TIP3   OH224751   1.876   0.641  13.617 -0.4113  0.3475  0.1371
 1087TIP3    H124752   1.933   0.612  13.546 -2.2226 -2.3363 -0.3905
 1087TIP3    H224753   1.813   0.699  13.574 -1.0451 -0.6689 -0.3476
 1088TIP3   OH224754   0.879   1.381  10.490 -0.1475 -0.4618  0.2700
 1088TIP3    H124755   0.881   1.287  10.472 -0.2412 -0.6751  1.2895
 1088TIP3    H224756   0.787   1.401  10.505  0.0723 -0.6504  2.1213
 1089TIP3   OH224757   0.557   1.077   3.225 -0.0687  0.0095  0.1560
 1089TIP3    H124758   0.515   1.050   3.307 -0.8283  2.2708  0.5855
 1089TIP3    H224759   0.644   1.107   3.252  0.3961 -0.9990 -0.1706
 1090TIP3   OH224760   6.539   5.261  14.990  0.3796  0.1458 -0.1111
 1090TIP3    H124761   6.507   5.347  14.965 -1.4479 -0.3713  0.2693
 1090TIP3    H224762   6.522   5.206  14.914 -1.2732 -0.4907  0.6455
 1091TIP3   OH224763   5.800   0.104   3.611 -0.2828  0.2272 -0.4801
 1091TIP3    H124764   5.888   0.140   3.616  0.1879 -0.9544  0.1044
 1091TIP3    H224765   5.787   0.087   3.518 -0.3828  1.5269 -0.7243
 1092TIP3   OH224766   0.480   4.064   3.950 -0.3371 -0.0522 -0.2873
 1092TIP3    H124767   0.420   3.995   3.920 -1.0055  0.5267 -0.2964
 1092TIP3    H224768   0.489   4.123   3.875  0.8566 -0.5323 -0.5427
 1093TIP3   OH224769   0.398   1.142  15.027  0.4180  0.0510  0.6751
 1093TIP3    H124770   0.340   1.210  14.993  0.3216 -1.0192 -1.4596
 1093TIP3    H224771   0.375   1.135  15.120 -0.8382  1.6287  0.5205
 1094TIP3   OH224772   1.395   3.201  12.728 -0.2154  0.3203 -0.0211
 1094TIP3    H124773   1.474   3.200  12.675 -0.4794 -3.4629 -0.5911
 1094TIP3    H224774   1.331   3.151  12.677 -1.2717 -1.3222  2.6851
 1095TIP3   OH224775   5.032   3.448  16.155 -0.3598  0.3975 -0.3128
 1095TIP3    H124776   4.941   3.432  16.181 -0.0783 -0.0541  0.4355
 1095TIP3    H224777   5.040   3.407  16.069 -0.2294 -1.7680  0.6613
 1096TIP3   OH224778   5.987   6.273   0.685  0.0705  0.6851 -0.2268
 1096TIP3    H124779   5.959   6.330   0.613  1.3519 -1.3596 -2.5053
 1096TIP3    H224780   5.989   6.186   0.646  2.3023 -0.2898  1.8718
 1097TIP3   OH224781   4.095   0.352  11.822  0.1637 -0.1727  0.0408
 1097TIP3    H124782   4.184   0.387  11.819  0.1174  0.0029  0.5777
 1097TIP3    H224783   4.052   0.389  11.745  0.8958 -1.2292 -0.9247
 1098TIP3   OH224784   2.690   4.627   5.681 -0.4575  0.5506  0.2562
 1098TIP3    H124785   2.679   4.541   5.720  1.0707  0.4124  0.4655
 1098TIP3    H224786   2.717   4.683   5.754 -1.2971  1.1906  0.0962
 1099TIP3   OH224787   6.499   0.452  10.100 -0.2466  0.1810 -0.5280
 1099TIP3    H124788   6.499   0.487  10.188  1.4111 -0.9836  0.0038
 1099TIP3    H224789   6.417   0.403  10.093 -1.2806  1.8093 -0.3457
 1100TIP3   OH224790   0.936   1.088  10.808  0.4564 -0.0472 -0.2585
 1100TIP3    H124791   0.940   1.016  10.744  0.6172  0.0577 -0.3671
 1100TIP3    H224792   0.843   1.094  10.831  0.2114  0.7019 -1.3828
 1101TIP3   OH224793   2.253   5.005  16.170 -0.1234  0.0786  0.5342
 1101TIP3    H124794   2.222   4.950  16.098  0.8678 -0.5399  0.5602
 1101TIP3    H224795   2.201   5.085  16.163 -0.4741 -0.2229 -0.4936
 1102TIP3   OH224796   3.977   6.582  16.023  0.1409 -0.4365  0.0103
 1102TIP3    H124797   4.054   6.557  16.074  0.3554 -0.9344 -0.5460
 1102TIP3    H224798   4.012   6.610  15.938  0.3666  5.5143  1.6400
 1103TIP3   OH224799   0.054   5.826  12.802 -0.0680 -0.5701  0.1133
 1103TIP3    H124800   0.046   5.837  12.896  0.9999 -1.2878  0.3042
 1103TIP3    H224801   0.148   5.823  12.785 -0.1933  1.0891 -1.1802
 1104TIP3   OH224802   4.390   6.686   0.170 -0.2238 -0.3374 -0.7497
 1104TIP3    H124803   4.387   6.634   0.090  0.3691 -0.4937 -0.6719
 1104TIP3    H224804   4.415   6.624   0.238  1.6850  0.2411 -0.8492
 1105TIP3   OH224805   4.656   3.529   0.523 -0.0443 -0.0723 -0.3975
 1105TIP3    H124806   4.744   3.519   0.560  0.2724 -1.7982 -1.4875
 1105TIP3    H224807   4.636   3.443   0.485 -1.6230  0.6997 -1.4188
 1106TIP3   OH224808   1.412   3.850   2.905  0.1463 -0.3633  0.7584
 1106TIP3    H124809   1.341   3.787   2.890 -0.3818  0.4590 -0.3534
 1106TIP3    H224810   1.377   3.910   2.971 -0.2660  0.1287  0.1021
 1107TIP3   OH224811   4.404   2.111  15.336  0.6467 -0.2212  0.1630
 1107TIP3    H124812   4.494   2.144  15.340  0.0827  1.4119 -0.0514
 1107TIP3    H224813   4.352   2.178  15.380 -0.6322 -0.5175 -0.8557
 1108TIP3   OH224814   2.709   2.048  14.225 -0.2109  0.1412  0.2792
 1108TIP3    H124815   2.771   2.020  14.158  0.1390  1.9244 -0.1961
 1108TIP3    H224816   2.624   2.045  14.182  0.1776  2.8799 -0.8942
 1109TIP3   OH224817   1.911   1.892  15.703 -0.1146  0.2514 -0.2683
 1109TIP3    H124818   1.983   1.829  15.696 -1.0677 -0.8384 -0.4933
 1109TIP3    H224819   1.865   1.886  15.620  0.8867  2.6927 -1.0847
 1110TIP3   OH224820   1.649   1.601  17.051  0.4242 -0.0442 -0.0618
 1110TIP3    H124821   1.730   1.557  17.078 -0.5446 -1.0717  1.2864
 1110TIP3    H224822   1.613   1.636  17.132 -0.0384  1.2002 -0.7865
 1111TIP3   OH224823   1.053   1.875  16.866  0.1649  0.1304  0.0543
 1111TIP3    H124824   1.041   1.793  16.817 -1.0776  0.5693 -0.4024
 1111TIP3    H224825   1.046   1.943  16.799  3.8529  0.5929 -0.0677
 1112TIP3   OH224826   4.689   1.888   3.239 -0.1117  0.2669  0.0686
 1112TIP3    H124827   4.735   1.823   3.292  2.1698  2.0193  0.3679
 1112TIP3    H224828   4.692   1.853   3.150 -0.9120 -1.0476  0.5262
 1113TIP3   OH224829   1.982   1.564   2.793  0.7790 -0.1703  0.4542
 1113TIP3    H124830   1.998   1.486   2.740  2.3964  0.9386 -0.7978
 1113TIP3    H224831   1.889   1.581   2.783  0.2090 -2.2965  1.3595
 1114TIP3   OH224832   5.091   5.855   1.865  0.2069  0.1932 -0.0015
 1114TIP3    H124833   5.158   5.801   1.905  0.7062  0.0913 -0.9407
 1114TIP3    H224834   5.077   5.927   1.926 -0.1437 -0.7443  1.0520
 1115TIP3   OH224835   2.313   6.576   5.281 -0.0656  0.0683  0.6376
 1115TIP3    H124836   2.219   6.565   5.293 -0.2981 -1.5590 -1.8191
 1115TIP3    H224837   2.350   6.571   5.369 -2.2223  0.5251  1.6305
 1116TIP3   OH224838   1.721   1.028   1.989 -0.2764 -0.1207 -0.2021
 1116TIP3    H124839   1.706   1.046   2.082  0.8950 -0.6383  0.1004
 1116TIP3    H224840   1.796   0.968   1.987 -0.2884 -0.1274 -1.4793
 1117TIP3   OH224841   1.050   6.691  13.448  0.4078  0.0469 -0.3026
 1117TIP3    H124842   1.145   6.704  13.458  0.8348 -2.7725  0.2578
 1117TIP3    H224843   1.042   6.624  13.380 -1.1521 -0.1388  0.0227
 1118TIP3   OH224844   1.261   6.855   1.865 -0.1322  0.4929 -0.0289
 1118TIP3    H124845   1.187   6.840   1.806  0.6397 -0.0990 -0.8771
 1118TIP3    H224846   1.298   6.938   1.837  0.4861  0.0113 -0.6715
 1119TIP3   OH224847   6.256   5.253  14.016  0.0447  0.0205  0.2255
 1119TIP3    H124848   6.315   5.236  13.942 -1.0506  0.4582 -0.7786
 1119TIP3    H224849   6.299   5.211  14.091  1.0871 -0.6071 -0.6899
 1120TIP3   OH224850   6.373   4.713   2.425  0.5655 -0.0428 -0.1330
 1120TIP3    H124851   6.341   4.803   2.423  0.2093 -0.1841 -1.4306
 1120TIP3    H224852   6.295   4.659   2.413  0.9502 -0.4679 -0.7987
 1121TIP3   OH224853   0.392   3.250  15.482 -0.1020 -0.2165  0.1112
 1121TIP3    H124854   0.451   3.300  15.538 -1.6723 -0.8975  2.5266
 1121TIP3    H224855   0.404   3.159  15.509 -1.1811 -0.5193 -0.3653
 1122TIP3   OH224856   0.148   3.798  13.748 -0.2364  0.0457 -0.4557
 1122TIP3    H124857   0.237   3.824  13.774 -1.0597  0.2770  2.5497
 1122TIP3    H224858   0.103   3.881  13.733 -0.3429 -0.0210 -0.5046
 1123TIP3   OH224859   0.892   0.776   2.342 -0.3708  0.1593  0.3092
 1123TIP3    H124860   0.802   0.800   2.364 -0.4615  0.5411 -0.4531
 1123TIP3    H224861   0.925   0.734   2.421 -2.0966 -2.5156 -0.2609
 1124TIP3   OH224862   5.922   6.069  15.572 -0.0329 -0.3755  0.6199
 1124TIP3    H124863   5.974   5.990  15.584 -0.7434 -1.0342 -0.4437
 1124TIP3    H224864   5.985   6.141  15.576  1.7296 -1.2561 -4.0499
 1125TIP3   OH224865   5.448   1.363  16.872  0.8336 -0.1356 -0.3768
 1125TIP3    H124866   5.450   1.302  16.799 -0.0910 -3.3013  1.9932
 1125TIP3    H224867   5.365   1.410  16.862 -0.5894 -2.4378 -0.0723
 1126TIP3   OH224868   0.657   1.047  10.871 -0.0656 -0.1529  0.4867
 1126TIP3    H124869   0.644   1.029  10.778  1.9205 -2.5020  0.5714
 1126TIP3    H224870   0.637   1.140  10.880 -1.4610 -0.1169 -2.0304
 1127TIP3   OH224871   5.974   5.841   4.236 -0.0362  0.2691  0.4269
 1127TIP3    H124872   5.946   5.813   4.324 -0.0820 -3.0668 -0.5243
 1127TIP3    H224873   6.060   5.801   4.225 -0.0079  0.6915 -1.0581
 1128TIP3   OH224874   4.699   1.861   0.824 -0.0249 -0.1464  0.1133
 1128TIP3    H124875   4.705   1.956   0.829  0.7089 -0.1796 -0.1151
 1128TIP3    H224876   4.783   1.833   0.787 -0.2269 -0.8825  0.1987
 1129TIP3   OH224877   3.180   6.546  12.721  0.1447  0.2290  0.7258
 1129TIP3    H124878   3.131   6.469  12.692  0.0693  0.0499  1.3095
 1129TIP3    H224879   3.137   6.572  12.803 -1.3419  2.3029 -0.6002
 1130TIP3   OH224880   6.752   4.748   0.624  0.2703 -0.0064 -0.2895
 1130TIP3    H124881   6.668   4.766   0.580  1.0022  0.4696 -1.5618
 1130TIP3    H224882   6.739   4.778   0.714 -1.1193 -0.5177 -0.2890
 1131TIP3   OH224883   5.235   1.128   3.961 -0.3909 -0.0490  0.0993
 1131TIP3    H124884   5.251   1.056   3.901 -0.2549  0.4704 -0.4990
 1131TIP3    H224885   5.140   1.128   3.974 -0.2534 -1.2526  1.2795
 1132TIP3   OH224886   1.044   6.693  16.796  0.3540 -0.0453 -0.2297
 1132TIP3    H124887   1.125   6.693  16.746 -0.5997  1.7975 -1.9050
 1132TIP3    H224888   1.059   6.757  16.866 -0.0320  1.2569 -1.2978
 1133TIP3   OH224889   4.083   1.813   2.591 -0.0317  0.1696  0.3409
 1133TIP3    H124890   4.046   1.875   2.528 -0.0066  0.1082  0.2659
 1133TIP3    H224891   4.114   1.740   2.538  0.0292  0.1370  0.4211
 1134TIP3   OH224892   1.746   4.792  11.150 -0.0482 -0.1169  0.0455
 1134TIP3    H124893   1.802   4.866  11.127 -0.5233  0.4178  0.5656
 1134TIP3    H224894   1.802   4.736  11.204 -0.4453  1.2321  1.9691
 1135TIP3   OH224895   6.648   2.827   3.316  0.3013 -0.5468 -0.5898
 1135TIP3    H124896   6.710   2.792   3.379 -1.4434 -0.3596  1.3318
 1135TIP3    H224897   6.634   2.756   3.254 -0.7763 -2.2062  1.4307
 1136TIP3   OH224898   3.045   6.804  11.014  0.0120  0.3524  0.5308
 1136TIP3    H124899   2.958   6.788  11.051 -0.9356  1.5066 -1.0636
 1136TIP3    H224900   3.031   6.874  10.951  2.6457  2.7127  2.3232
 1137TIP3   OH224901   0.205   6.071  13.508  0.3548 -0.3721 -0.0570
 1137TIP3    H124902   0.240   6.139  13.566  2.0572 -1.6041  0.4445
 1137TIP3    H224903   0.264   5.997  13.520 -1.2705 -1.8528 -0.8291
 1138TIP3   OH224904   4.418   0.326  15.683 -0.6044  0.3037 -0.0989
 1138TIP3    H124905   4.381   0.359  15.601 -1.8008  1.3638  0.8270
 1138TIP3    H224906   4.461   0.402  15.722 -0.3250 -0.1104  0.4063
 1139TIP3   OH224907   2.622   3.068   1.569  0.3149 -0.6975 -0.7553
 1139TIP3    H124908   2.557   3.095   1.635 -1.7000 -0.6654 -2.6442
 1139TIP3    H224909   2.642   3.149   1.521  0.2916 -1.0694 -1.3989
 1140TIP3   OH224910   6.305   0.456   3.329 -0.0427  0.1865 -0.1040
 1140TIP3    H124911   6.375   0.457   3.263  0.6972  0.5776  0.6613
 1140TIP3    H224912   6.332   0.389   3.392 -1.1217 -0.7192 -0.5769
 1141TIP3   OH224913   6.775   0.719   0.629 -0.8510 -0.3147  0.2102
 1141TIP3    H124914   6.825   0.743   0.706  0.7763 -1.5132 -0.4123
 1141TIP3    H224915   6.734   0.635   0.652 -0.6213 -0.5162 -0.1070
 1142TIP3   OH224916   6.023   2.229   1.672  0.3007 -0.4818 -0.1764
 1142TIP3    H124917   6.062   2.298   1.726  1.0185 -1.5909  0.7773
 1142TIP3    H224918   5.931   2.228   1.697 -0.5041  2.2466 -2.5407
 1143TIP3   OH224919   2.522   0.315  11.728  0.1517 -0.1076  0.0462
 1143TIP3    H124920   2.484   0.229  11.709  0.1923 -0.0009 -0.5282
 1143TIP3    H224921   2.484   0.340  11.812 -0.9323 -0.0754 -0.4317
 1144TIP3   OH224922   5.537   4.806   1.202  0.3219  0.5935  0.4030
 1144TIP3    H124923   5.512   4.843   1.117 -1.4248  2.0333  1.4585
 1144TIP3    H224924   5.470   4.739   1.219  0.0367  1.0342  1.0719
 1145TIP3   OH224925   1.717   0.342   3.453  0.1792  0.1235  0.4947
 1145TIP3    H124926   1.631   0.366   3.417  0.0420 -1.5425 -0.4047
 1145TIP3    H224927   1.777   0.407   3.416 -0.3361 -0.1647 -0.9396
 1146TIP3   OH224928   1.221   3.051   2.907  0.9053 -0.5391  1.2742
 1146TIP3    H124929   1.244   3.083   2.994 -0.7582 -0.6058  1.7675
 1146TIP3    H224930   1.144   3.102   2.882  2.1496  0.4906 -0.7933
 1147TIP3   OH224931   2.995   3.192  10.788  0.4136 -0.2299  0.3173
 1147TIP3    H124932   2.929   3.144  10.838 -3.1867  2.5445 -1.3019
 1147TIP3    H224933   2.991   3.282  10.822  3.0544  0.2027 -0.2501
 1148TIP3   OH224934   2.366   4.314  15.504 -0.7390  0.3418  0.1478
 1148TIP3    H124935   2.408   4.330  15.420  0.2203 -0.2822  0.4808
 1148TIP3    H224936   2.291   4.372  15.506 -0.9982  0.0888 -1.3007
 1149TIP3   OH224937   1.248   6.494   5.656 -0.4997  0.1461  0.1177
 1149TIP3    H124938   1.330   6.532   5.687  0.2938  0.6039 -2.3265
 1149TIP3    H224939   1.219   6.437   5.727  1.0657  1.2391  1.6975
 1150TIP3   OH224940   1.612   5.066  14.342  0.1730  0.3080  0.9360
 1150TIP3    H124941   1.617   4.999  14.411  0.1421  0.0427  0.6829
 1150TIP3    H224942   1.568   5.022  14.269 -0.3124  0.7583  0.9477
 1151TIP3   OH224943   1.019   4.986  15.466  0.1305 -0.1899  0.0177
 1151TIP3    H124944   0.991   4.980  15.558 -3.1092 -1.5936 -0.9022
 1151TIP3    H224945   1.053   4.899  15.446  0.4846  0.0011 -0.2044
 1152TIP3   OH224946   3.382   2.517   1.393  0.5520  0.1254  0.1261
 1152TIP3    H124947   3.336   2.490   1.472  1.9893  1.3162  1.4330
 1152TIP3    H224948   3.389   2.612   1.400  2.1912  0.0956 -0.5519
 1153TIP3   OH224949   5.418   3.393  15.954 -0.1167  0.3441  0.6844
 1153TIP3    H124950   5.385   3.473  15.994  2.2377  1.1866  1.1122
 1153TIP3    H224951   5.477   3.423  15.885  1.6070 -0.9460  1.5186
 1154TIP3   OH224952   3.581   4.863  13.677  0.3195 -0.2446 -0.0769
 1154TIP3    H124953   3.610   4.922  13.608 -0.7898 -0.6807 -0.9373
 1154TIP3    H224954   3.647   4.873  13.746  1.5425  0.0895 -1.2478
 1155TIP3   OH224955   1.814   1.681  16.328  0.5033  0.3608 -0.0246
 1155TIP3    H124956   1.859   1.752  16.283  0.2404  0.2229 -0.5119
 1155TIP3    H224957   1.721   1.696  16.310  0.3820  0.3961  0.6080
 1156TIP3   OH224958   6.602   3.302  10.891 -0.5433 -0.0624  0.4291
 1156TIP3    H124959   6.696   3.308  10.908 -0.5920 -0.0960  0.7100
 1156TIP3    H224960   6.596   3.284  10.797 -0.1501 -3.3845  0.9154
 1157TIP3   OH224961   2.818   4.633   3.469  0.4067  0.3591  0.7220
 1157TIP3    H124962   2.778   4.688   3.401  1.2953  0.7299  0.4972
 1157TIP3    H224963   2.855   4.695   3.532 -0.6082  0.0177  1.6828
 1158TIP3   OH224964   5.008   6.430   3.212 -0.0060  0.6981  0.2922
 1158TIP3    H124965   5.071   6.430   3.284  2.4300 -0.7924 -1.6503
 1158TIP3    H224966   4.983   6.338   3.201 -2.6495  1.2436  0.9958
 1159TIP3   OH224967   0.442   0.810  15.220 -0.3570 -0.1628 -0.1797
 1159TIP3    H124968   0.432   0.721  15.255 -0.9103 -0.1267 -0.2388
 1159TIP3    H224969   0.454   0.797  15.126 -0.8333 -0.1556 -0.2428
 1160TIP3   OH224970   1.328   1.454   1.170 -0.2214 -0.4878  0.4614
 1160TIP3    H124971   1.242   1.417   1.149 -0.0208 -1.4193  1.1988
 1160TIP3    H224972   1.341   1.523   1.105 -0.3228 -2.1279 -1.3772
 1161TIP3   OH224973   3.904   0.553  11.366  0.2581 -0.0381 -0.0330
 1161TIP3    H124974   3.910   0.489  11.295 -0.3438 -0.1455  0.0129
 1161TIP3    H224975   3.823   0.532  11.411  1.0446 -0.5292  1.2240
 1162TIP3   OH224976   2.222   0.489   0.019  0.6215  0.0272 -0.7143
 1162TIP3    H124977   2.309   0.452   0.034  0.9212  0.5646 -1.1217
 1162TIP3    H224978   2.233   0.583   0.029 -0.0424  0.0581 -0.1681
 1163TIP3   OH224979   5.936   5.675  10.761  0.0874  0.8861  0.7680
 1163TIP3    H124980   6.018   5.723  10.772  0.0860  0.9087  0.6830
 1163TIP3    H224981   5.963   5.586  10.740  0.1015  1.1124 -0.2573
 1164TIP3   OH224982   4.642   2.698  15.732 -0.6190 -0.5072  0.6896
 1164TIP3    H124983   4.670   2.783  15.697 -2.4265  0.7440  2.0627
 1164TIP3    H224984   4.671   2.634  15.667 -2.0488  1.4630 -2.0894
 1165TIP3   OH224985   3.530   2.305   5.230 -0.0187 -0.1146 -0.2535
 1165TIP3    H124986   3.450   2.284   5.279  0.6586 -0.1500  0.8717
 1165TIP3    H224987   3.540   2.400   5.240 -1.0805  0.2508 -2.2374
 1166TIP3   OH224988   3.730   6.518  12.282 -0.2538  0.5848  0.4319
 1166TIP3    H124989   3.765   6.476  12.361  0.9567  1.6164  0.4700
 1166TIP3    H224990   3.668   6.583  12.315 -0.6989  0.1521  0.4610
 1167TIP3   OH224991   6.156   1.930  11.201  0.5672  0.1989 -0.3831
 1167TIP3    H124992   6.114   1.851  11.233 -0.6406  1.1520  0.4922
 1167TIP3    H224993   6.108   1.952  11.121 -0.9824  1.5046  0.8237
 1168TIP3   OH224994   0.873   5.249   4.442  0.4051  0.3653 -0.4944
 1168TIP3    H124995   0.797   5.298   4.413  0.3945  1.8031  1.7115
 1168TIP3    H224996   0.847   5.157   4.435 -1.4960  0.8267  0.0552
 1169TIP3   OH224997   4.684   1.290  14.579  0.3573 -0.2131 -0.0975
 1169TIP3    H124998   4.651   1.375  14.609 -1.4781 -1.0066  0.3074
 1169TIP3    H224999   4.712   1.306  14.489  0.0258  0.8268 -0.0353
 1170TIP3   OH225000   4.336   2.737   5.143 -0.0832  0.0908  0.6005
 1170TIP3    H125001   4.368   2.653   5.111 -0.7032  0.3851 -0.9024
 1170TIP3    H225002   4.407   2.772   5.196  0.3671 -1.1503  0.8558
 1171TIP3   OH225003   6.534   1.413  13.900  0.6531 -0.3223 -0.2691
 1171TIP3    H125004   6.621   1.454  13.902  1.7415 -2.5094 -0.0529
 1171TIP3    H225005   6.494   1.438  13.983  1.7501 -0.6231  0.3741
 1172TIP3   OH225006   0.978   1.689   1.842 -0.0142  0.2539  0.5778
 1172TIP3    H125007   1.015   1.620   1.896  1.0939 -0.1035 -0.5865
 1172TIP3    H225008   1.025   1.683   1.759 -2.3369  0.1090 -0.8266
 1173TIP3   OH225009   3.381   4.717  12.277  0.1971 -0.5981 -0.0402
 1173TIP3    H125010   3.402   4.698  12.185 -1.6766 -2.0004 -0.2547
 1173TIP3    H225011   3.295   4.760  12.273  1.0221  1.2115  0.9699
 1174TIP3   OH225012   0.426   6.802  15.794  0.0128  0.0299 -0.1157
 1174TIP3    H125013   0.375   6.744  15.851  0.4154 -0.3997 -0.1894
 1174TIP3    H225014   0.402   6.775  15.705 -0.1475  0.2871 -0.1509
 1175TIP3   OH225015   6.418   0.030  11.569  0.3149 -0.7090  0.5081
 1175TIP3    H125016   6.450   0.102  11.514 -1.1434 -0.1150  0.3919
 1175TIP3    H225017   6.496  -0.002  11.615  0.8793  1.5016  1.2112
 1176TIP3   OH225018   2.682   2.087  10.972  0.1174  0.2667  1.0724
 1176TIP3    H125019   2.686   2.173  10.929 -0.9531  0.8536  2.0752
 1176TIP3    H225020   2.705   2.025  10.903  1.9939  1.4141  0.5841
 1177TIP3   OH225021   0.411   3.854  13.831 -0.1478 -0.2650  0.2379
 1177TIP3    H125022   0.480   3.828  13.770 -0.3857 -0.6768  0.1387
 1177TIP3    H225023   0.452   3.848  13.917  0.3038  0.6774  0.1130
 1178TIP3   OH225024   1.736   5.986  12.564  0.0557 -0.4157  0.2897
 1178TIP3    H125025   1.747   5.982  12.469  2.0882 -1.3799  0.5105
 1178TIP3    H225026   1.647   5.957  12.579 -0.3450 -0.1430 -1.3198
 1179TIP3   OH225027   4.902   3.892   2.343  0.1404 -0.1225  0.3806
 1179TIP3    H125028   4.899   3.944   2.423 -0.8985  0.2466  0.1152
 1179TIP3    H225029   4.816   3.902   2.304  0.6244 -0.3014 -0.7923
 1180TIP3   OH225030   0.068   0.796   4.175 -0.2654 -0.9401  0.1332
 1180TIP3    H125031  -0.012   0.807   4.124 -0.5777  0.6285  0.9355
 1180TIP3    H225032   0.131   0.761   4.112 -0.4399  1.5819 -1.5819
 1181TIP3   OH225033   6.544   4.557  15.132 -0.1721  0.4710  0.0122
 1181TIP3    H125034   6.517   4.577  15.042 -0.3480  1.3843  0.2548
 1181TIP3    H225035   6.635   4.587  15.136  0.3220 -0.9304 -0.2777
 1182TIP3   OH225036   6.264   1.888   3.902 -0.2360 -0.4168  0.1354
 1182TIP3    H125037   6.359   1.883   3.912 -0.2565 -0.8969  0.1193
 1182TIP3    H225038   6.232   1.908   3.990  0.1677  4.8996 -0.6126
 1183TIP3   OH225039   5.343   6.806  13.122 -0.0149 -0.4185  0.2455
 1183TIP3    H125040   5.355   6.719  13.159  0.9083 -0.4839 -0.1907
 1183TIP3    H225041   5.295   6.791  13.040 -1.3832 -0.3428  1.0064
 1184TIP3   OH225042   5.610   4.476  16.521 -0.1639 -0.2430  0.9114
 1184TIP3    H125043   5.529   4.437  16.554 -0.4947  0.5514  1.0621
 1184TIP3    H225044   5.673   4.404  16.522 -1.0409 -1.0513  0.1324
 1185TIP3   OH225045   0.609   2.634   3.497  0.4216 -0.6415  0.3095
 1185TIP3    H125046   0.543   2.608   3.433  1.3059 -0.5169 -0.6825
 1185TIP3    H225047   0.654   2.708   3.457  2.2579 -1.7546  0.1819
 1186TIP3   OH225048   0.669   6.525   2.896 -0.1314 -0.2871  0.2693
 1186TIP3    H125049   0.730   6.560   2.831 -2.3132  0.0429 -1.7474
 1186TIP3    H225050   0.601   6.593   2.903 -0.9291 -1.1720  1.4763
 1187TIP3   OH225051   5.254   4.471   4.394  0.2464  0.2053 -0.4043
 1187TIP3    H125052   5.195   4.411   4.349 -1.0185  0.5700  0.6805
 1187TIP3    H225053   5.337   4.466   4.346  0.5071 -3.1001  0.1734
 1188TIP3   OH225054   5.268   1.644  15.354 -0.4279 -0.1915  0.1818
 1188TIP3    H125055   5.358   1.675  15.348 -0.9214  1.2324 -0.3028
 1188TIP3    H225056   5.229   1.698  15.423 -0.9650 -0.6525  0.2485
 1189TIP3   OH225057   2.628   5.459  13.061 -0.4607 -0.2326 -0.4333
 1189TIP3    H125058   2.653   5.548  13.086  3.7721 -0.7836 -1.8549
 1189TIP3    H225059   2.634   5.408  13.142 -1.5266  0.4589  0.1089
 1190TIP3   OH225060   0.256   6.400  15.994 -0.6654 -0.2717 -0.2547
 1190TIP3    H125061   0.195   6.337  16.033 -1.2661  0.8448  0.6599
 1190TIP3    H225062   0.214   6.485  16.005  1.1929  0.5916  0.7738
 1191TIP3   OH225063   3.442   2.271  11.333  0.6201 -0.6205 -0.0197
 1191TIP3    H125064   3.417   2.355  11.370  1.5193 -0.0247 -0.7237
 1191TIP3    H225065   3.516   2.291  11.276 -0.6752 -1.4595 -2.1277
 1192TIP3   OH225066   1.352   2.861   1.636 -0.0684  0.2629  0.0619
 1192TIP3    H125067   1.423   2.836   1.694 -0.2286  0.2174  0.2394
 1192TIP3    H225068   1.395   2.892   1.556  0.1605 -2.0640 -0.8122
 1193TIP3   OH225069   0.537   3.520   0.921 -0.0710 -0.0649 -0.4489
 1193TIP3    H125070   0.615   3.550   0.967  0.5276  1.6760 -2.4377
 1193TIP3    H225071   0.485   3.599   0.906  0.1207 -0.3550 -3.2819
 1194TIP3   OH225072   5.887   2.239  10.762 -0.7415  0.3519  0.2215
 1194TIP3    H125073   5.795   2.264  10.767 -0.6512  0.8040 -0.3046
 1194TIP3    H225074   5.909   2.246  10.669 -0.0500  0.6914  0.4049
 1195TIP3   OH225075   4.008   1.044   4.547 -0.4565 -0.3437 -0.5303
 1195TIP3    H125076   3.949   1.066   4.619  0.0265 -1.0444  0.0987
 1195TIP3    H225077   4.069   1.118   4.543 -1.1975  0.2490 -0.9997
 1196TIP3   OH225078   6.196   5.238   2.442 -0.8550  0.0772  0.0060
 1196TIP3    H125079   6.170   5.158   2.396 -1.9648  1.7716 -2.5660
 1196TIP3    H225080   6.274   5.268   2.397 -1.5819  1.4504 -0.4027
 1197TIP3   OH225081   2.105   4.121  15.762 -0.2294  0.0393 -0.4337
 1197TIP3    H125082   2.011   4.134  15.775 -0.4622 -1.3687 -0.5984
 1197TIP3    H225083   2.145   4.202  15.796 -1.4427  0.3699  0.2779
 1198TIP3   OH225084   2.314   6.180  12.507 -0.2951 -0.3837  0.0165
 1198TIP3    H125085   2.315   6.191  12.602 -0.0599  1.3113 -0.1668
 1198TIP3    H225086   2.223   6.195  12.482 -0.9411 -3.3273  0.1828
 1199TIP3   OH225087   1.496   2.560   0.460 -0.6483  0.6280 -0.1959
 1199TIP3    H125088   1.570   2.578   0.519 -1.5663  0.7079  0.9678
 1199TIP3    H225089   1.465   2.647   0.433  0.4173  0.5832 -1.6723
 1200TIP3   OH225090   5.148   4.617   0.017 -0.2989  0.6884  0.4327
 1200TIP3    H125091   5.194   4.587   0.095 -0.6312 -0.5909  0.1679
 1200TIP3    H225092   5.210   4.675  -0.027  1.2004 -1.1685 -0.0497
 1201TIP3   OH225093   5.122   4.887  16.630 -0.1528  0.1509  0.0297
 1201TIP3    H125094   5.129   4.918  16.720 -0.5698  1.1968 -0.2895
 1201TIP3    H225095   5.048   4.826  16.631  0.3723 -0.4996  0.5555
 1202TIP3   OH225096   1.521   1.152   6.143  0.2438  0.0705 -0.2177
 1202TIP3    H125097   1.505   1.231   6.195  0.5348 -0.8889  1.3829
 1202TIP3    H225098   1.552   1.185   6.058 -2.3068  1.7594 -0.6139
 1203TIP3   OH225099   2.389   4.784  16.614 -0.2428 -0.1526  0.3975
 1203TIP3    H125100   2.328   4.712  16.632 -2.9717  1.9076  0.1825
 1203TIP3    H225101   2.390   4.791  16.518  1.4397 -0.9894  0.3306
 1204TIP3   OH225102   3.770   3.031   2.916  0.3071 -0.3469 -0.1041
 1204TIP3    H125103   3.838   2.984   2.964  0.0863  1.9725  2.6793
 1204TIP3    H225104   3.690   3.017   2.967 -0.4413  0.3626 -1.0425
 1205TIP3   OH225105   4.759   4.202   5.552  0.2297 -0.6946  0.0539
 1205TIP3    H125106   4.773   4.171   5.642 -1.5725  0.5070  0.7962
 1205TIP3    H225107   4.669   4.177   5.532 -0.1883  1.1700 -0.5095
 1206TIP3   OH225108   4.462   5.291  14.306  0.2146  0.3663 -0.3029
 1206TIP3    H125109   4.383   5.241  14.284  0.2117  0.4820 -0.5594
 1206TIP3    H225110   4.477   5.347  14.230  0.3502  0.5916 -0.1118
 1207TIP3   OH225111   2.857   0.918   3.767  0.1384 -0.2096  0.3165
 1207TIP3    H125112   2.852   0.824   3.787 -0.6187 -0.7054 -1.9031
 1207TIP3    H225113   2.950   0.935   3.757  0.2299 -0.9920 -0.3057
 1208TIP3   OH225114   3.989   2.941   5.401 -0.1373  1.0426 -0.6821
 1208TIP3    H125115   3.943   2.875   5.453  0.4588  0.2089 -1.2003
 1208TIP3    H225116   3.953   2.931   5.313  1.2787  0.1113 -1.1849
 1209TIP3   OH225117   2.018   4.133   4.614  0.2560  0.0196 -0.0786
 1209TIP3    H125118   2.047   4.057   4.664  0.5757  1.7779  2.5907
 1209TIP3    H225119   2.096   4.163   4.568  0.7010  0.0036  0.6464
 1210TIP3   OH225120   0.959   0.929   2.650 -0.4446 -0.7388  0.0354
 1210TIP3    H125121   1.045   0.900   2.619 -1.0304 -0.1006 -2.4923
 1210TIP3    H225122   0.911   0.949   2.569 -2.3377  0.7258  1.4402
 1211TIP3   OH225123   4.066   4.174   5.979  0.2294  0.3662  0.1380
 1211TIP3    H125124   4.102   4.152   5.893  0.5330 -0.3577  0.4455
 1211TIP3    H225125   4.012   4.252   5.963  1.3885  1.0789 -0.4582
 1212TIP3   OH225126   5.668   2.004   1.798 -0.4193 -0.1899  0.0343
 1212TIP3    H125127   5.745   2.012   1.741 -1.0041  0.8988 -0.6421
 1212TIP3    H225128   5.636   2.094   1.806 -1.3930 -0.5827  0.6382
 1213TIP3   OH225129   6.142   5.243   2.111  0.2251 -0.1192  0.1268
 1213TIP3    H125130   6.235   5.252   2.132  0.3236  0.4852 -0.5146
 1213TIP3    H225131   6.108   5.183   2.177  1.1876 -0.7931  0.0265
 1214TIP3   OH225132   3.812   5.777  13.408 -0.5264 -0.0265 -0.0132
 1214TIP3    H125133   3.795   5.684  13.397  0.0067 -0.1982  0.5105
 1214TIP3    H225134   3.785   5.817  13.326 -1.3021 -0.5624 -0.0297
 1215TIP3   OH225135   1.715   2.652  13.891 -0.4201  0.0206  0.3060
 1215TIP3    H125136   1.798   2.635  13.936  0.6557  0.1338 -1.4900
 1215TIP3    H225137   1.717   2.746  13.873 -0.7629 -0.0403 -0.0597
 1216TIP3   OH225138   3.329   3.014  15.377  0.4949  0.1101  0.1252
 1216TIP3    H125139   3.324   2.963  15.458  0.6568 -2.7750 -1.5432
 1216TIP3    H225140   3.260   2.977  15.321  1.7370  0.5460 -1.7835
 1217TIP3   OH225141   3.944   4.681   1.725 -0.2512 -0.7418  0.0865
 1217TIP3    H125142   3.956   4.586   1.720 -2.1017 -1.0062  0.0555
 1217TIP3    H225143   3.891   4.703   1.649 -0.0604  0.2963  0.2315
 1218TIP3   OH225144   2.445   1.218  15.090  0.2155  0.4287 -0.1671
 1218TIP3    H125145   2.521   1.175  15.129  0.1547 -0.1172 -0.6348
 1218TIP3    H225146   2.426   1.166  15.012 -0.1959  0.9912 -0.4445
 1219TIP3   OH225147   5.651   3.405  17.050  0.3430 -0.7584 -0.2892
 1219TIP3    H125148   5.585   3.347  17.086  1.4725 -2.0015 -0.1591
 1219TIP3    H225149   5.624   3.419  16.959  0.8302 -2.7365 -0.7863
 1220TIP3   OH225150   3.659   2.582   5.496  0.2142 -0.0735  0.1340
 1220TIP3    H125151   3.724   2.513   5.480  0.0787  0.3124 -2.5348
 1220TIP3    H225152   3.575   2.538   5.489  0.1516  0.1197 -0.4333
 1221TIP3   OH225153   5.252   3.809   1.073 -0.3179 -0.2948 -0.2021
 1221TIP3    H125154   5.205   3.771   0.998 -1.7341 -2.7425  1.7413
 1221TIP3    H225155   5.332   3.758   1.079 -0.8320 -1.0399  0.6671
 1222TIP3   OH225156   1.379   1.087  17.033  0.1631  0.3878 -0.1628
 1222TIP3    H125157   1.450   1.103  16.972  0.1376 -1.0338 -0.6121
 1222TIP3    H225158   1.320   1.027  16.986 -1.4947  1.7532  0.0794
 1223TIP3   OH225159   6.205   2.696  11.189 -0.2961  0.6642  0.2077
 1223TIP3    H125160   6.157   2.620  11.224  0.3217 -0.4618 -1.2537
 1223TIP3    H225161   6.283   2.701  11.244  1.0677 -1.5801 -1.3579
 1224TIP3   OH225162   6.703   4.257  12.838 -0.7213  0.0108  0.1093
 1224TIP3    H125163   6.761   4.183  12.819 -2.1574 -1.2625  0.4394
 1224TIP3    H225164   6.632   4.249  12.774 -0.2567  1.9038 -0.7071
 1225TIP3   OH225165   3.488   0.976   5.458  0.2372  0.2672  0.5309
 1225TIP3    H125166   3.546   1.050   5.441 -1.0101  1.8932  2.7070
 1225TIP3    H225167   3.544   0.899   5.456  1.4120  1.0457 -2.9086
 1226TIP3   OH225168   3.735   5.904   6.262 -0.3262 -0.0283 -0.1066
 1226TIP3    H125169   3.715   5.989   6.225  0.4303  0.1106 -0.2190
 1226TIP3    H225170   3.667   5.889   6.327 -0.7517  0.4344 -0.4435
 1227TIP3   OH225171   0.115   1.957  16.813  0.0236  0.4277  0.0358
 1227TIP3    H125172   0.126   1.875  16.860 -0.5675  0.9454  1.1203
 1227TIP3    H225173   0.170   2.019  16.861  2.0305  0.2753 -1.9251
 1228TIP3   OH225174   6.103   3.088   5.400  0.0950  0.3194  0.1918
 1228TIP3    H125175   6.027   3.054   5.447  0.4787  0.1006  0.6645
 1228TIP3    H225176   6.081   3.078   5.308 -0.2031 -0.3079  0.3258
 1229TIP3   OH225177   5.119   0.574   3.795  0.2642  0.2797 -0.5590
 1229TIP3    H125178   5.091   0.607   3.710 -0.0933  0.5862 -0.3257
 1229TIP3    H225179   5.142   0.482   3.779  2.2619  0.8749 -1.4407
 1230TIP3   OH225180   0.571   2.200  10.657 -0.1573 -0.2646  0.1418
 1230TIP3    H125181   0.611   2.118  10.626  0.7277 -0.3581  1.4612
 1230TIP3    H225182   0.643   2.248  10.697 -0.7773  0.9400 -0.1573
 1231TIP3   OH225183   6.331   1.172   4.187 -0.2959  0.3336 -0.2540
 1231TIP3    H125184   6.392   1.099   4.174  0.6491  1.2011 -0.8521
 1231TIP3    H225185   6.274   1.143   4.258  1.8275  0.0980  1.4632
 1232TIP3   OH225186   5.312   6.250  12.263 -0.4080  0.7040  0.1398
 1232TIP3    H125187   5.245   6.282  12.202  0.2465  1.3694 -0.2453
 1232TIP3    H225188   5.383   6.218  12.206  0.2320  1.3796  0.5424
 1233TIP3   OH225189   5.655   2.908   5.026  0.5337  0.1738 -0.0756
 1233TIP3    H125190   5.602   2.986   5.010 -0.3542 -0.6140 -1.0664
 1233TIP3    H225191   5.599   2.835   5.001  1.8374 -0.7206 -0.4626
 1234TIP3   OH225192   0.176   1.682  15.743 -0.1578  0.1489 -0.3350
 1234TIP3    H125193   0.208   1.724  15.823  0.2776  0.1142 -0.4847
 1234TIP3    H225194   0.253   1.678  15.686 -0.4840  0.2628 -0.7942
 1235TIP3   OH225195   1.896   5.174   2.451 -0.7138 -0.6765  0.4778
 1235TIP3    H125196   1.810   5.209   2.427 -0.3191  0.8500  1.1782
 1235TIP3    H225197   1.956   5.210   2.386 -0.5106 -1.3458  0.2788
 1236TIP3   OH225198   0.309   6.079   3.737 -0.3306  0.3218  0.0588
 1236TIP3    H125199   0.327   6.049   3.825 -0.3651  4.7739  1.8610
 1236TIP3    H225200   0.393   6.076   3.692  0.0461 -0.4186  0.8014
 1237TIP3   OH225201   3.943   0.750  11.821 -0.6281  0.1572 -0.4186
 1237TIP3    H125202   4.026   0.748  11.774  0.3357 -2.4870  1.1569
 1237TIP3    H225203   3.882   0.704  11.765  0.5297 -3.0488  0.7485
 1238TIP3   OH225204   1.993   6.228   4.978  0.5290  0.0915  0.3794
 1238TIP3    H125205   1.902   6.205   4.995  0.8979 -1.6496  0.2641
 1238TIP3    H225206   1.990   6.316   4.942 -1.3889 -0.9557 -2.3475
 1239TIP3   OH225207   4.063   0.522  12.188 -0.2382 -0.2174 -0.0590
 1239TIP3    H125208   4.013   0.603  12.195  2.0220  1.2001  0.6586
 1239TIP3    H225209   4.128   0.539  12.120  1.9775 -0.3672  1.8641
 1240TIP3   OH225210   6.588   3.231  15.921  0.6396  0.1555 -0.1265
 1240TIP3    H125211   6.631   3.236  15.835  1.1017 -1.4735 -0.0225
 1240TIP3    H225212   6.593   3.320  15.955 -1.9070  1.5418 -2.8593
 1241TIP3   OH225213   2.342   2.472  11.157  0.4028 -0.1830  0.3900
 1241TIP3    H125214   2.376   2.411  11.091  0.0666  0.6349 -0.5595
 1241TIP3    H225215   2.260   2.504  11.120  0.6385  0.9472  0.8209
 1242TIP3   OH225216   4.667   1.180  11.826  0.2764 -0.2187  0.1653
 1242TIP3    H125217   4.588   1.129  11.816  0.6756 -0.7055 -0.5326
 1242TIP3    H225218   4.637   1.271  11.824 -0.2494 -0.3968 -0.1949
 1243TIP3   OH225219   3.525   3.834   3.833  0.5742 -0.1347  0.2356
 1243TIP3    H125220   3.588   3.874   3.773  0.9045  2.3504  2.0723
 1243TIP3    H225221   3.566   3.751   3.859  1.5278 -0.1074 -1.0784
 1244TIP3   OH225222   0.794   2.779  10.260 -0.2128 -0.4851  0.2000
 1244TIP3    H125223   0.882   2.790  10.295  0.0435  0.3383 -0.6415
 1244TIP3    H225224   0.743   2.744  10.332  0.9250 -1.4915  0.5477
 1245TIP3   OH225225   1.375   6.759  16.968 -0.0318 -0.1405 -0.1557
 1245TIP3    H125226   1.465   6.776  16.941  0.5312 -0.9070  1.1333
 1245TIP3    H225227   1.363   6.665  16.955 -0.5051 -0.1127  0.0512
 1246TIP3   OH225228   1.251   2.862  12.364  0.2651 -0.4124  0.0211
 1246TIP3    H125229   1.161   2.874  12.394  0.0391 -1.6911 -0.0725
 1246TIP3    H225230   1.246   2.787  12.305  1.5379 -1.0934  0.7423
 1247TIP3   OH225231   2.425   6.153  10.924 -0.1055 -0.0731  0.6056
 1247TIP3    H125232   2.352   6.203  10.959 -1.6297 -1.0704 -0.9734
 1247TIP3    H225233   2.384   6.085  10.870  1.9733 -1.0859  0.1918
 1248TIP3   OH225234   1.799   1.527   1.434 -0.2178 -0.3174  0.5677
 1248TIP3    H125235   1.835   1.439   1.422 -0.3092 -0.1685 -0.9400
 1248TIP3    H225236   1.851   1.583   1.376 -2.1788  0.0531 -0.9510
 1249TIP3   OH225237   6.504   1.520   4.828  0.1945 -0.0971  0.1535
 1249TIP3    H125238   6.481   1.613   4.825 -1.7981 -0.3810  2.7850
 1249TIP3    H225239   6.451   1.480   4.759  1.6441  0.7411 -1.5259
 1250TIP3   OH225240   4.848   4.728   3.123 -0.4031 -0.4964 -0.0755
 1250TIP3    H125241   4.874   4.819   3.139 -0.3130 -0.5661  0.1801
 1250TIP3    H225242   4.752   4.731   3.120 -0.4586  0.3572 -4.4393
 1251TIP3   OH225243   0.223   5.896   4.527 -0.1041 -0.5000  0.1859
 1251TIP3    H125244   0.192   5.812   4.494 -0.9812 -0.3815  0.6984
 1251TIP3    H225245   0.302   5.875   4.577 -2.2403 -1.5537  3.3830
 1252TIP3   OH225246   3.583   3.810   3.137  0.0588 -0.1812  0.5648
 1252TIP3    H125247   3.526   3.741   3.104 -0.7168  0.0126  1.4227
 1252TIP3    H225248   3.522   3.881   3.162  0.5183 -0.4538  2.7037
 1253TIP3   OH225249   5.683   0.469   4.029 -0.4935 -0.3614 -0.3872
 1253TIP3    H125250   5.601   0.482   4.077 -0.0955  1.3599 -0.1010
 1253TIP3    H225251   5.666   0.507   3.942 -0.5704 -1.6564 -0.9518
 1254TIP3   OH225252   2.961   1.722  14.220 -0.6209  0.0188  0.2461
 1254TIP3    H125253   2.866   1.715  14.229 -0.6479  0.4427  0.3537
 1254TIP3    H225254   2.977   1.816  14.211 -0.1790 -0.0114  0.6520
 1255TIP3   OH225255   0.116   4.626   3.601  0.2615 -0.5827 -0.1834
 1255TIP3    H125256   0.119   4.638   3.696 -0.5213 -0.5499 -0.1579
 1255TIP3    H225257   0.023   4.618   3.580  0.3890 -0.0054 -1.0259
 1256TIP3   OH225258   5.747   6.619  13.139  0.3056 -0.1594  0.5762
 1256TIP3    H125259   5.823   6.633  13.195  1.6894 -2.6536 -0.5275
 1256TIP3    H225260   5.744   6.525  13.125 -1.9138  0.0511 -0.9373
 1257TIP3   OH225261   2.211   6.303  15.267  0.4213  0.3556  0.5046
 1257TIP3    H125262   2.238   6.376  15.211 -0.1014  0.5682  0.5237
 1257TIP3    H225263   2.252   6.226  15.228  2.0273  0.8074  1.1901
 1258TIP3   OH225264   1.141   4.901  14.200 -0.2057 -0.0257  0.7381
 1258TIP3    H125265   1.086   4.973  14.229 -1.5856 -0.2407 -1.1522
 1258TIP3    H225266   1.094   4.822  14.229  0.5178 -0.1955  1.4752
 1259TIP3   OH225267   0.654   3.999   0.166 -0.3117 -0.5799 -0.1662
 1259TIP3    H125268   0.615   3.962   0.245  2.0466 -1.4070  0.6920
 1259TIP3    H225269   0.635   4.093   0.173  1.5737 -0.2868  2.5279
 1260TIP3   OH225270   1.984   5.788  12.013 -0.1388 -0.3012  0.0552
 1260TIP3    H125271   2.044   5.837  12.070 -1.0075  0.8340  0.0175
 1260TIP3    H225272   1.912   5.849  11.996 -0.3866 -0.9761 -1.4383
 1261TIP3   OH225273   4.738   3.850   5.747  0.3189  0.2641 -0.3602
 1261TIP3    H125274   4.775   3.764   5.767 -0.6270 -0.1576 -0.3552
 1261TIP3    H225275   4.788   3.911   5.800 -1.1191 -0.6321  2.2337
 1262TIP3   OH225276   5.480   3.514   4.121 -0.5724 -0.0080  0.3120
 1262TIP3    H125277   5.419   3.527   4.048 -0.5498  2.7221  0.7059
 1262TIP3    H225278   5.424   3.487   4.194 -1.1342  0.9752  0.2616
 1263TIP3   OH225279   1.826   5.404   1.068  0.1395  0.1154  0.4015
 1263TIP3    H125280   1.741   5.438   1.096 -0.6877 -1.4810 -0.0495
 1263TIP3    H225281   1.863   5.364   1.146 -0.7198 -1.4721  0.0427
 1264TIP3   OH225282   4.725   4.936  16.641  0.1771 -0.0638 -0.4602
 1264TIP3    H125283   4.727   5.001  16.571  0.2354 -0.1613 -0.5497
 1264TIP3    H225284   4.665   4.868  16.609 -0.4680  0.3056 -0.0462
 1265TIP3   OH225285   1.250   2.907  12.648  0.5137 -0.7485 -0.4138
 1265TIP3    H125286   1.160   2.879  12.633  0.6590 -0.8889 -1.0523
 1265TIP3    H225287   1.288   2.913  12.561  0.2865  2.1343 -0.4142
 1266TIP3   OH225288   1.687   4.516  15.247 -0.0672 -0.2198 -0.5562
 1266TIP3    H125289   1.715   4.607  15.257 -0.7168 -0.0630 -0.0560
 1266TIP3    H225290   1.593   4.519  15.264 -0.6626 -0.5270 -3.4310
 1267TIP3   OH225291   4.387   5.239   0.831 -0.8122 -0.1016 -0.5660
 1267TIP3    H125292   4.441   5.289   0.770  0.5671 -0.6414  0.1515
 1267TIP3    H225293   4.450   5.189   0.883 -2.0700 -1.9380 -0.6869
 1268TIP3   OH225294   0.024   3.808   1.432 -0.0998  0.5019 -0.6794
 1268TIP3    H125295  -0.035   3.881   1.451  0.5125  1.0550 -0.8348
 1268TIP3    H225296   0.109   3.850   1.416  0.6844 -0.3733  0.9777
 1269TIP3   OH225297   0.664   2.483   5.479  0.3814  0.0046  0.3524
 1269TIP3    H125298   0.591   2.420   5.483 -0.1243  0.5320 -0.4264
 1269TIP3    H225299   0.726   2.444   5.418 -0.2408  0.5590 -0.6610
 1270TIP3   OH225300   1.778   0.646  12.824 -0.1094 -0.3373  0.3948
 1270TIP3    H125301   1.873   0.643  12.813 -0.2892 -0.7887 -1.5813
 1270TIP3    H225302   1.747   0.568  12.778 -1.6362  1.7128 -2.3567
 1271TIP3   OH225303   0.835   0.005  11.861 -0.5810  0.0040 -0.4967
 1271TIP3    H125304   0.752   0.008  11.908 -0.2603 -0.1088  0.0840
 1271TIP3    H225305   0.823  -0.065  11.796 -0.9587  0.0332 -0.4603
 1272TIP3   OH225306   0.118   0.803   1.830  0.6376  0.1921  0.1865
 1272TIP3    H125307   0.103   0.820   1.923 -0.6274 -1.8677  0.4044
 1272TIP3    H225308   0.064   0.869   1.785  0.2266  0.3635  0.9155
 1273TIP3   OH225309   4.396   4.717   3.899 -0.2991  0.5251 -0.3166
 1273TIP3    H125310   4.438   4.743   3.981 -0.3201  0.7393 -0.3731
 1273TIP3    H225311   4.330   4.654   3.925  0.7338 -0.5979 -0.3256
 1274TIP3   OH225312   0.811   4.475  15.992  0.5195  0.2149 -0.2593
 1274TIP3    H125313   0.841   4.446  15.905  0.6066 -0.1353 -0.1164
 1274TIP3    H225314   0.726   4.515  15.976  0.7537  0.5897 -0.5746
 1275TIP3   OH225315   1.587   0.990   2.840  0.1334  0.4986  0.0135
 1275TIP3    H125316   1.635   0.982   2.922 -1.0066  1.9488  0.8540
 1275TIP3    H225317   1.629   0.926   2.782  1.0814 -0.4292  1.6448
 1276TIP3   OH225318   0.694   1.830   5.574 -0.3844 -0.2683 -0.6322
 1276TIP3    H125319   0.647   1.829   5.657  3.0342 -0.9663  1.5301
 1276TIP3    H225320   0.644   1.772   5.517 -1.1199 -2.5550  2.1071
 1277TIP3   OH225321   6.205   3.753  13.171 -0.2916  0.0506  0.3406
 1277TIP3    H125322   6.292   3.724  13.144 -0.7366  0.2109 -1.3776
 1277TIP3    H225323   6.221   3.813  13.244  1.2015  1.4850 -1.0864
 1278TIP3   OH225324   0.230   4.681  16.522 -0.2171 -0.4697 -0.3844
 1278TIP3    H125325   0.213   4.671  16.616  0.1341  1.5630 -0.0673
 1278TIP3    H225326   0.296   4.750  16.517 -1.4507  0.6550 -2.2002
 1279TIP3   OH225327   0.140   4.352  10.708 -0.2646 -0.2015 -0.4854
 1279TIP3    H125328   0.162   4.362  10.800 -1.2053 -0.0024 -0.2827
 1279TIP3    H225329   0.077   4.280  10.706  1.3040 -1.6478 -1.2071
 1280TIP3   OH225330   0.839   0.632  17.101 -0.2856  0.3524  0.7272
 1280TIP3    H125331   0.810   0.701  17.042  0.5098  0.9062  0.9711
 1280TIP3    H225332   0.769   0.567  17.097 -0.4019  0.5224 -0.5751
 1281TIP3   OH225333   3.373   5.153   0.281 -0.8794  0.2366  0.1084
 1281TIP3    H125334   3.442   5.216   0.262  0.1513 -0.3857  1.5226
 1281TIP3    H225335   3.383   5.085   0.214 -0.9632  0.8037 -0.4762
 1282TIP3   OH225336   1.556   2.464  11.921  0.7298  0.1024 -0.0622
 1282TIP3    H125337   1.593   2.550  11.936  0.7290 -0.1247  1.4293
 1282TIP3    H225338   1.624   2.403  11.950  0.6269 -0.3981 -0.8408
 1283TIP3   OH225339   6.342   2.276   2.762  0.0476  0.0591 -0.3195
 1283TIP3    H125340   6.292   2.335   2.817  0.1425 -0.6043  0.5028
 1283TIP3    H225341   6.434   2.292   2.786  0.0233 -1.0665  0.5995
 1284TIP3   OH225342   4.033   3.204  13.695 -0.0333  0.3983 -0.1722
 1284TIP3    H125343   4.001   3.117  13.718 -0.2704  0.8449  1.2635
 1284TIP3    H225344   4.031   3.254  13.777  2.6494  0.9962 -0.3792
 1285TIP3   OH225345   0.126   3.234  14.507 -0.4028  0.0207 -0.7192
 1285TIP3    H125346   0.197   3.297  14.492 -0.3856  0.2325  0.2292
 1285TIP3    H225347   0.171   3.150  14.515 -0.1501  0.2786  0.8071
 1286TIP3   OH225348   2.804   6.491   0.139  0.0242 -0.0321  0.0539
 1286TIP3    H125349   2.791   6.451   0.053 -0.7603  0.3676 -0.0200
 1286TIP3    H225350   2.895   6.470   0.162 -0.1268 -1.1746 -0.3301
 1287TIP3   OH225351   1.774   3.334   4.748 -0.0988 -0.2213  0.1150
 1287TIP3    H125352   1.728   3.250   4.740 -1.7266  0.4600  1.5549
 1287TIP3    H225353   1.832   3.337   4.672 -1.7308 -1.5857 -1.2783
 1288TIP3   OH225354   6.716   4.560  12.803 -0.4806 -0.4933 -0.3120
 1288TIP3    H125355   6.689   4.517  12.722  0.5245 -1.4369 -0.1879
 1288TIP3    H225356   6.735   4.487  12.863  3.7354 -0.1323 -0.8682
 1289TIP3   OH225357   4.547   3.556  13.218 -0.3012 -0.2948 -0.3479
 1289TIP3    H125358   4.581   3.494  13.283  0.5419  0.5426  0.0291
 1289TIP3    H225359   4.625   3.601  13.185 -0.8438  0.1236 -1.0764
 1290TIP3   OH225360   0.455   6.600  11.597  0.0936 -0.7947  0.4474
 1290TIP3    H125361   0.524   6.541  11.627  0.9859  0.3647  0.7585
 1290TIP3    H225362   0.501   6.679  11.567 -1.0559 -0.2258  0.0877
 1291TIP3   OH225363   2.035   1.404   6.316 -0.6648 -0.2087 -0.3946
 1291TIP3    H125364   2.014   1.447   6.399 -0.6302 -1.4588  0.2749
 1291TIP3    H225365   2.024   1.473   6.250 -1.0568  0.7013  0.6003
 1292TIP3   OH225366   4.044   0.149  13.493 -0.5255  0.4399  0.1515
 1292TIP3    H125367   3.985   0.214  13.530  1.2735  2.3826 -0.2312
 1292TIP3    H225368   4.131   0.178  13.518  0.3367 -2.0954  0.3280
 1293TIP3   OH225369   4.492   3.090  12.288 -0.6560 -0.4849 -0.1070
 1293TIP3    H125370   4.471   2.996  12.285 -0.3627 -0.5376 -1.3725
 1293TIP3    H225371   4.585   3.094  12.266 -0.6185  0.0947  0.1553
 1294TIP3   OH225372   2.633   3.896   0.413  0.0364 -0.1513 -0.1495
 1294TIP3    H125373   2.637   3.898   0.509 -0.8336  0.4812 -0.1207
 1294TIP3    H225374   2.699   3.959   0.385  0.3682 -0.4167  0.0252
 1295TIP3   OH225375   3.610   1.663  13.440 -0.7327 -0.3837  0.3142
 1295TIP3    H125376   3.631   1.751  13.470 -1.2290 -0.2572  0.3134
 1295TIP3    H225377   3.671   1.606  13.487 -1.3061 -0.1584  1.3637
 1296TIP3   OH225378   1.115   5.944   1.874 -0.1617  0.5725 -0.1228
 1296TIP3    H125379   1.092   6.036   1.890 -1.6620  0.0473  0.9242
 1296TIP3    H225380   1.197   5.932   1.922 -1.0235  0.8718  1.5246
 1297TIP3   OH225381   4.990   2.002  15.735  0.2483  0.1272 -0.7063
 1297TIP3    H125382   4.989   1.916  15.692  0.7715 -0.1111 -0.2523
 1297TIP3    H225383   4.926   1.995  15.805  1.0055 -0.2317 -0.0366
 1298TIP3   OH225384   0.011   6.414  14.180 -0.4437 -0.3731  0.4706
 1298TIP3    H125385   0.061   6.402  14.261  1.7650  2.1313 -0.3934
 1298TIP3    H225386   0.050   6.352  14.118 -0.1461 -0.2074  0.4948
 1299TIP3   OH225387   1.729   0.896   4.733  0.0869  0.4923 -0.0747
 1299TIP3    H125388   1.802   0.914   4.675  0.2407  2.5720  0.6743
 1299TIP3    H225389   1.754   0.816   4.780  0.7412 -0.2005 -1.5505
 1300TIP3   OH225390   5.839   3.586   1.068 -0.3059 -0.2153  0.0888
 1300TIP3    H125391   5.807   3.537   1.144  0.3838  0.1167  0.6016
 1300TIP3    H225392   5.878   3.519   1.012 -0.2020 -0.3772  0.3502
 1301TIP3   OH225393   0.238   5.227  12.717  0.2112 -0.2276  0.0044
 1301TIP3    H125394   0.166   5.279  12.754 -0.7822 -1.2595 -0.4182
 1301TIP3    H225395   0.256   5.160  12.783  0.7746  0.0031  0.0908
 1302TIP3   OH225396   1.191   2.277   0.175  0.3142  0.0195  0.2741
 1302TIP3    H125397   1.197   2.324   0.258 -0.3895 -0.3836  0.5701
 1302TIP3    H225398   1.261   2.212   0.179  0.4926  0.2177  0.4071
 1303TIP3   OH225399   2.673   2.037   0.502 -0.2454  0.0803  0.3203
 1303TIP3    H125400   2.724   2.088   0.565 -1.5205 -0.0084  1.4891
 1303TIP3    H225401   2.589   2.084   0.497 -0.5222 -0.4942 -0.5312
 1304TIP3   OH225402   3.417   2.322  13.870  0.5706  0.0343 -0.2821
 1304TIP3    H125403   3.490   2.310  13.930  0.6895 -2.0886 -0.7845
 1304TIP3    H225404   3.341   2.337  13.927  1.1724  1.2032  0.2632
 1305TIP3   OH225405   5.557   6.033  16.894  0.7681  0.0150 -0.3238
 1305TIP3    H125406   5.572   6.126  16.916  0.0821  0.3340 -1.1696
 1305TIP3    H225407   5.540   6.033  16.800 -2.8820 -0.4791  0.2026
 1306TIP3   OH225408   1.476   2.425  11.660  0.6574 -0.2570 -0.2374
 1306TIP3    H125409   1.529   2.417  11.739  1.7411  1.2806 -0.7630
 1306TIP3    H225410   1.521   2.491  11.607 -1.5684  0.8140 -0.9009
 1307TIP3   OH225411   4.443   4.467  14.927  0.5152  0.2289  0.4585
 1307TIP3    H125412   4.442   4.381  14.969  1.9095  0.1414  0.3443
 1307TIP3    H225413   4.364   4.511  14.961  0.7243 -0.4456  1.8952
 1308TIP3   OH225414   0.206   4.226  13.378  0.3369 -0.2791  0.1477
 1308TIP3    H125415   0.141   4.249  13.444 -0.1305 -0.5137 -0.2276
 1308TIP3    H225416   0.214   4.131  13.384 -1.5343 -0.6406 -1.7780
 1309TIP3   OH225417   0.580   2.857   1.323  0.2047  0.1653 -0.6815
 1309TIP3    H125418   0.557   2.765   1.338 -1.7517  0.7630  0.5134
 1309TIP3    H225419   0.504   2.893   1.278  0.9425  1.1982 -1.1233
 1310TIP3   OH225420   1.760   3.765   0.236 -0.3631  0.4101  0.2085
 1310TIP3    H125421   1.669   3.780   0.262  0.0626 -0.5246  2.5050
 1310TIP3    H225422   1.766   3.799   0.147 -3.4644 -1.3651 -0.8044
 1311TIP3   OH225423   0.280   5.242   3.454 -0.0138 -0.0919 -0.0167
 1311TIP3    H125424   0.330   5.212   3.379 -1.3136 -1.2138 -0.4891
 1311TIP3    H225425   0.189   5.223   3.431 -0.5951  1.1342  1.1283
 1312TIP3   OH225426   4.134   2.300   4.121  0.0381  0.5434  0.6410
 1312TIP3    H125427   4.104   2.281   4.032 -1.7391 -0.2783  1.3702
 1312TIP3    H225428   4.139   2.395   4.124  1.4953  0.5534 -0.7370
 1313TIP3   OH225429   3.270   2.577  15.933  0.5964 -0.1879 -0.0827
 1313TIP3    H125430   3.340   2.555  15.872  1.6841 -0.3075  1.1567
 1313TIP3    H225431   3.279   2.671  15.946  1.4563 -0.4117  1.1308
 1314TIP3   OH225432   2.889   4.632  13.096 -0.3503 -0.0464  0.4712
 1314TIP3    H125433   2.845   4.708  13.133  0.3695  1.9046 -2.3310
 1314TIP3    H225434   2.977   4.634  13.134 -0.7150 -0.2341  1.3358
 1315TIP3   OH225435   6.357   0.545  10.806  0.2213 -0.0893  0.1646
 1315TIP3    H125436   6.330   0.489  10.733  0.1818  0.5933 -0.3528
 1315TIP3    H225437   6.447   0.570  10.785 -0.0661  0.7769 -0.0792
 1316TIP3   OH225438   4.570   0.875  10.471 -0.0811  0.2604  0.0918
 1316TIP3    H125439   4.526   0.912  10.394  0.4683 -0.1015 -0.4068
 1316TIP3    H225440   4.661   0.864  10.443  0.2590  0.6585  0.9825
 1317TIP3   OH225441   2.711   6.042   5.749 -0.2378  0.3409  0.2362
 1317TIP3    H125442   2.636   6.001   5.790  1.8201 -3.1122  0.9374
 1317TIP3    H225443   2.745   6.102   5.816 -2.6672  2.6365 -0.4045
 1318TIP3   OH225444   4.689   1.776  12.703 -0.0736 -0.2343 -0.3160
 1318TIP3    H125445   4.777   1.749  12.729  0.2008 -0.0369 -0.9997
 1318TIP3    H225446   4.695   1.871  12.694 -0.2203 -0.2739 -0.8584
 1319TIP3   OH225447   5.925   4.553  12.346  0.2353  0.2957  0.4194
 1319TIP3    H125448   6.000   4.497  12.366  1.9887  2.6134  0.7897
 1319TIP3    H225449   5.947   4.638  12.385 -2.0748  1.3932 -0.4576
 1320TIP3   OH225450   5.683   1.678  13.438 -0.0781  0.3167  0.4207
 1320TIP3    H125451   5.746   1.624  13.391 -0.1293 -0.7231  1.4980
 1320TIP3    H225452   5.726   1.763  13.447  1.7261 -0.7182  2.1983
 1321TIP3   OH225453   1.129   5.663  11.640 -0.3619 -0.3484  0.3300
 1321TIP3    H125454   1.067   5.734  11.657 -0.3834 -0.0760 -0.8136
 1321TIP3    H225455   1.106   5.596  11.705 -1.1075  0.2029  0.6630
 1322TIP3   OH225456   3.528   0.827   4.710 -0.2852  0.0302  0.7021
 1322TIP3    H125457   3.552   0.888   4.780 -1.2481  2.0132 -0.6256
 1322TIP3    H225458   3.434   0.814   4.721 -0.0707 -1.4592  1.0905
 1323TIP3   OH225459   4.626   5.184   5.742  0.2004  0.0219  0.0574
 1323TIP3    H125460   4.670   5.160   5.823 -1.1736 -0.6782  0.6277
 1323TIP3    H225461   4.533   5.187   5.765 -0.3023 -0.9714 -1.6654
 1324TIP3   OH225462   2.074   6.573   2.859  0.2431 -0.3609  0.0501
 1324TIP3    H125463   2.150   6.588   2.915  0.2948 -1.7539  0.4037
 1324TIP3    H225464   2.082   6.638   2.790  1.8508 -0.5613 -0.0005
 1325TIP3   OH225465   3.982   5.084  14.825 -0.2352  0.2420 -0.4749
 1325TIP3    H125466   4.045   5.120  14.762  0.9367 -1.0778 -0.1145
 1325TIP3    H225467   3.970   5.155  14.889  1.0881  0.4583 -0.4233
 1326TIP3   OH225468   4.802   6.545   4.471 -0.3397 -0.5480 -0.2507
 1326TIP3    H125469   4.866   6.475   4.482  1.6355  1.0545 -0.8580
 1326TIP3    H225470   4.834   6.596   4.397 -0.9148  1.7745  0.9712
 1327TIP3   OH225471   4.826   6.812   2.812  0.1400  0.1015  0.2191
 1327TIP3    H125472   4.919   6.818   2.792  0.2295  0.5738  0.7632
 1327TIP3    H225473   4.802   6.899   2.842 -0.5070  0.0128 -0.0227
 1328TIP3   OH225474   1.763   2.257   3.862  0.5753 -0.2730 -0.2914
 1328TIP3    H125475   1.722   2.240   3.947  1.8251  0.6747  0.5242
 1328TIP3    H225476   1.751   2.175   3.813 -0.2638 -0.7919  0.7442
 1329TIP3   OH225477   4.419   4.403  14.663 -0.1452 -0.1678  0.8891
 1329TIP3    H125478   4.447   4.411  14.754  1.0412 -1.7133  0.7169
 1329TIP3    H225479   4.500   4.385  14.615 -0.9751 -1.3136 -0.1647
 1330TIP3   OH225480   3.081   5.480  16.756  0.3426 -0.8636 -0.6320
 1330TIP3    H125481   3.094   5.391  16.789 -0.5635 -0.8164 -0.1342
 1330TIP3    H225482   2.989   5.484  16.731  0.9887 -0.9173 -3.2930
 1331TIP3   OH225483   2.090   6.361  13.029  0.3296  0.8630 -0.4565
 1331TIP3    H125484   2.125   6.434  12.978  1.0277 -0.4453 -1.9148
 1331TIP3    H225485   2.162   6.336  13.088  0.3043  0.9724 -0.3793
 1332TIP3   OH225486   4.954   0.322   1.472 -0.1342 -0.3736  0.0181
 1332TIP3    H125487   4.973   0.395   1.531  0.8832 -0.5020 -0.1391
 1332TIP3    H225488   4.969   0.244   1.525  2.9632 -0.5579 -0.9563
 1333TIP3   OH225489   0.335   3.380  13.714 -0.3914 -0.1526 -0.1352
 1333TIP3    H125490   0.420   3.422  13.728 -0.8146  0.1156  2.0729
 1333TIP3    H225491   0.272   3.448  13.736 -1.1816 -0.6350 -0.8568
 1334TIP3   OH225492   3.306   5.721   4.373 -0.4780  0.6375 -0.2000
 1334TIP3    H125493   3.341   5.759   4.293 -0.6162  1.4651  0.1267
 1334TIP3    H225494   3.312   5.626   4.359  3.0724  0.6558  0.3298
 1335TIP3   OH225495   4.501   1.940   2.928  0.3283 -0.1113 -0.0030
 1335TIP3    H125496   4.560   1.999   2.882 -0.4004  0.2791 -0.4516
 1335TIP3    H225497   4.556   1.866   2.954  1.4458  1.1295  1.3103
 1336TIP3   OH225498   0.484   3.160  14.286 -0.2334 -0.0282 -0.4559
 1336TIP3    H125499   0.405   3.126  14.245 -0.9534  0.2411  0.6688
 1336TIP3    H225500   0.453   3.228  14.345  0.8145 -0.0902  0.1953
 1337TIP3   OH225501   4.153   3.773  12.283 -0.5389 -0.4037  0.3609
 1337TIP3    H125502   4.189   3.823  12.357 -1.1883 -2.0539  1.8715
 1337TIP3    H225503   4.177   3.824  12.206  0.2673  1.3472  1.6877
 1338TIP3   OH225504   3.284   3.238  11.551 -0.3163 -0.2468  0.2626
 1338TIP3    H125505   3.244   3.313  11.507  0.4077  0.3311  0.5649
 1338TIP3    H225506   3.300   3.175  11.481 -0.8020 -0.0614 -0.0184
 1339TIP3   OH225507   6.225   4.191  14.193  0.2819 -0.2607  0.7144
 1339TIP3    H125508   6.171   4.210  14.270 -0.1904 -0.0798  0.3509
 1339TIP3    H225509   6.308   4.159  14.228 -0.8798 -2.8937  1.2970
 1340TIP3   OH225510   1.264   1.914  10.810  0.1685 -0.0695 -0.1221
 1340TIP3    H125511   1.238   1.829  10.846 -1.5016  1.7206  3.3984
 1340TIP3    H225512   1.191   1.940  10.754  0.2017 -0.4695 -0.3569
 1341TIP3   OH225513   1.409   5.845  14.444  0.0443 -0.0463  0.3360
 1341TIP3    H125514   1.345   5.895  14.495 -0.7895  0.6046 -1.2786
 1341TIP3    H225515   1.395   5.754  14.471 -0.8726  0.2013  0.7301
 1342TIP3   OH225516   5.541   4.837   0.764 -0.0746  0.8154  0.0709
 1342TIP3    H125517   5.506   4.853   0.851 -0.1068 -0.4843  0.3160
 1342TIP3    H225518   5.636   4.850   0.773 -0.0188  0.2205  0.4300
 1343TIP3   OH225519   3.857   1.535   5.422 -0.4652 -0.2416  0.1672
 1343TIP3    H125520   3.785   1.564   5.366  0.4319 -0.9947 -1.4701
 1343TIP3    H225521   3.817   1.517   5.507 -1.6104  2.4771  0.2960
 1344TIP3   OH225522   0.255   1.598   2.979  0.4116 -0.2161 -0.3131
 1344TIP3    H125523   0.217   1.673   3.024 -0.2264 -0.5223 -0.3368
 1344TIP3    H225524   0.254   1.527   3.044 -2.8100 -1.4005 -1.4471
 1345TIP3   OH225525   3.127   0.680   1.143 -0.2500  0.1231 -0.3581
 1345TIP3    H125526   3.151   0.612   1.206 -2.1115 -1.0709 -0.8537
 1345TIP3    H225527   3.203   0.738   1.140  0.4063 -0.5225  1.9584
 1346TIP3   OH225528   4.061   2.392  11.371  0.3230 -0.2736  0.0379
 1346TIP3    H125529   4.056   2.367  11.279 -0.5000 -0.6949  0.1876
 1346TIP3    H225530   4.136   2.343  11.406  0.4984 -0.2821 -0.3520
 1347TIP3   OH225531   4.750   4.277   6.096  0.1381 -0.7241  0.1470
 1347TIP3    H125532   4.672   4.306   6.143  0.4238  0.4376 -0.0663
 1347TIP3    H225533   4.753   4.182   6.110 -3.3900 -1.5093 -2.9244
 1348TIP3   OH225534   1.656   4.098  16.222  0.4766  0.1711  0.0124
 1348TIP3    H125535   1.734   4.110  16.276  0.7468  0.9322 -0.5283
 1348TIP3    H225536   1.596   4.168  16.249 -0.6309 -1.2579  1.4315
 1349TIP3   OH225537   0.280   5.670  12.714  1.1906 -0.2120 -0.0587
 1349TIP3    H125538   0.368   5.706  12.712  1.4008 -0.7054 -2.4392
 1349TIP3    H225539   0.290   5.583  12.753  2.0762 -0.9277 -1.7935
 1350TIP3   OH225540   6.803   6.520   0.276 -0.2106  0.5310 -0.2064
 1350TIP3    H125541   6.839   6.601   0.239 -0.9165  0.8844 -0.1458
 1350TIP3    H225542   6.873   6.485   0.330  0.3996  0.6580 -0.9055
 1351TIP3   OH225543   6.787   3.013  16.881 -0.5677  0.3152 -0.0037
 1351TIP3    H125544   6.701   2.985  16.849 -0.2844 -0.5077 -0.0783
 1351TIP3    H225545   6.774   3.031  16.974 -0.5336 -1.1688  0.3128
 1352TIP3   OH225546   1.220   5.420   0.953 -0.6122  0.0959  0.3279
 1352TIP3    H125547   1.212   5.453   1.043 -1.1951 -0.1417  0.3738
 1352TIP3    H225548   1.158   5.346   0.950 -1.8159  1.1032 -0.7386
 1353TIP3   OH225549   3.543   4.969  15.532 -0.3168 -0.5278  0.3727
 1353TIP3    H125550   3.587   4.930  15.457 -2.1434  0.0798 -1.0804
 1353TIP3    H225551   3.613   5.013  15.580  0.8949 -0.9356 -0.9417
 1354TIP3   OH225552   1.554   4.016  14.170 -0.1591  0.6658  0.1515
 1354TIP3    H125553   1.469   4.030  14.212  0.8818  2.7917  1.7169
 1354TIP3    H225554   1.559   4.084  14.103  0.9226  1.6483  1.1774
 1355TIP3   OH225555   3.674   0.886  16.899 -0.2781 -0.1439 -0.5812
 1355TIP3    H125556   3.633   0.971  16.882  1.4764  1.4439  2.0994
 1355TIP3    H225557   3.737   0.875  16.828 -0.1266  1.1261 -0.6676
 1356TIP3   OH225558   6.254   2.269   3.630  0.0525  0.2587 -0.6204
 1356TIP3    H125559   6.345   2.241   3.617  0.0056 -0.1678 -0.0596
 1356TIP3    H225560   6.202   2.191   3.613 -0.2563  0.6410 -1.4909
 1357TIP3   OH225561   0.068   5.080  14.693 -0.3414  0.6903 -0.1161
 1357TIP3    H125562   0.060   5.163  14.646 -0.7219  0.2485 -0.8547
 1357TIP3    H225563   0.091   5.016  14.625  0.5456  0.2890  0.5350
 1358TIP3   OH225564   2.880   0.315   0.388 -0.1817  0.1052  0.3226
 1358TIP3    H125565   2.903   0.223   0.377  0.3736 -0.2154  3.3198
 1358TIP3    H225566   2.832   0.318   0.471 -2.7701  2.1569 -1.0811
 1359TIP3   OH225567   1.904   3.841   4.605  0.0874 -0.2944 -0.0913
 1359TIP3    H125568   1.975   3.839   4.669 -0.6216  0.7423  0.7559
 1359TIP3    H225569   1.826   3.816   4.655 -0.3043 -0.5319 -0.8035
 1360TIP3   OH225570   5.670   2.843  17.092 -0.0036 -0.4862  0.0376
 1360TIP3    H125571   5.578   2.862  17.074 -0.1282 -1.5558 -0.5746
 1360TIP3    H225572   5.712   2.929  17.102 -0.6060  0.0966 -2.0538
 1361TIP3   OH225573   4.672   5.095  17.019 -0.5123  0.2318  0.0642
 1361TIP3    H125574   4.747   5.041  17.044  0.1018  0.9010 -0.3078
 1361TIP3    H225575   4.598   5.034  17.018  0.0993 -0.5228  0.0059
 1362TIP3   OH225576   3.096   6.649   3.358 -0.6541 -0.1402 -0.3278
 1362TIP3    H125577   3.031   6.595   3.313 -2.2009 -0.2653  1.9169
 1362TIP3    H225578   3.159   6.586   3.393 -0.8066 -0.2477 -0.2444
 1363TIP3   OH225579   5.532   2.292   2.825  0.4832  0.2729 -0.1328
 1363TIP3    H125580   5.517   2.209   2.779  0.8687 -0.5983  1.2481
 1363TIP3    H225581   5.444   2.329   2.835  0.2740 -0.1012 -0.5107
 1364TIP3   OH225582   4.102   4.951  10.752 -0.0576  0.4181 -0.2288
 1364TIP3    H125583   4.034   4.969  10.687  2.0380 -2.3401 -3.5372
 1364TIP3    H225584   4.096   4.857  10.768  2.1091  0.3210  0.3518
 1365TIP3   OH225585   1.831   4.124  15.833  0.0936 -0.3761  0.5816
 1365TIP3    H125586   1.893   4.151  15.901  0.0983 -1.6527  1.1107
 1365TIP3    H225587   1.758   4.185  15.840 -1.1164 -1.9715  3.4986
 1366TIP3   OH225588   5.875   2.833  12.602  0.3581  0.5256 -0.3515
 1366TIP3    H125589   5.786   2.865  12.613 -0.1157 -0.4208 -1.3787
 1366TIP3    H225590   5.911   2.885  12.530  0.4068  0.3977 -0.4180
 1367TIP3   OH225591   1.388   5.612   0.525 -0.5586  0.4103 -0.1047
 1367TIP3    H125592   1.357   5.546   0.587  0.0537  0.4659  0.2663
 1367TIP3    H225593   1.479   5.627   0.549 -0.5901  1.1361 -0.4122
 1368TIP3   OH225594   6.308   1.765   4.463 -0.1648  0.6434  0.0000
 1368TIP3    H125595   6.244   1.757   4.534  0.4254 -0.0531  0.4720
 1368TIP3    H225596   6.260   1.737   4.384 -0.0203 -1.4526  0.6005
 1369TIP3   OH225597   2.876   3.449  16.819 -0.1288  0.0906 -0.2640
 1369TIP3    H125598   2.954   3.426  16.769 -1.0244 -1.8533 -0.8907
 1369TIP3    H225599   2.808   3.461  16.753 -0.4307  1.5359  0.2794
 1370TIP3   OH225600   1.113   1.985  16.578 -0.6930  0.4749  0.3832
 1370TIP3    H125601   1.080   1.967  16.490 -0.0583  0.0104  0.2306
 1370TIP3    H225602   1.086   2.075  16.595  1.1774  1.4310 -1.2514
 1371TIP3   OH225603   6.262   4.431  11.402 -0.8176 -0.5037 -0.3665
 1371TIP3    H125604   6.197   4.365  11.377 -1.6472  0.7462 -1.7095
 1371TIP3    H225605   6.215   4.515  11.397  0.4032  0.2789  0.5175
 1372TIP3   OH225606   1.674   2.046   2.056  0.2237  0.3346  0.1680
 1372TIP3    H125607   1.616   2.090   2.117 -2.2049 -0.2805 -1.5729
 1372TIP3    H225608   1.620   2.026   1.980  2.6550 -0.5302 -1.4877
 1373TIP3   OH225609   4.752   0.848   1.937 -0.0084  0.1081 -0.1900
 1373TIP3    H125610   4.674   0.847   1.992  0.9564 -0.0793  1.2247
 1373TIP3    H225611   4.762   0.939   1.910  0.1793  0.4378  0.9545
 1374TIP3   OH225612   0.968   3.278   4.189  0.0851  0.1942  0.5148
 1374TIP3    H125613   1.049   3.314   4.225  1.4770 -0.7498 -1.4703
 1374TIP3    H225614   0.981   3.183   4.190 -0.0588  0.0825 -1.7174
 1375TIP3   OH225615   2.532   4.525  16.363 -0.3812 -0.1034 -0.5228
 1375TIP3    H125616   2.504   4.455  16.422 -0.4978 -1.8981 -2.5909
 1375TIP3    H225617   2.621   4.546  16.391 -0.0894 -1.5873 -0.2829
 1376TIP3   OH225618   3.182   6.826   4.550 -0.0492  0.6052  0.2220
 1376TIP3    H125619   3.141   6.796   4.631 -0.3558  0.7321  0.1133
 1376TIP3    H225620   3.202   6.918   4.566 -1.2324  0.9613 -0.2914
 1377TIP3   OH225621   1.031   0.033   1.347  0.0679  0.2778 -0.2272
 1377TIP3    H125622   0.954  -0.013   1.379  0.1489  0.0266 -0.3945
 1377TIP3    H225623   0.996   0.102   1.291 -0.0436  0.2820 -0.1521
 1378TIP3   OH225624   2.052   4.203   1.176 -0.3735 -0.2877  0.0321
 1378TIP3    H125625   2.050   4.175   1.084  0.9247  0.0732 -0.1204
 1378TIP3    H225626   1.994   4.141   1.220 -1.2515 -0.2913 -1.0687
 1379TIP3   OH225627   4.065   2.463  12.983  0.0336 -0.2162 -0.6118
 1379TIP3    H125628   4.040   2.544  12.938  1.6665  0.0668 -1.0856
 1379TIP3    H225629   4.035   2.475  13.073  0.9655  1.3117 -0.4600
 1380TIP3   OH225630   4.845   4.484   1.002 -0.6925  0.3207  0.6492
 1380TIP3    H125631   4.857   4.529   1.086  2.4657  0.5388  0.2171
 1380TIP3    H225632   4.934   4.469   0.970 -1.7576 -1.0512 -2.0081
 1381TIP3   OH225633   1.944   2.815  11.375  0.0712 -0.0789 -0.0486
 1381TIP3    H125634   2.025   2.858  11.348 -0.1035  1.5790  1.8662
 1381TIP3    H225635   1.972   2.738  11.424  0.5281  0.7230  0.9780
 1382TIP3   OH225636   3.273   3.823   0.082 -0.1110  0.0806 -0.2912
 1382TIP3    H125637   3.338   3.784   0.023 -0.1366 -0.5324  0.0800
 1382TIP3    H225638   3.266   3.762   0.154  1.4354  1.7888  1.4102
 1383TIP3   OH225639   2.906   1.157  11.486 -0.3359  0.2733 -0.4054
 1383TIP3    H125640   2.859   1.115  11.414 -0.5750 -0.0608 -0.0561
 1383TIP3    H225641   2.983   1.102  11.500 -0.6621 -0.0691  0.0683
 1384TIP3   OH225642   6.177   2.437   0.262 -0.0192 -0.8337  0.3479
 1384TIP3    H125643   6.101   2.464   0.313  0.8954 -2.6855  2.8937
 1384TIP3    H225644   6.208   2.518   0.220 -0.5398  0.9998  3.2182
 1385TIP3   OH225645   6.078   3.556  15.592  0.1555 -0.6642 -0.6447
 1385TIP3    H125646   6.143   3.506  15.641 -1.0200 -1.2643  0.3716
 1385TIP3    H225647   6.020   3.490  15.553  0.6880 -0.1737 -2.3507
 1386TIP3   OH225648   4.744   1.741   4.463 -0.1949 -0.5791  0.1426
 1386TIP3    H125649   4.736   1.767   4.555 -1.8101 -1.0186  0.1669
 1386TIP3    H225650   4.836   1.717   4.452 -0.0103 -0.6765  1.6864
 1387TIP3   OH225651   1.063   3.062  13.709 -0.5729  0.3512  0.0951
 1387TIP3    H125652   0.988   3.054  13.768  2.0559  1.3927  4.0187
 1387TIP3    H225653   1.044   3.140  13.657 -3.6916 -1.4709 -1.7628
 1388TIP3   OH225654   5.176   4.885  16.024 -0.5986  0.4621  0.2378
 1388TIP3    H125655   5.161   4.811  15.965 -0.5689  0.7257 -0.1029
 1388TIP3    H225656   5.119   4.867  16.099  0.0559 -0.3433  0.5520
 1389TIP3   OH225657   0.626   1.858  13.890  0.1309 -0.1433  0.3649
 1389TIP3    H125658   0.720   1.865  13.904 -0.0547  0.3487  1.4231
 1389TIP3    H225659   0.587   1.918  13.953 -0.9341 -1.0293  0.5830
 1390TIP3   OH225660   0.342   0.602   3.632  0.1968 -0.3739 -0.0105
 1390TIP3    H125661   0.430   0.639   3.636  0.2647 -0.4741 -0.4782
 1390TIP3    H225662   0.303   0.640   3.553 -0.7429  0.8633  1.0032
 1391TIP3   OH225663   1.789   3.891  11.591  0.2875  0.1210 -0.6900
 1391TIP3    H125664   1.869   3.864  11.637  0.9243  2.1936 -0.4752
 1391TIP3    H225665   1.739   3.810  11.580  1.7580 -1.0010  0.4493
 1392TIP3   OH225666   4.722   3.980  15.511 -0.5930  0.6861  0.3761
 1392TIP3    H125667   4.796   4.040  15.500 -0.0529 -0.1175 -0.4405
 1392TIP3    H225668   4.717   3.965  15.606  0.6531  0.3064  0.3915
 1393TIP3   OH225669   5.160   1.994   0.828  0.5632  0.4031 -0.1747
 1393TIP3    H125670   5.094   1.936   0.790 -0.0815 -0.6922  2.3631
 1393TIP3    H225671   5.110   2.053   0.885  1.4441  2.0586 -1.0500
 1394TIP3   OH225672   4.710   4.318  16.612  0.4248  0.1697 -0.3263
 1394TIP3    H125673   4.695   4.224  16.617 -1.7768  0.5299  0.9007
 1394TIP3    H225674   4.653   4.349  16.542 -1.0214  0.9259  1.1235
 1395TIP3   OH225675   5.185   0.825  17.013 -1.1521  0.2883 -0.7116
 1395TIP3    H125676   5.270   0.803  17.051 -1.8543  0.2345  0.8875
 1395TIP3    H225677   5.183   0.920  17.011 -0.6274  0.2962 -1.8118
 1396TIP3   OH225678   2.833   2.355  11.051  0.1313  0.1118  0.3291
 1396TIP3    H125679   2.820   2.292  11.122  1.7368 -0.0074  0.5699
 1396TIP3    H225680   2.871   2.303  10.980  0.8230  0.6685  0.2822
 1397TIP3   OH225681   5.996   1.955  11.916 -0.3226  0.0778  0.1533
 1397TIP3    H125682   5.972   1.971  12.007  1.4394 -0.3207  0.7285
 1397TIP3    H225683   6.092   1.948  11.917 -0.3759 -1.8861 -1.3921
 1398TIP3   OH225684   6.434   5.802   3.924 -0.6806  0.1705  0.4427
 1398TIP3    H125685   6.407   5.885   3.965 -1.3534  0.3130 -0.2560
 1398TIP3    H225686   6.398   5.734   3.982  1.3227  0.3226  1.9572
 1399TIP3   OH225687   1.912   1.537  15.806  0.3229  0.2060  0.3967
 1399TIP3    H125688   1.984   1.594  15.779 -0.3007  0.1275 -1.5214
 1399TIP3    H225689   1.955   1.461  15.845  1.2625  0.4491 -0.1398
 1400TIP3   OH225690   1.072   1.296  16.655 -0.2663  0.0519  0.3866
 1400TIP3    H125691   1.033   1.316  16.741  0.7562 -0.7116  1.0427
 1400TIP3    H225692   0.998   1.267  16.602 -0.9243  0.5810  0.9848
 1401TIP3   OH225693   3.510   5.672  16.277  0.6884 -0.2427  0.0937
 1401TIP3    H125694   3.495   5.641  16.366  0.0778  2.3068  0.9753
 1401TIP3    H225695   3.426   5.707  16.249  0.2254 -2.9626 -2.4561
 1402TIP3   OH225696   6.792   3.590   5.349 -0.4926 -0.2068  0.2194
 1402TIP3    H125697   6.748   3.624   5.271 -0.8786  0.1436  0.5888
 1402TIP3    H225698   6.869   3.646   5.360 -0.1490 -0.5819 -0.2044
 1403TIP3   OH225699   1.270   4.830  15.957  0.3775 -0.2988 -0.2167
 1403TIP3    H125700   1.246   4.763  15.893 -2.0169 -0.1954  0.4760
 1403TIP3    H225701   1.365   4.823  15.965  0.2186 -3.8938  0.1162
 1404TIP3   OH225702   0.384   1.065   5.355 -0.9789 -0.0334 -0.8083
 1404TIP3    H125703   0.446   1.125   5.397 -1.0259  0.2321 -1.1131
 1404TIP3    H225704   0.420   0.978   5.373 -1.0788  0.0644 -0.0936
 1405TIP3   OH225705   4.616   4.324   0.945 -0.2387 -0.0321 -0.5114
 1405TIP3    H125706   4.696   4.374   0.933  0.3624 -0.8095  0.1538
 1405TIP3    H225707   4.626   4.283   1.031 -0.6303 -1.4355 -1.1092
 1406TIP3   OH225708   2.187   3.118  14.936 -0.3945 -0.2295  0.6453
 1406TIP3    H125709   2.142   3.164  14.865 -0.5956 -0.9326  0.3140
 1406TIP3    H225710   2.256   3.179  14.964  0.0383 -0.1685 -0.5062
 1407TIP3   OH225711   4.968   3.026   6.537 -0.3531 -0.3586 -0.3185
 1407TIP3    H125712   4.964   3.070   6.622 -1.6130 -0.5122 -0.2751
 1407TIP3    H225713   5.050   2.977   6.539  0.5861  1.1849  0.0146
 1408TIP3   OH225714   0.768   4.429   3.450 -0.1283  0.3918 -0.4490
 1408TIP3    H125715   0.739   4.517   3.475  0.8060  0.9983 -1.4367
 1408TIP3    H225716   0.832   4.443   3.381  0.9685 -1.0063  0.2169
 1409TIP3   OH225717   2.488   4.276  15.000 -0.1330 -0.9116  0.2356
 1409TIP3    H125718   2.520   4.237  14.919 -1.0120 -0.5876 -0.2813
 1409TIP3    H225719   2.398   4.304  14.980 -0.8291 -1.9560  1.6869
 1410TIP3   OH225720   1.810   6.024  15.611 -0.3778  0.4715  0.0877
 1410TIP3    H125721   1.892   6.072  15.596 -1.1270  1.4988 -0.8780
 1410TIP3    H225722   1.797   5.974  15.531 -0.5527  0.0917  0.3542
 1411TIP3   OH225723   2.748   3.881   6.515 -0.0955  0.8389 -0.1114
 1411TIP3    H125724   2.739   3.787   6.506 -2.1778  0.8337  1.3163
 1411TIP3    H225725   2.703   3.917   6.438 -0.6145  0.6659  0.1085
 1412TIP3   OH225726   6.469   1.507   1.345 -0.1410  0.0209 -0.4786
 1412TIP3    H125727   6.525   1.484   1.271  0.4360 -0.7698  0.1793
 1412TIP3    H225728   6.528   1.546   1.409 -0.2527 -1.1265  0.3603
 1413TIP3   OH225729   0.331   5.517  11.637  0.3347 -0.0819 -0.5199
 1413TIP3    H125730   0.324   5.597  11.584 -1.7285 -0.3038 -0.6615
 1413TIP3    H225731   0.356   5.549  11.724 -1.5584  0.8982 -0.2722
 1414TIP3   OH225732   5.671   4.344   0.945  0.1085 -0.1580 -0.7888
 1414TIP3    H125733   5.684   4.366   1.037  0.5024 -1.5483 -0.4883
 1414TIP3    H225734   5.584   4.303   0.942  0.0600 -0.0384 -1.0549
 1415TIP3   OH225735   2.198   0.164   5.216  0.3991 -0.1696  0.4930
 1415TIP3    H125736   2.286   0.183   5.184  1.7259 -2.2751  2.5691
 1415TIP3    H225737   2.211   0.137   5.307 -2.4618 -0.2327  0.9712
 1416TIP3   OH225738   6.067   4.206  16.962 -0.5226  0.1645 -0.7032
 1416TIP3    H125739   6.049   4.132  16.904  0.1736  0.5364 -1.4190
 1416TIP3    H225740   5.982   4.229  16.999 -1.0641  0.1677 -1.8911
 1417TIP3   OH225741   3.886   6.801  15.748 -0.1676  0.1055  0.0569
 1417TIP3    H125742   3.918   6.712  15.764  0.0720 -0.0454 -1.1657
 1417TIP3    H225743   3.903   6.816  15.655 -2.3911  0.5439 -0.3446
 1418TIP3   OH225744   1.862   6.269  12.655 -0.0829 -0.4284  0.5430
 1418TIP3    H125745   1.797   6.228  12.599 -0.3505  1.0921 -0.2960
 1418TIP3    H225746   1.814   6.293  12.734  0.5695 -3.7713  2.1114
 1419TIP3   OH225747   6.115   3.265   0.081 -0.1600  0.6445 -0.3082
 1419TIP3    H125748   6.137   3.223  -0.002  2.3874  2.2249 -0.5414
 1419TIP3    H225749   6.039   3.320   0.061  0.5556  1.1853 -1.6973
 1420TIP3   OH225750   0.391   3.928   5.377  0.6389 -0.0968  0.2412
 1420TIP3    H125751   0.411   4.010   5.420  0.1588 -0.1096  0.4990
 1420TIP3    H225752   0.444   3.862   5.422 -1.0876 -0.3918  1.9689
 1421TIP3   OH225753   3.792   1.700  13.750 -0.3138 -0.1557 -0.4758
 1421TIP3    H125754   3.762   1.775  13.698 -1.4877 -0.6539 -0.5532
 1421TIP3    H225755   3.745   1.709  13.833  0.3350 -0.2412 -0.0948
 1422TIP3   OH225756   5.213   4.296   1.993 -0.2445  0.3346  0.1211
 1422TIP3    H125757   5.256   4.342   1.921  1.4537  0.1337  0.9456
 1422TIP3    H225758   5.153   4.359   2.031 -0.8662  0.5694 -1.2018
 1423TIP3   OH225759   1.499   1.827   4.887  0.0098  0.5953 -0.4925
 1423TIP3    H125760   1.440   1.820   4.811 -1.2237 -0.7980  0.5193
 1423TIP3    H225761   1.538   1.740   4.895 -1.8719 -0.1583  1.9239
 1424TIP3   OH225762   5.299   6.271   1.409  0.3906 -0.3588  0.1624
 1424TIP3    H125763   5.390   6.250   1.391  0.2089  0.3564 -1.8614
 1424TIP3    H225764   5.296   6.366   1.415 -0.4739 -0.2008 -1.8253
 1425TIP3   OH225765   5.229   4.953   2.860 -0.1126 -0.9414 -0.1716
 1425TIP3    H125766   5.297   4.901   2.902 -0.4535 -1.5281 -0.3215
 1425TIP3    H225767   5.205   4.901   2.782 -0.5339 -0.6103 -0.2636
 1426TIP3   OH225768   2.335   3.595   1.679 -0.3568  0.0266  0.5707
 1426TIP3    H125769   2.354   3.502   1.681  0.1170  0.0572 -0.9206
 1426TIP3    H225770   2.414   3.635   1.642 -0.7739  0.9475  0.6394
 1427TIP3   OH225771   0.896   2.635   5.053  0.0296 -0.2712  0.6427
 1427TIP3    H125772   0.875   2.632   4.959  1.5683  0.8649  0.2132
 1427TIP3    H225773   0.873   2.548   5.085  0.9973 -1.2723 -1.1656
 1428TIP3   OH225774   6.370   2.247   0.799 -0.0070 -0.2852  0.1962
 1428TIP3    H125775   6.329   2.273   0.716  1.9261  1.2958 -0.3278
 1428TIP3    H225776   6.302   2.195   0.843 -1.9013  0.6877 -1.3774
 1429TIP3   OH225777   6.354   5.386  13.497  0.1258 -0.2223 -0.0464
 1429TIP3    H125778   6.352   5.425  13.584  0.0519  0.4756 -0.3586
 1429TIP3    H225779   6.357   5.291  13.514 -1.1502 -0.1568  0.7120
 1430TIP3   OH225780   1.368   0.177   0.051  0.1352 -0.4487 -0.1717
 1430TIP3    H125781   1.394   0.117   0.121  0.5751 -0.4357 -0.3215
 1430TIP3    H225782   1.282   0.209   0.077 -0.6057 -2.0000 -0.6294
 1431TIP3   OH225783   4.935   4.520   2.485 -0.2388  0.2851 -0.0963
 1431TIP3    H125784   4.921   4.520   2.580 -4.1773 -1.2580 -0.5038
 1431TIP3    H225785   4.999   4.451   2.470  2.3561  2.1642  1.4878
 1432TIP3   OH225786   4.894   2.762  12.956  0.4313 -0.1775 -0.3683
 1432TIP3    H125787   4.803   2.783  12.980  0.0771 -1.7386 -0.2837
 1432TIP3    H225788   4.910   2.815  12.877 -0.3976  0.4340 -0.1479
 1433TIP3   OH225789   4.593   2.591   5.644 -0.0805  0.0286 -0.0962
 1433TIP3    H125790   4.604   2.589   5.739  1.3408  0.2403 -0.2428
 1433TIP3    H225791   4.547   2.674   5.627  0.7732  0.5907  0.3016
 1434TIP3   OH225792   2.639   1.514   5.973 -0.4560 -0.0307 -0.4266
 1434TIP3    H125793   2.734   1.508   5.962 -0.3367  1.7256 -0.6528
 1434TIP3    H225794   2.627   1.576   6.045 -1.4358 -1.1534  0.4146
 1435TIP3   OH225795   0.688   0.428  13.049 -0.4695  0.1112  0.3271
 1435TIP3    H125796   0.680   0.476  13.132  0.8106  0.6248  0.1849
 1435TIP3    H225797   0.782   0.409  13.041  0.0025  2.7136 -2.3936
 1436TIP3   OH225798   1.721   3.085  16.308 -0.2209  0.1160 -0.2966
 1436TIP3    H125799   1.725   2.995  16.275 -0.8710  0.1454 -0.4740
 1436TIP3    H225800   1.726   3.139  16.229  0.3003  0.2445 -0.1822
 1437TIP3   OH225801   0.791   6.593  15.403 -0.2849  0.3657 -0.2180
 1437TIP3    H125802   0.839   6.511  15.415 -0.5593  0.0669 -1.1220
 1437TIP3    H225803   0.848   6.645  15.346  0.6425  1.4621  1.5978
 1438TIP3   OH225804   0.990   1.129  16.405  0.8190 -0.0237 -0.3917
 1438TIP3    H125805   1.057   1.059  16.406  0.9790  0.1334 -0.0544
 1438TIP3    H225806   0.913   1.087  16.368  1.0345 -0.2756 -0.5637
 1439TIP3   OH225807   5.662   5.728  15.456 -0.3922 -0.4185  0.1637
 1439TIP3    H125808   5.705   5.652  15.496 -0.7403 -1.5970 -1.5967
 1439TIP3    H225809   5.705   5.738  15.371 -0.3260  1.4162  0.3546
 1440TIP3   OH225810   6.433   1.111  12.651 -0.4869 -0.1752  0.1462
 1440TIP3    H125811   6.463   1.096  12.562 -0.8866 -0.7890  0.1051
 1440TIP3    H225812   6.512   1.129  12.701 -0.2022 -0.3833 -0.2288
 1441TIP3   OH225813   6.194   3.470   3.111 -0.0903 -0.4178 -0.0466
 1441TIP3    H125814   6.167   3.381   3.091 -1.0039 -0.8291  2.6157
 1441TIP3    H225815   6.112   3.518   3.126  0.4010  0.7543 -0.9195
 1442TIP3   OH225816   5.360   1.277   0.710 -0.1361 -0.1755  0.2652
 1442TIP3    H125817   5.449   1.307   0.728  0.4025 -1.3642 -0.3265
 1442TIP3    H225818   5.320   1.268   0.796  0.5499 -0.3433  0.5780
 1443TIP3   OH225819   6.361   0.043   5.124  0.0528 -0.0357 -0.3228
 1443TIP3    H125820   6.286   0.093   5.092  1.0359  0.4186 -1.9990
 1443TIP3    H225821   6.397   0.097   5.194 -0.7505  0.0731  0.0213
 1444TIP3   OH225822   0.988   6.680   3.224 -0.1838 -0.1209  0.1536
 1444TIP3    H125823   1.067   6.703   3.176 -0.1909 -0.3474  0.0332
 1444TIP3    H225824   1.002   6.715   3.312  0.8557 -1.7773  0.6874
 1445TIP3   OH225825   5.356   4.556   6.606 -0.0645 -0.0852  0.1349
 1445TIP3    H125826   5.319   4.640   6.633  0.9268  1.1369 -2.1035
 1445TIP3    H225827   5.439   4.550   6.652 -0.6245 -0.4045  1.1470
 1446TIP3   OH225828   6.758   0.390  10.185 -0.1596  0.3944 -0.6718
 1446TIP3    H125829   6.667   0.396  10.158 -0.1431  0.8246 -0.6434
 1446TIP3    H225830   6.801   0.341  10.115 -0.3548  0.4492 -0.8323
 1447TIP3   OH225831   5.004   2.207   5.796 -0.3919  0.0664  0.2102
 1447TIP3    H125832   4.973   2.261   5.870 -1.6158 -1.8328  1.1638
 1447TIP3    H225833   4.956   2.125   5.805 -0.1031 -0.4634 -2.3754
 1448TIP3   OH225834   5.271   3.795  15.463 -0.3799  0.3129  0.2177
 1448TIP3    H125835   5.278   3.818  15.556  1.7654  0.8451 -0.0344
 1448TIP3    H225836   5.313   3.710  15.456 -0.5283  0.2784 -0.2684
 1449TIP3   OH225837   3.857   1.470   1.383 -0.3624 -0.1214 -0.0963
 1449TIP3    H125838   3.897   1.557   1.384 -1.2426  0.3022 -0.7145
 1449TIP3    H225839   3.827   1.458   1.293 -0.6448 -0.8831  0.0913
 1450TIP3   OH225840   4.919   1.057  11.265  0.6512  0.0125 -0.1978
 1450TIP3    H125841   4.945   0.993  11.332  0.4044  0.5531  0.4308
 1450TIP3    H225842   4.980   1.130  11.278 -0.1285  0.6020  0.2029
 1451TIP3   OH225843   2.368   6.563   0.815 -0.2101 -0.1417 -0.2987
 1451TIP3    H125844   2.301   6.538   0.751  0.3977  0.4345 -1.1790
 1451TIP3    H225845   2.419   6.632   0.772  1.2523 -0.8805  0.1602
 1452TIP3   OH225846   3.027   0.949   4.050 -0.1478  0.1094 -0.6264
 1452TIP3    H125847   3.041   1.033   4.006  0.4950 -0.1914 -0.9987
 1452TIP3    H225848   2.952   0.965   4.107 -0.5651  0.6915 -1.3222
 1453TIP3   OH225849   3.613   1.537  16.806  0.1761 -0.2192  0.0654
 1453TIP3    H125850   3.584   1.619  16.767 -0.2460 -0.7536 -0.7717
 1453TIP3    H225851   3.631   1.480  16.731 -1.6258 -1.6123  0.6080
 1454TIP3   OH225852   5.314   5.035   2.247 -0.4568 -0.0241 -0.4635
 1454TIP3    H125853   5.404   5.067   2.254 -0.0700 -1.2323  0.4875
 1454TIP3    H225854   5.299   5.029   2.152  0.0069  1.3505 -0.6480
 1455TIP3   OH225855   1.226   3.960   0.935  0.0251 -0.8198 -0.3934
 1455TIP3    H125856   1.295   3.959   1.000  1.2594  0.1082 -1.6184
 1455TIP3    H225857   1.173   4.037   0.958  1.1618  0.2207 -1.1392
 1456TIP3   OH225858   5.131   6.233  15.079 -0.1431  0.1785  0.1426
 1456TIP3    H125859   5.132   6.138  15.076  1.2113  0.0448  2.3270
 1456TIP3    H225860   5.186   6.255  15.155  1.3817  2.7559 -1.5605
 1457TIP3   OH225861   6.235   1.151  14.456 -0.1888 -0.1025 -0.9063
 1457TIP3    H125862   6.221   1.067  14.501  0.0720 -0.0427 -0.7079
 1457TIP3    H225863   6.249   1.214  14.527 -0.8567  0.2005 -1.0425
 1458TIP3   OH225864   1.156   0.827   6.552  0.3165 -0.3618 -0.1952
 1458TIP3    H125865   1.134   0.776   6.630  1.6568  1.1342  1.2320
 1458TIP3    H225866   1.076   0.826   6.499 -0.6930 -1.2543  1.2763
 1459TIP3   OH225867   2.876   3.600   4.832  0.0941 -0.4559  0.8598
 1459TIP3    H125868   2.966   3.627   4.848  0.4343 -0.1986 -1.2024
 1459TIP3    H225869   2.873   3.582   4.738 -1.6992 -1.6735  1.1128
 1460TIP3   OH225870   2.144   0.014  15.061  0.1755  0.0873  0.3521
 1460TIP3    H125871   2.084  -0.060  15.054 -0.4604  0.6676 -0.5884
 1460TIP3    H225872   2.160   0.040  14.970  0.4833  1.0317  0.6673
 1461TIP3   OH225873   6.770   6.816   2.890 -0.2288  0.3183  0.7685
 1461TIP3    H125874   6.808   6.763   2.820 -1.4461 -0.3125  0.5662
 1461TIP3    H225875   6.846   6.858   2.931  0.6673 -0.7050  0.2325
 1462TIP3   OH225876   0.377   4.785   2.584 -0.4175  0.0794  0.1074
 1462TIP3    H125877   0.333   4.719   2.637 -0.6655 -0.1140 -0.3300
 1462TIP3    H225878   0.339   4.868   2.613  0.2425  0.0839  0.9961
 1463TIP3   OH225879   2.289   6.737   4.722  0.3199 -0.5958  0.1072
 1463TIP3    H125880   2.253   6.684   4.792 -1.5189  2.2675  1.5362
 1463TIP3    H225881   2.384   6.726   4.728  0.1493 -1.1541  2.4441
 1464TIP3   OH225882   5.489   2.883  15.369 -0.1608  0.0789 -0.8620
 1464TIP3    H125883   5.426   2.948  15.398  1.2934  1.6450 -1.0469
 1464TIP3    H225884   5.451   2.799  15.396  0.0181  1.1944  3.7780
 1465TIP3   OH225885   0.557   2.069   5.338  0.4972 -0.2115  0.2311
 1465TIP3    H125886   0.634   2.072   5.282 -0.5201 -2.7642 -1.4422
 1465TIP3    H225887   0.521   2.158   5.334  2.1442  0.4481 -0.6666
 1466TIP3   OH225888   5.858   0.925   6.486 -0.3794  0.2157  0.1892
 1466TIP3    H125889   5.888   0.849   6.436 -0.8868 -0.3266  0.6870
 1466TIP3    H225890   5.835   0.890   6.572 -0.1824  1.0186  0.5785
 1467TIP3   OH225891   6.679   0.065   0.406 -0.4314 -0.5992  0.2971
 1467TIP3    H125892   6.691   0.154   0.370  1.0880 -0.7590  0.3380
 1467TIP3    H225893   6.624   0.078   0.483  1.8879  0.7264  1.8616
 1468TIP3   OH225894   0.767   4.417   2.106  0.3746  0.2610  0.1185
 1468TIP3    H125895   0.783   4.463   2.024  1.4187 -1.1127 -0.4844
 1468TIP3    H225896   0.786   4.481   2.175  1.0699  0.9314 -0.6920
 1469TIP3   OH225897   1.378   0.697  11.504  0.0587 -0.0873 -0.0404
 1469TIP3    H125898   1.352   0.715  11.594  0.9428  1.5897 -0.0880
 1469TIP3    H225899   1.448   0.760  11.485  0.8169 -1.2649 -1.4755
 1470TIP3   OH225900   0.182   4.177  16.617 -0.2651  0.6984  0.0693
 1470TIP3    H125901   0.273   4.153  16.636 -0.2061  0.9916  0.1738
 1470TIP3    H225902   0.187   4.226  16.535 -0.8667 -3.0977 -2.4623
 1471TIP3   OH225903   1.169   0.694  12.275  0.4003 -0.2982  0.4086
 1471TIP3    H125904   1.087   0.646  12.265  0.6403 -0.4380 -1.1102
 1471TIP3    H225905   1.165   0.762  12.208  2.0454 -1.0710 -0.5179
 1472TIP3   OH225906   4.942   5.583  13.948 -0.2737  0.0330 -0.0800
 1472TIP3    H125907   4.923   5.661  13.896 -0.3872  0.6585  0.8719
 1472TIP3    H225908   4.861   5.533  13.948 -0.1775 -0.1381 -0.7595
 1473TIP3   OH225909   3.528   1.942  13.079  0.0488 -0.0429 -0.1124
 1473TIP3    H125910   3.602   1.883  13.059  0.3306  0.1683  0.2975
 1473TIP3    H225911   3.481   1.898  13.149  1.2844  1.0425  1.4703
 1474TIP3   OH225912   0.638   6.613   2.119  0.5753  0.5402  0.8064
 1474TIP3    H125913   0.641   6.544   2.185  0.4072  0.6960  0.9781
 1474TIP3    H225914   0.704   6.588   2.054 -0.1354 -0.2755  0.3732
 1475TIP3   OH225915   1.138   4.423  14.714 -0.5336  0.5530  0.1734
 1475TIP3    H125916   1.098   4.509  14.726 -1.4827  0.2894 -0.9267
 1475TIP3    H225917   1.227   4.442  14.687 -0.5870  1.1826  0.4184
 1476TIP3   OH225918   1.827   3.740  10.611 -0.2302  0.3894  0.0874
 1476TIP3    H125919   1.840   3.647  10.631 -0.3099  0.0701 -1.2379
 1476TIP3    H225920   1.831   3.784  10.696  0.8436 -0.7018  0.6306
 1477TIP3   OH225921   2.061   1.266   3.840 -0.1828  0.3903 -0.0005
 1477TIP3    H125922   2.119   1.309   3.777 -0.7757 -1.1725 -1.6935
 1477TIP3    H225923   2.080   1.172   3.830 -1.2123  0.0147  1.2507
 1478TIP3   OH225924   2.121   0.696  12.460 -0.4840 -0.0125  0.1538
 1478TIP3    H125925   2.056   0.626  12.450  1.9567 -2.2989 -1.1148
 1478TIP3    H225926   2.183   0.661  12.525 -0.5490  2.1539  1.4629
 1479TIP3   OH225927   5.839   3.621   1.378 -0.5313 -0.3198 -0.2417
 1479TIP3    H125928   5.746   3.638   1.361 -1.2820 -0.9772  2.6089
 1479TIP3    H225929   5.869   3.700   1.423  0.1258 -0.3894 -0.5536
 1480TIP3   OH225930   2.083   5.714  15.383  0.1907  0.1172  0.8259
 1480TIP3    H125931   2.114   5.754  15.465 -0.6330 -0.7023  1.5687
 1480TIP3    H225932   2.161   5.710  15.328  1.3864 -1.5613  2.4900
 1481TIP3   OH225933   0.792   1.014   0.130  0.1794  0.0773  0.0515
 1481TIP3    H125934   0.789   1.074   0.204 -0.2129  1.1517 -0.8104
 1481TIP3    H225935   0.852   1.055   0.067 -0.7946  0.0341 -0.9326
 1482TIP3   OH225936   5.264   6.528  14.286 -0.0056 -0.6733  0.2935
 1482TIP3    H125937   5.179   6.525  14.240 -0.0813 -1.4036  0.4745
 1482TIP3    H225938   5.328   6.534  14.215 -0.1551 -1.1958  0.1017
 1483TIP3   OH225939   4.552   2.591  16.948 -0.2863 -0.1100 -0.7882
 1483TIP3    H125940   4.566   2.685  16.960  1.0732 -0.2831 -0.8736
 1483TIP3    H225941   4.640   2.555  16.936 -0.6874 -1.5448  0.3145
 1484TIP3   OH225942   6.183   5.381  11.376  0.1070  0.2490  0.5496
 1484TIP3    H125943   6.091   5.379  11.350  0.1201  0.9685  0.4134
 1484TIP3    H225944   6.195   5.468  11.415  0.6617  0.0585  0.8157
 1485TIP3   OH225945   5.421   2.415  11.780  0.5272  0.1999  0.2816
 1485TIP3    H125946   5.355   2.396  11.713  0.6103  1.9797 -0.3825
 1485TIP3    H225947   5.465   2.494  11.748  1.9638 -0.0692  1.4578
 1486TIP3   OH225948   5.220   1.065   1.125 -0.4371  0.0440  0.4648
 1486TIP3    H125949   5.203   0.974   1.100  1.2609 -0.2705  0.3166
 1486TIP3    H225950   5.312   1.064   1.154  0.1428  2.0255 -1.1032
 1487TIP3   OH225951   3.397   5.236  16.341 -0.1129  0.1352  0.3597
 1487TIP3    H125952   3.331   5.221  16.409 -0.7879  1.4174  0.0103
 1487TIP3    H225953   3.471   5.182  16.368 -0.6055  0.1146  1.7703
 1488TIP3   OH225954   6.067   1.646  15.269 -0.1420 -0.7062 -0.9909
 1488TIP3    H125955   6.043   1.555  15.255 -0.1598 -1.0478  0.8924
 1488TIP3    H225956   6.155   1.654  15.234  1.4603 -2.5545  2.2134
 1489TIP3   OH225957   0.346   0.148   2.819 -0.3434 -0.0108  0.2978
 1489TIP3    H125958   0.332   0.093   2.896 -1.6986 -1.4503 -0.9223
 1489TIP3    H225959   0.404   0.218   2.850  1.3704 -2.0341  1.9452
 1490TIP3   OH225960   1.158   3.454  11.516 -0.0171 -0.2717  0.7553
 1490TIP3    H125961   1.243   3.411  11.526  0.0749  0.1245  1.7824
 1490TIP3    H225962   1.096   3.382  11.501  0.3143 -0.6726  1.2655
 1491TIP3   OH225963   6.312   1.455   4.216  0.1141  0.0944  0.3735
 1491TIP3    H125964   6.220   1.479   4.205  0.4303  1.0904 -0.1986
 1491TIP3    H225965   6.313   1.360   4.208 -0.7505  0.1477 -0.4741
 1492TIP3   OH225966   3.956   5.015  13.595 -0.1159  0.3325 -0.1765
 1492TIP3    H125967   3.962   5.109  13.610  2.8247  0.3535 -0.9343
 1492TIP3    H225968   3.970   4.976  13.682 -0.2367  0.5872 -0.0417
 1493TIP3   OH225969   6.193   1.437  16.703  0.1282  0.1674 -0.2423
 1493TIP3    H125970   6.256   1.507  16.723 -1.1451  1.2092  0.3022
 1493TIP3    H225971   6.183   1.389  16.785 -0.1308  0.2985 -0.1959
 1494TIP3   OH225972   2.404   1.877  15.701 -0.1833 -0.1027 -0.2823
 1494TIP3    H125973   2.368   1.937  15.637 -0.5629 -1.4607 -1.3814
 1494TIP3    H225974   2.492   1.856  15.668 -0.6813 -1.4261 -0.8118
 1495TIP3   OH225975   2.070   5.908  12.225  0.0203 -0.1206  0.2224
 1495TIP3    H125976   2.033   5.877  12.308 -0.2376 -1.3823 -0.3532
 1495TIP3    H225977   2.078   6.003  12.237 -0.2492 -0.2548  1.5964
 1496TIP3   OH225978   3.126   3.808  16.265  0.0606  0.0847  0.4288
 1496TIP3    H125979   3.201   3.827  16.321  0.2487 -0.8488  0.5052
 1496TIP3    H225980   3.050   3.819  16.322  0.0021  2.3271  0.0324
 1497TIP3   OH225981   4.517   5.897  14.835  1.2732  0.7275 -0.0014
 1497TIP3    H125982   4.500   5.963  14.768 -1.3547  0.0267 -0.1492
 1497TIP3    H225983   4.502   5.942  14.918 -0.8953  0.3284 -0.1105
 1498TIP3   OH225984   3.205   6.812  12.614  0.1857 -0.5522  0.4288
 1498TIP3    H125985   3.211   6.733  12.668  2.3757 -0.4282  0.4636
 1498TIP3    H225986   3.279   6.866  12.643 -0.1384  0.6732 -0.9117
 1499TIP3   OH225987   3.787   1.854   0.098  0.4271  0.0082  0.2296
 1499TIP3    H125988   3.714   1.797   0.121  1.3660 -0.2727  2.8411
 1499TIP3    H225989   3.754   1.943   0.113  0.3443 -0.0739  0.5426
 1500TIP3   OH225990   2.714   5.566  10.252  0.1979  0.1452 -0.3322
 1500TIP3    H125991   2.652   5.633  10.226  0.1353  0.4984  0.6956
 1500TIP3    H225992   2.774   5.610  10.312  1.3025 -0.2511 -1.1036
 1501TIP3   OH225993   5.081   6.530  12.685 -0.4950  0.6773  0.2034
 1501TIP3    H125994   5.038   6.468  12.627  0.0871  2.7750 -2.7115
 1501TIP3    H225995   5.029   6.610  12.677  1.0459  1.7676  0.5951
 1502TIP3   OH225996   3.437   3.960   1.754 -0.1790  0.3065  0.3147
 1502TIP3    H125997   3.475   4.026   1.812  1.0270  1.9039 -2.0951
 1502TIP3    H225998   3.379   4.010   1.696 -0.7723 -1.0934 -0.3508
 1503TIP3   OH225999   5.815   4.105  13.302  0.1989 -0.3061  0.1827
 1503TIP3    H126000   5.800   4.103  13.396  0.8679  1.7859  0.3915
 1503TIP3    H226001   5.750   4.166  13.268  0.6527 -0.1993 -0.5365
 1504TIP3   OH226002   5.949   3.069  10.833 -1.0789 -0.0601  0.3803
 1504TIP3    H126003   6.028   3.098  10.880 -2.1753  0.6490  1.8973
 1504TIP3    H226004   5.978   3.057  10.743  0.3135  2.2441  0.4316
 1505TIP3   OH226005   1.231   5.011   1.623 -0.1315  0.7792  0.2261
 1505TIP3    H126006   1.171   4.948   1.583 -0.3892  1.9403 -1.3044
 1505TIP3    H226007   1.300   5.023   1.558  1.0458  0.5278  1.3779
 1506TIP3   OH226008   0.839   1.781   1.389 -0.6182  0.8903 -0.0235
 1506TIP3    H126009   0.757   1.761   1.344 -0.3560  0.2918 -0.2607
 1506TIP3    H226010   0.899   1.712   1.359 -0.1831  1.0120  0.5527
 1507TIP3   OH226011   2.569   6.169   0.410 -0.1653  0.1513  0.1510
 1507TIP3    H126012   2.566   6.091   0.355  2.0016 -1.2503  1.8589
 1507TIP3    H226013   2.564   6.242   0.348  1.6517 -1.3206 -1.8727
 1508TIP3   OH226014   3.885   6.043  14.428 -0.0658  0.2032 -0.4161
 1508TIP3    H126015   3.869   6.047  14.334  1.6149  0.3069 -0.7298
 1508TIP3    H226016   3.838   5.964  14.457 -0.2094 -0.0960 -1.4177
 1509TIP3   OH226017   1.433   1.536   4.850 -0.4655  0.3945  0.1395
 1509TIP3    H126018   1.482   1.478   4.908  0.3246  0.3462 -0.5594
 1509TIP3    H226019   1.370   1.579   4.908 -1.1132 -1.1820  0.6697
 1510TIP3   OH226020   5.437   3.443   2.411 -0.0369  0.5957 -0.2065
 1510TIP3    H126021   5.391   3.363   2.386 -1.0435  1.1854 -0.3129
 1510TIP3    H226022   5.370   3.512   2.406  0.7303  1.3951  0.1742
 1511TIP3   OH226023   6.199   0.008   3.907  0.1882  0.5810  0.1065
 1511TIP3    H126024   6.215  -0.085   3.891 -0.8978  0.3086  0.4768
 1511TIP3    H226025   6.124   0.029   3.851  1.0905  1.5197 -0.7905
 1512TIP3   OH226026   1.957   4.713   3.972  0.0212 -0.0235 -0.2617
 1512TIP3    H126027   1.972   4.662   4.051 -2.2390 -1.1163 -0.4506
 1512TIP3    H226028   1.942   4.802   4.003 -0.4455 -0.3633  0.5195
 1513TIP3   OH226029   5.006   4.680   2.266 -0.0288  0.0755 -0.1502
 1513TIP3    H126030   5.024   4.767   2.300 -0.5055  0.2540 -0.3494
 1513TIP3    H226031   4.957   4.636   2.336  1.7342 -0.6522  0.6828
 1514TIP3   OH226032   1.232   4.731  12.583 -0.4228  0.5621  0.2866
 1514TIP3    H126033   1.230   4.827  12.580  3.1116  0.8323  1.8171
 1514TIP3    H226034   1.257   4.704  12.495 -1.4345  1.0017 -0.1515
 1515TIP3   OH226035   4.247   4.548   3.092 -0.3441  0.4264 -0.0988
 1515TIP3    H126036   4.280   4.538   3.181  0.4233  1.1240 -0.2941
 1515TIP3    H226037   4.208   4.635   3.090 -0.5151  0.3466 -0.4045
 1516TIP3   OH226038   6.228   0.027  16.359 -0.4310 -0.1750  0.0362
 1516TIP3    H126039   6.251  -0.038  16.426 -0.9179  0.3690  0.7455
 1516TIP3    H226040   6.280   0.001  16.283  2.0502  0.5925  1.3428
 1517TIP3   OH226041   0.037   2.772  16.015 -0.5910 -0.0206 -0.2922
 1517TIP3    H126042  -0.044   2.821  16.000 -0.0232  1.5105  1.3192
 1517TIP3    H226043   0.062   2.793  16.105  1.4648 -0.6517 -0.6561
 1518TIP3   OH226044   3.761   1.780   6.193 -0.1661  0.5509  0.1720
 1518TIP3    H126045   3.795   1.691   6.189 -1.7075 -0.0241 -1.2338
 1518TIP3    H226046   3.667   1.770   6.210 -0.3290  1.9011  0.2115
 1519TIP3   OH226047   6.634   6.387  10.999 -0.6820 -0.0109 -0.4755
 1519TIP3    H126048   6.656   6.313  10.941  0.4829  0.7802 -1.0956
 1519TIP3    H226049   6.540   6.400  10.986 -0.7208 -0.7821 -1.0753
 1520TIP3   OH226050   1.830   3.276  12.576 -0.1744 -0.4544  0.1505
 1520TIP3    H126051   1.842   3.366  12.604 -1.2398  0.0552 -0.9234
 1520TIP3    H226052   1.903   3.258  12.518 -1.0060  0.4249 -1.2251
 1521TIP3   OH226053   5.927   0.559   3.793 -0.1422 -0.4050 -0.3420
 1521TIP3    H126054   5.839   0.561   3.831 -1.1195  1.0347 -2.4714
 1521TIP3    H226055   5.926   0.628   3.726  2.1675 -1.2802 -1.3938
 1522TIP3   OH226056   4.635   6.108   5.703 -0.2919  0.8437 -0.0500
 1522TIP3    H126057   4.620   6.143   5.791  1.3297  0.7179  0.3184
 1522TIP3    H226058   4.694   6.034   5.717  0.2343  1.0039 -1.2703
 1523TIP3   OH226059   6.375   0.035  14.772 -0.3554 -0.3710 -0.1812
 1523TIP3    H126060   6.418   0.025  14.857 -0.8805  0.4235  0.1871
 1523TIP3    H226061   6.290  -0.007  14.783 -0.5876  0.0934 -0.1795
 1524TIP3   OH226062   1.329   0.045   2.155  0.1690  0.2763  0.0867
 1524TIP3    H126063   1.412   0.034   2.109  0.4931  0.0610  0.7026
 1524TIP3    H226064   1.262   0.030   2.089  0.5550  3.6301 -1.2450
 1525TIP3   OH226065   6.543   1.672  10.979 -0.3741  0.6973 -0.3990
 1525TIP3    H126066   6.638   1.679  10.965 -0.4292  0.8051 -0.7226
 1525TIP3    H226067   6.506   1.743  10.928 -0.7787 -0.6141 -2.0315
 1526TIP3   OH226068   3.756   3.441  12.920 -0.1239 -0.2589 -0.3863
 1526TIP3    H126069   3.805   3.458  13.001  0.1852 -1.3303 -0.3336
 1526TIP3    H226070   3.823   3.434  12.852 -0.3548  0.2619 -0.6679
 1527TIP3   OH226071   0.517   4.273  11.822 -0.3624 -0.1447  0.5306
 1527TIP3    H126072   0.605   4.296  11.852  0.2707 -0.3163 -1.1106
 1527TIP3    H226073   0.506   4.181  11.848 -0.6498  0.2806  2.0067
 1528TIP3   OH226074   4.499   5.714   3.009 -0.2823 -0.2717 -0.0492
 1528TIP3    H126075   4.548   5.694   2.929 -0.3981  1.1585 -0.5004
 1528TIP3    H226076   4.481   5.808   3.004 -0.3884 -0.1734  1.6125
 1529TIP3   OH226077   5.237   2.888  16.505 -0.0544 -0.0956 -0.0907
 1529TIP3    H126078   5.316   2.834  16.499 -0.2896 -0.4007 -0.5129
 1529TIP3    H226079   5.204   2.872  16.593  1.7031  1.9614  1.0575
 1530TIP3   OH226080   6.419   1.108   1.532 -0.0522  0.2260  0.3357
 1530TIP3    H126081   6.402   1.071   1.446  0.2714  0.4118  0.1875
 1530TIP3    H226082   6.477   1.045   1.575 -1.8083 -0.8653  1.1918
 1531TIP3   OH226083   5.497   3.126  11.702  0.3300  0.2441  0.1224
 1531TIP3    H126084   5.560   3.086  11.762  1.5472  0.2382 -1.1163
 1531TIP3    H226085   5.473   3.208  11.745 -1.0238 -1.0203  1.9524
 1532TIP3   OH226086   3.301   1.467   1.451  0.0584 -0.3152 -0.6307
 1532TIP3    H126087   3.252   1.427   1.523  1.8634  1.6938  1.9117
 1532TIP3    H226088   3.355   1.396   1.416  1.6342 -0.7270  2.3196
 1533TIP3   OH226089   6.164   2.817  11.540 -0.0223 -0.0563 -0.5959
 1533TIP3    H126090   6.104   2.874  11.491 -1.5778  1.0369  2.3440
 1533TIP3    H226091   6.220   2.878  11.588  1.6954 -1.0890 -1.2128
 1534TIP3   OH226092   6.185   5.177   2.932 -0.5728  0.4190 -0.3611
 1534TIP3    H126093   6.213   5.106   2.990  0.4747  0.9096 -0.2517
 1534TIP3    H226094   6.149   5.244   2.991  0.9026  1.1096 -0.2091
 1535TIP3   OH226095   5.764   2.932  10.975 -0.4537 -0.0461  0.2944
 1535TIP3    H126096   5.808   3.004  10.931  0.8039 -1.2588 -0.5237
 1535TIP3    H226097   5.674   2.937  10.943  0.4290 -0.9788 -2.7178
 1536TIP3   OH226098   3.301   4.703  15.113  0.1107  0.1307  0.3937
 1536TIP3    H126099   3.248   4.762  15.167  1.8209  1.9114  0.2445
 1536TIP3    H226100   3.301   4.744  15.027  1.5484  0.0744  0.3494
 1537TIP3   OH226101   2.523   3.563   3.582  0.2961  0.5053 -0.0930
 1537TIP3    H126102   2.567   3.493   3.535 -0.5940 -0.5317  0.5855
 1537TIP3    H226103   2.595   3.616   3.618  0.9926 -0.6698  0.2873
 1538TIP3   OH226104   3.069   3.635   4.170 -0.2975  0.4593  0.4015
 1538TIP3    H126105   3.055   3.657   4.078  0.1366 -0.5739  0.0663
 1538TIP3    H226106   3.162   3.615   4.176 -0.6825 -1.4852  0.5882
 1539TIP3   OH226107   0.767   6.115   2.407 -0.1151 -0.4612  0.0337
 1539TIP3    H126108   0.854   6.152   2.388  0.5437 -0.1793  3.1373
 1539TIP3    H226109   0.785   6.036   2.458 -1.6854 -1.2585 -0.5906
 1540TIP3   OH226110   3.841   3.933  14.654 -0.2932 -0.8372 -1.0379
 1540TIP3    H126111   3.932   3.946  14.680 -0.7026  0.9702 -0.4097
 1540TIP3    H226112   3.843   3.851  14.604  1.9029 -0.1604 -2.2174
 1541TIP3   OH226113   3.758   4.061   4.695 -0.0408  0.4395 -0.0626
 1541TIP3    H126114   3.749   4.037   4.788  0.5468 -1.4899 -0.4489
 1541TIP3    H226115   3.828   4.125   4.694  0.0293  0.3997  0.8232
 1542TIP3   OH226116   0.960   5.911  14.586  0.2381  0.0727  0.6617
 1542TIP3    H126117   0.919   5.910  14.672 -0.6137  0.3621  0.2709
 1542TIP3    H226118   0.916   5.982  14.539  1.5953  0.7737  0.4132
 1543TIP3   OH226119   3.349   6.606  15.934  0.3124  0.1974 -0.5049
 1543TIP3    H126120   3.285   6.652  15.879  1.4865  1.5999 -0.7730
 1543TIP3    H226121   3.432   6.619  15.889  0.8396 -1.4805 -0.0975
 1544TIP3   OH226122   0.185   3.994  11.475  0.0435 -0.3227  0.4213
 1544TIP3    H126123   0.232   3.974  11.394 -0.6623 -0.2079 -0.0289
 1544TIP3    H226124   0.146   4.080  11.460  1.2837  0.4757  1.5351
 1545TIP3   OH226125   3.785   4.230  14.566 -0.5235  0.4080 -0.0578
 1545TIP3    H126126   3.781   4.312  14.516  0.3647  0.2719 -0.3708
 1545TIP3    H226127   3.837   4.171  14.512  1.3313  0.5803  1.4305
 1546TIP3   OH226128   4.479   0.215  13.376  0.2563 -0.0431  0.2208
 1546TIP3    H126129   4.401   0.189  13.424  0.0203  1.1531  0.5081
 1546TIP3    H226130   4.450   0.287  13.320  1.3031  0.9388  0.8944
 1547TIP3   OH226131   1.790   6.808   4.036 -0.1022  0.0364  0.0265
 1547TIP3    H126132   1.871   6.823   4.084 -0.5492 -0.9936  1.1458
 1547TIP3    H226133   1.780   6.885   3.980  0.9977  0.7456  0.7768
 1548TIP3   OH226134   2.565   4.881  13.700  0.2171 -0.8410 -0.0838
 1548TIP3    H126135   2.551   4.827  13.622  0.3972  1.9581 -2.2038
 1548TIP3    H226136   2.478   4.906  13.729  0.1855 -0.7809 -0.2301
 1549TIP3   OH226137   4.828   1.609   6.383  0.5202 -0.0939  0.1747
 1549TIP3    H126138   4.803   1.688   6.335  1.8746  0.2355 -0.0370
 1549TIP3    H226139   4.865   1.551   6.317  0.5897 -0.4386  0.5154
 1550TIP3   OH226140   1.405   0.930  10.860  0.1307 -0.0596  0.1815
 1550TIP3    H126141   1.479   0.883  10.821 -0.3634 -1.5636  0.9762
 1550TIP3    H226142   1.358   0.967  10.785  2.0327  1.5320 -0.3063
 1551TIP3   OH226143   2.507   2.525   0.742  0.3665  0.2882  0.0895
 1551TIP3    H126144   2.535   2.468   0.671  1.2546 -0.1846  0.8003
 1551TIP3    H226145   2.582   2.529   0.801 -0.5621  0.1485  1.3238
 1552TIP3   OH226146   5.275   0.711  15.791  0.4669 -0.2385  0.2669
 1552TIP3    H126147   5.188   0.745  15.812  0.4275  0.4504 -0.9017
 1552TIP3    H226148   5.299   0.657  15.867 -0.6219  0.2275  0.9711
 1553TIP3   OH226149   1.501   3.212  16.004  0.1826 -0.2546  0.6106
 1553TIP3    H126150   1.528   3.303  16.009  0.3975 -0.2853  0.0649
 1553TIP3    H226151   1.447   3.199  16.082 -2.4795  1.2189 -0.8318
 1554TIP3   OH226152   0.264   1.263  11.282  0.1878  0.0521 -0.3700
 1554TIP3    H126153   0.199   1.317  11.238 -2.9200 -1.2343  2.2154
 1554TIP3    H226154   0.298   1.205  11.214 -1.4919  0.6509 -1.7814
 1555TIP3   OH226155   3.993   6.649  11.471 -0.4151 -0.0622 -0.2314
 1555TIP3    H126156   4.015   6.723  11.415 -0.8291 -0.1262 -0.4860
 1555TIP3    H226157   4.052   6.579  11.443 -1.9758 -0.7433 -2.0206
 1556TIP3   OH226158   0.175   0.753   0.789  0.1340  0.3254 -0.0240
 1556TIP3    H126159   0.156   0.810   0.863 -0.1090  0.0934  0.0954
 1556TIP3    H226160   0.271   0.746   0.789  0.0986 -0.4963  0.9124
 1557TIP3   OH226161   3.527   0.411  16.516  0.1987  0.5291 -0.3787
 1557TIP3    H126162   3.547   0.365  16.598 -1.1561 -0.5671 -0.6346
 1557TIP3    H226163   3.432   0.408  16.509  0.2980  0.4828 -2.0789
 1558TIP3   OH226164   5.498   5.873  16.195 -0.1140  0.3163 -0.3275
 1558TIP3    H126165   5.563   5.933  16.158  1.3073 -0.7705  0.2910
 1558TIP3    H226166   5.475   5.815  16.122  0.9485 -0.3771 -0.1376
 1559TIP3   OH226167   5.075   2.246   3.693 -0.0174  0.3633  0.6252
 1559TIP3    H126168   5.074   2.339   3.717  0.1240  0.1810  1.3618
 1559TIP3    H226169   5.080   2.200   3.777 -1.2383 -0.3432  0.3320
 1560TIP3   OH226170   6.271   5.044   4.668 -0.2174 -0.0685 -0.7833
 1560TIP3    H126171   6.258   5.089   4.584  2.8855 -2.1174 -2.5476
 1560TIP3    H226172   6.221   5.097   4.731 -0.8891  2.8588 -3.4912
 1561TIP3   OH226173   2.060   1.782  11.681 -0.2596  0.2416 -0.6885
 1561TIP3    H126174   2.108   1.728  11.619  0.9963 -1.4843  1.6574
 1561TIP3    H226175   1.991   1.725  11.716  0.0953  0.6022  0.6778
 1562TIP3   OH226176   1.571   0.843  17.017  0.2094  0.0799 -0.2100
 1562TIP3    H126177   1.499   0.828  17.078  0.2240 -0.0108 -0.2137
 1562TIP3    H226178   1.592   0.756  16.983 -0.5622  0.2817 -1.2262
 1563TIP3   OH226179   0.644   1.374   1.065  0.2066 -0.2488  0.1170
 1563TIP3    H126180   0.588   1.346   1.138  0.6456 -0.8653  0.2296
 1563TIP3    H226181   0.625   1.467   1.055 -0.3449 -0.3008  0.5909
 1564TIP3   OH226182   4.513   6.306  15.951 -0.1364 -0.1743  0.2653
 1564TIP3    H126183   4.437   6.339  15.904  0.4480  1.0604  0.1457
 1564TIP3    H226184   4.477   6.254  16.022 -1.0789  0.0531 -0.0308
 1565TIP3   OH226185   3.483   6.160  14.287  0.2617  0.2648 -0.0923
 1565TIP3    H126186   3.400   6.145  14.241  0.5321  0.5240 -0.6870
 1565TIP3    H226187   3.543   6.096  14.249  0.9114  1.5231 -1.2780
 1566TIP3   OH226188   3.766   5.581  10.734 -0.0929 -0.6808 -0.5144
 1566TIP3    H126189   3.687   5.583  10.789  1.0474  0.4711  1.1851
 1566TIP3    H226190   3.810   5.500  10.759 -0.0803 -0.6553 -0.4510
 1567TIP3   OH226191   1.123   1.118  14.524 -0.5687  0.4173 -0.3931
 1567TIP3    H126192   1.050   1.101  14.583 -1.0819  0.1930 -1.0767
 1567TIP3    H226193   1.150   1.032  14.493  1.3199  0.2994  1.3728
 1568TIP3   OH226194   0.296   2.673  12.123  0.5609 -0.3977  0.3783
 1568TIP3    H126195   0.267   2.589  12.157 -0.3448 -0.4419 -0.4431
 1568TIP3    H226196   0.227   2.699  12.062  0.9551  0.8105  0.4095
 1569TIP3   OH226197   6.252   1.222   4.898 -0.4178  0.8805  0.5740
 1569TIP3    H126198   6.286   1.277   4.828  0.5739  1.1586  1.2516
 1569TIP3    H226199   6.224   1.284   4.966  1.2302  0.5833  1.5793
 1570TIP3   OH226200   3.497   1.797   4.721 -0.6306 -0.1943 -0.5095
 1570TIP3    H126201   3.408   1.769   4.742 -1.5445  2.2252 -0.8487
 1570TIP3    H226202   3.510   1.877   4.772 -0.1849  1.7363 -3.3955
 1571TIP3   OH226203   0.295   4.341   0.289 -0.8100 -0.7273  0.3805
 1571TIP3    H126204   0.351   4.413   0.318  0.0653 -1.1914 -0.1292
 1571TIP3    H226205   0.229   4.383   0.233 -1.1150 -0.1513  1.1554
 1572TIP3   OH226206   1.345   4.357  11.805 -0.0208 -0.0247  0.2958
 1572TIP3    H126207   1.360   4.438  11.853  0.8621  0.6243 -1.0085
 1572TIP3    H226208   1.328   4.385  11.715  2.3924 -1.3086 -0.6641
 1573TIP3   OH226209   1.434   6.119  15.981 -0.4932  0.5663 -0.4005
 1573TIP3    H126210   1.404   6.201  16.021  2.1993  1.2455  0.4201
 1573TIP3    H226211   1.528   6.132  15.968 -0.0096 -2.3347 -0.4060
 1574TIP3   OH226212   1.370   5.940   2.018 -0.3638 -0.2325  0.2710
 1574TIP3    H126213   1.399   5.865   2.071 -1.5493 -0.5977  0.4261
 1574TIP3    H226214   1.374   6.014   2.079  0.3557 -0.2429  0.2493
 1575TIP3   OH226215   3.450   0.760   5.132  0.2717  0.5712 -0.0297
 1575TIP3    H126216   3.488   0.693   5.075 -0.5224 -0.6086  0.7728
 1575TIP3    H226217   3.526   0.804   5.170  0.8466 -0.6440  0.3043
 1576TIP3   OH226218   2.237   0.388  16.280 -0.5182 -0.2093  0.3930
 1576TIP3    H126219   2.242   0.323  16.350 -0.5634 -0.1581  0.4435
 1576TIP3    H226220   2.270   0.343  16.203  0.0039 -0.1079  0.5576
 1577TIP3   OH226221   3.128   4.736  16.680 -0.8215  0.7224  0.3103
 1577TIP3    H126222   3.155   4.703  16.594 -0.0520 -0.8983  1.1150
 1577TIP3    H226223   3.165   4.824  16.685  0.7677  0.1355 -0.3093
 1578TIP3   OH226224   3.167   2.803   1.720  0.3137  0.2352 -0.3219
 1578TIP3    H126225   3.120   2.874   1.763  0.1742  0.3728 -0.6985
 1578TIP3    H226226   3.227   2.847   1.660  1.4237  0.0939  0.6370
 1579TIP3   OH226227   3.136   5.529   5.142 -0.1366  0.2457  0.7029
 1579TIP3    H126228   3.167   5.579   5.067 -0.3889  0.5283  0.7825
 1579TIP3    H226229   3.162   5.581   5.218 -1.2648  0.7604  0.7528
 1580TIP3   OH226230   5.634   0.112   1.948 -0.1866  0.7153  0.0044
 1580TIP3    H126231   5.662   0.090   2.037 -0.3969  0.5105  0.0221
 1580TIP3    H226232   5.538   0.114   1.953 -0.3047 -1.2674 -0.6523
 1581TIP3   OH226233   5.336   4.456  11.683  0.9189  0.6302  0.4674
 1581TIP3    H126234   5.395   4.483  11.753  1.2273 -1.0052  0.8822
 1581TIP3    H226235   5.362   4.508  11.607  2.6213  0.2386  0.7501
 1582TIP3   OH226236   5.246   2.906   1.572 -0.0914  0.0024 -0.8326
 1582TIP3    H126237   5.202   2.951   1.644  0.2743 -0.1335 -0.5268
 1582TIP3    H226238   5.191   2.829   1.556  1.5160 -1.7418  1.4529
 1583TIP3   OH226239   2.417   5.003   1.544 -0.4778 -0.1930  0.1581
 1583TIP3    H126240   2.490   5.047   1.501 -0.6332 -0.0269  0.0585
 1583TIP3    H226241   2.419   4.914   1.509 -0.6534 -0.0373 -0.2657
 1584TIP3   OH226242   4.051   4.072   5.620 -0.6247 -0.1860 -0.4057
 1584TIP3    H126243   4.129   4.068   5.675  1.3042  0.3521 -2.9075
 1584TIP3    H226244   4.001   4.146   5.654  1.8387  1.8424 -0.9328
 1585TIP3   OH226245   4.442   4.228  15.058  0.2993  0.4769  0.1488
 1585TIP3    H126246   4.410   4.254  15.144  1.0585  1.6195  0.0992
 1585TIP3    H226247   4.381   4.160  15.030 -0.7573  1.0474  0.9933
 1586TIP3   OH226248   4.089   4.107   4.827  0.6886 -0.0953 -0.3463
 1586TIP3    H126249   4.023   4.159   4.783  2.2127  2.5142  0.2331
 1586TIP3    H226250   4.173   4.143   4.796  1.8044 -0.3555  2.1071
 1587TIP3   OH226251   3.880   0.984  13.692 -0.3653 -0.1258  0.0666
 1587TIP3    H126252   3.950   0.981  13.757 -0.5330  1.0853  0.3217
 1587TIP3    H226253   3.895   0.907  13.637  1.0805  0.0360  0.2072
 1588TIP3   OH226254   1.158   6.768   4.056 -0.4289 -0.4713 -0.7828
 1588TIP3    H126255   1.223   6.716   4.103 -1.5771 -1.5747 -0.3574
 1588TIP3    H226256   1.175   6.751   3.964  1.2550  0.9830 -0.7903
 1589TIP3   OH226257   4.742   6.385   1.406  0.2259 -0.5515 -0.0579
 1589TIP3    H126258   4.744   6.384   1.502 -0.6676  0.9727  0.0158
 1589TIP3    H226259   4.708   6.472   1.384 -0.0037 -1.0355 -1.7523
 1590TIP3   OH226260   5.661   4.317  13.210  0.4725  0.5896  0.4209
 1590TIP3    H126261   5.617   4.315  13.126 -0.4684  0.3017  0.9062
 1590TIP3    H226262   5.596   4.350  13.271  0.9172  0.1439  1.1608
 1591TIP3   OH226263   6.731   4.587   5.662  0.3793 -0.5435  0.2731
 1591TIP3    H126264   6.713   4.576   5.755 -0.4409  0.1993  0.2211
 1591TIP3    H226265   6.804   4.649   5.659  1.4055 -1.6989  0.4343
 1592TIP3   OH226266   1.751   0.613  17.051 -0.5307 -0.0667 -0.5549
 1592TIP3    H126267   1.691   0.541  17.070  1.1884 -1.1091  1.1461
 1592TIP3    H226268   1.819   0.607  17.117  0.5519  2.1578 -1.3557
 1593TIP3   OH226269   1.583   0.903   0.242  0.0067 -0.2192 -0.3430
 1593TIP3    H126270   1.543   0.968   0.184 -1.1855  0.3912  1.1058
 1593TIP3    H226271   1.511   0.844   0.265  0.3798 -0.2647  0.7677
 1594TIP3   OH226272   6.190   6.055   4.271  0.8710 -0.3684  0.5125
 1594TIP3    H126273   6.187   6.009   4.355  0.5372  1.2179  1.3917
 1594TIP3    H226274   6.112   6.026   4.225 -2.3671  3.1597  3.1915
 1595TIP3   OH226275   1.176   0.271   0.473  0.0254  0.2319 -0.7501
 1595TIP3    H126276   1.184   0.354   0.520 -1.3257 -0.2135  0.3220
 1595TIP3    H226277   1.248   0.217   0.507  0.7079  0.8262 -1.2134
 1596TIP3   OH226278   0.555   4.100   5.523 -0.4573  0.7528  0.1836
 1596TIP3    H126279   0.584   4.178   5.572 -0.3164 -0.1112  1.5343
 1596TIP3    H226280   0.636   4.057   5.497 -0.5311  1.3552 -1.0975
 1597TIP3   OH226281   3.669   0.395   0.207  0.1167  0.1761 -0.1221
 1597TIP3    H126282   3.627   0.462   0.153 -0.2127  0.1233  0.0657
 1597TIP3    H226283   3.604   0.325   0.213  0.8075 -0.5773 -1.0984
 1598TIP3   OH226284   1.554   3.538  16.418 -0.8106  0.5196 -0.2114
 1598TIP3    H126285   1.544   3.475  16.348 -0.8015  0.8224 -0.4886
 1598TIP3    H226286   1.649   3.548  16.428 -0.8030  1.3916 -0.9985
 1599TIP3   OH226287   4.133   4.342  12.110  0.2216 -0.3229  0.4249
 1599TIP3    H126288   4.221   4.368  12.084  0.0728 -0.8484 -0.6601
 1599TIP3    H226289   4.128   4.249  12.090  0.2630 -0.9032  2.9046
 1600TIP3   OH226290   3.187   5.064  13.737  0.4797  0.2880  0.0960
 1600TIP3    H126291   3.241   5.143  13.727  0.6178  0.2841  0.7966
 1600TIP3    H226292   3.240   5.006  13.791  0.7816 -0.6710 -1.1698
 1601TIP3   OH226293   1.088   3.957  15.071 -0.0774 -0.2881  0.0740
 1601TIP3    H126294   1.027   3.936  15.141 -0.9018  0.2300 -0.4673
 1601TIP3    H226295   1.100   4.052  15.077 -1.4662  0.0359 -1.4761
 1602TIP3   OH226296   5.085   3.281   1.075  0.1698 -0.9850 -0.3110
 1602TIP3    H126297   5.099   3.196   1.116 -0.2908 -0.2897  1.3508
 1602TIP3    H226298   4.990   3.294   1.079  0.3795  0.3322  0.9983
 1603TIP3   OH226299   2.604   6.369   5.715  0.1922  0.0263  0.5319
 1603TIP3    H126300   2.676   6.432   5.720 -0.1464  0.3773  1.3337
 1603TIP3    H226301   2.594   6.337   5.805 -0.1716 -0.5719  0.2879
 1604TIP3   OH226302   2.875   0.187  10.915 -0.3642 -0.5231 -0.1041
 1604TIP3    H126303   2.940   0.237  10.866 -0.7647  1.0756  0.8925
 1604TIP3    H226304   2.810   0.253  10.942 -1.6186 -1.8202  0.1759
 1605TIP3   OH226305   3.407   3.878   5.463  0.0031 -0.0372  0.1558
 1605TIP3    H126306   3.377   3.969   5.452 -0.9215 -0.5009 -1.4278
 1605TIP3    H226307   3.332   3.825   5.437  0.4937 -1.2898  1.1876
 1606TIP3   OH226308   6.162   4.402  16.776 -0.3582 -0.5813  0.0134
 1606TIP3    H126309   6.221   4.464  16.817 -1.8567  0.0653  1.2568
 1606TIP3    H226310   6.164   4.325  16.833  1.3337 -1.6812 -1.4099
 1607TIP3   OH226311   1.636   1.117  13.669  0.4613  0.3038 -0.2168
 1607TIP3    H126312   1.580   1.122  13.746 -0.0372 -0.1791 -0.5394
 1607TIP3    H226313   1.708   1.178  13.687 -0.2582  1.0663  0.1283
 1608TIP3   OH226314   3.336   5.005   1.852  0.1474 -0.3384  0.6386
 1608TIP3    H126315   3.398   5.033   1.920  0.4687 -0.9623  0.6096
 1608TIP3    H226316   3.358   4.914   1.836 -0.8470 -0.5953  0.6784
 1609TIP3   OH226317   4.295   2.959   0.363 -0.4852  0.4549  0.9261
 1609TIP3    H126318   4.376   2.930   0.405 -0.1199  0.6468  0.3633
 1609TIP3    H226319   4.323   3.027   0.302 -1.0914  0.6189  0.8289
 1610TIP3   OH226320   1.983   4.636  14.368  0.3105 -0.1662  0.5241
 1610TIP3    H126321   2.065   4.616  14.412 -0.8935  0.5958  3.3637
 1610TIP3    H226322   1.951   4.551  14.337  1.2477 -0.7480  1.1243
 1611TIP3   OH226323   1.374   5.018  13.921  0.8089 -0.0611  0.0569
 1611TIP3    H126324   1.452   5.033  13.867 -0.0318  0.5110 -1.0476
 1611TIP3    H226325   1.311   4.980  13.860 -0.4408  1.3515  0.4149
 1612TIP3   OH226326   2.619   0.984   1.353 -0.5127 -0.0948  0.5599
 1612TIP3    H126327   2.698   1.009   1.401 -1.3389 -0.6911  2.3489
 1612TIP3    H226328   2.627   1.027   1.269 -0.4768  3.8225  2.3592
 1613TIP3   OH226329   0.671   2.142   2.349 -0.0827  0.1336 -0.1089
 1613TIP3    H126330   0.633   2.202   2.284  1.3982  1.0988 -0.1333
 1613TIP3    H226331   0.637   2.056   2.325 -0.8449  0.7034 -1.1722
 1614TIP3   OH226332   0.345   0.946  14.663 -0.0948  0.4245 -0.0569
 1614TIP3    H126333   0.287   0.903  14.600  0.5713 -0.9295  0.2365
 1614TIP3    H226334   0.430   0.903  14.652  0.9754  2.5402 -0.6547
 1615TIP3   OH226335   4.845   0.641   3.259  0.4008 -0.5106 -0.1727
 1615TIP3    H126336   4.848   0.675   3.169 -0.0074 -0.2678 -0.1006
 1615TIP3    H226337   4.832   0.547   3.248 -1.2604 -0.2929 -0.3798
 1616TIP3   OH226338   6.411   2.620  16.318 -0.1343 -0.3064  0.1514
 1616TIP3    H126339   6.406   2.673  16.398  0.0919 -0.8486  0.5257
 1616TIP3    H226340   6.337   2.649  16.266 -0.1389  0.2331  0.4461
 1617TIP3   OH226341   4.504   6.760   3.898 -0.3225  0.4799  0.4238
 1617TIP3    H126342   4.440   6.717   3.842  0.8670 -0.3865 -0.3361
 1617TIP3    H226343   4.555   6.815   3.839  1.4762 -1.0657  0.4331
 1618TIP3   OH226344   0.067   2.632   3.978  0.0492  0.6203  0.2935
 1618TIP3    H126345   0.133   2.672   3.921 -0.9056  0.1015 -1.2292
 1618TIP3    H226346  -0.011   2.625   3.923 -0.6374 -0.7574  1.3931
 1619TIP3   OH226347   2.515   3.763  15.596  0.4056 -0.7787 -0.3528
 1619TIP3    H126348   2.483   3.720  15.675  2.1577 -1.8340 -0.1414
 1619TIP3    H226349   2.588   3.707  15.567  0.8950  0.5167 -1.7441
 1620TIP3   OH226350   2.997   3.904  12.849  0.0966 -0.2307 -0.2624
 1620TIP3    H126351   3.013   3.994  12.819  0.1200  0.5996  1.9641
 1620TIP3    H226352   3.011   3.849  12.773  1.4864  1.5474 -1.3530
 1621TIP3   OH226353   5.791   5.629   3.164  0.1990 -0.5084 -0.6613
 1621TIP3    H126354   5.885   5.635   3.183  0.1117 -1.3233  0.1246
 1621TIP3    H226355   5.778   5.688   3.090  1.3785 -0.5592 -0.9416
 1622TIP3   OH226356   1.600   0.151  13.912  0.1364  0.1384 -0.0597
 1622TIP3    H126357   1.596   0.079  13.975  1.9116  0.2617  0.2637
 1622TIP3    H226358   1.673   0.128  13.854  0.4079  1.4202 -0.2671
 1623TIP3   OH226359   4.563   0.396  11.466  0.3441 -0.2783  0.1950
 1623TIP3    H126360   4.491   0.376  11.406 -0.9343  0.2368  1.5200
 1623TIP3    H226361   4.532   0.366  11.552  1.7982 -0.2300  0.7660
 1624TIP3   OH226362   2.976   2.090  13.653 -0.3131  0.6013 -0.4029
 1624TIP3    H126363   2.943   2.172  13.617 -2.2946  0.8785  1.7881
 1624TIP3    H226364   3.018   2.115  13.736 -0.4444 -0.5220  0.0192
 1625TIP3   OH226365   4.400   2.864   2.944  0.2446 -0.7364  0.3050
 1625TIP3    H126366   4.358   2.940   2.984 -1.4286 -0.4475 -1.8593
 1625TIP3    H226367   4.485   2.897   2.914 -1.1612  0.8848 -2.2152
 1626TIP3   OH226368   1.297   6.159  13.660 -0.5172 -0.7564  0.1559
 1626TIP3    H126369   1.283   6.131  13.751  0.6987 -1.0369  0.2814
 1626TIP3    H226370   1.337   6.083  13.618  1.3681  0.2055  0.0897
 1627TIP3   OH226371   2.031   6.449   4.814 -0.3592 -0.1833  0.2549
 1627TIP3    H126372   2.104   6.456   4.753 -1.7780  0.0827 -1.5171
 1627TIP3    H226373   1.966   6.511   4.780 -1.4879 -0.5543  1.6541
 1628TIP3   OH226374   6.642   6.670  13.776  0.2195  0.1277 -0.4702
 1628TIP3    H126375   6.687   6.586  13.791 -0.2036  0.1254  0.9005
 1628TIP3    H226376   6.583   6.679  13.851 -1.2831  0.6602 -1.6548
 1629TIP3   OH226377   4.393   2.460   1.052 -0.4152 -0.1824  0.1031
 1629TIP3    H126378   4.482   2.485   1.026 -0.2168 -0.9616  0.0306
 1629TIP3    H226379   4.356   2.418   0.974 -0.9031  0.2499  0.0881
 1630TIP3   OH226380   6.300   5.369   5.450  0.2741 -0.1207 -0.4197
 1630TIP3    H126381   6.270   5.317   5.374 -0.9737  2.9873 -2.2297
 1630TIP3    H226382   6.220   5.383   5.501  0.4885  0.4180 -0.2308
 1631TIP3   OH226383   2.183   4.544   2.798  0.1563  0.1300  0.1104
 1631TIP3    H126384   2.180   4.621   2.741  0.9395 -1.4739 -2.2638
 1631TIP3    H226385   2.258   4.494   2.766 -1.2780 -2.4033  0.4920
 1632TIP3   OH226386   4.048   4.222  16.210  0.2440  0.6708  0.1809
 1632TIP3    H126387   4.053   4.315  16.185 -0.8642  1.4414  2.5531
 1632TIP3    H226388   3.978   4.186  16.154 -0.1526  1.5691  0.0757
 1633TIP3   OH226389   0.410   1.549   0.577  0.0741 -0.1278  0.1193
 1633TIP3    H126390   0.503   1.531   0.587  0.3139  0.2550 -1.2087
 1633TIP3    H226391   0.397   1.557   0.482 -1.4722 -1.0306  0.2144
 1634TIP3   OH226392   4.789   2.389  13.083 -0.2491 -0.1257 -0.4648
 1634TIP3    H126393   4.811   2.478  13.058  0.7431  0.3632  1.8583
 1634TIP3    H226394   4.872   2.348  13.107 -0.7164 -1.5882 -1.1872
 1635TIP3   OH226395   6.117   4.669  14.398 -0.4721  0.3180 -0.4102
 1635TIP3    H126396   6.149   4.719  14.324 -1.0426 -0.2726 -1.0761
 1635TIP3    H226397   6.032   4.708  14.419 -0.8917 -0.3071 -0.8937
 1636TIP3   OH226398   0.671   0.198   1.017  0.6620  0.5704 -0.5342
 1636TIP3    H126399   0.610   0.126   1.031  2.5152 -0.9316  0.2706
 1636TIP3    H226400   0.755   0.165   1.049  2.3732  1.7920 -3.3726
 1637TIP3   OH226401   4.405   6.346  11.945 -0.4354  0.3449  0.5657
 1637TIP3    H126402   4.318   6.352  11.983 -1.1735  0.2742 -1.0417
 1637TIP3    H226403   4.457   6.299  12.011 -2.2783 -1.9786  0.4904
 1638TIP3   OH226404   5.028   2.806  14.967 -0.1043 -0.2571  0.2553
 1638TIP3    H126405   5.077   2.834  14.890  0.9570 -2.1239  0.1819
 1638TIP3    H226406   5.093   2.759  15.020 -0.7989  0.9742  2.3028
 1639TIP3   OH226407   3.899   6.819  13.188 -0.0311  0.0749  0.4942
 1639TIP3    H126408   3.993   6.820  13.208 -0.1975  1.0794  1.2717
 1639TIP3    H226409   3.857   6.837  13.272 -0.8760  0.9604 -0.1061
 1640TIP3   OH226410   6.691   1.031   4.745  0.4961 -0.4875 -0.7226
 1640TIP3    H126411   6.769   1.074   4.712  0.1003 -0.6027 -1.8404
 1640TIP3    H226412   6.645   1.099   4.795  1.7683 -0.6778  0.7956
 1641TIP3   OH226413   6.511   6.277   2.344  0.3480 -0.1037  0.0537
 1641TIP3    H126414   6.475   6.188   2.349 -0.2942  0.1715  0.6659
 1641TIP3    H226415   6.434   6.333   2.335  0.6642  0.4538  0.6783
 1642TIP3   OH226416   1.873   3.525  12.670  0.5540  0.3877 -0.1405
 1642TIP3    H126417   1.959   3.564  12.655 -0.7482  3.0362 -1.3916
 1642TIP3    H226418   1.820   3.596  12.707 -0.9228 -1.3965  1.4210
 1643TIP3   OH226419   0.065   5.236   1.965 -0.3140 -0.0526  0.1591
 1643TIP3    H126420  -0.017   5.221   1.918  0.0401 -0.2346 -0.4137
 1643TIP3    H226421   0.130   5.182   1.918  0.2534  0.5638  0.2204
 1644TIP3   OH226422   4.116   4.737  13.750  0.8394  0.1168 -0.2432
 1644TIP3    H126423   4.055   4.797  13.793  0.0213 -1.3479  0.7240
 1644TIP3    H226424   4.153   4.788  13.678 -1.5646  1.0644 -0.8966
 1645TIP3   OH226425   3.095   3.482   2.996  0.1475  0.1058 -0.1403
 1645TIP3    H126426   3.097   3.422   3.070  1.6950  0.0306 -0.2068
 1645TIP3    H226427   3.011   3.527   3.003  0.0784 -0.2259  1.3923
 1646TIP3   OH226428   2.595   3.145  14.908  0.4122 -0.7167 -0.2843
 1646TIP3    H126429   2.652   3.153  14.985  2.6863 -0.6672 -1.9017
 1646TIP3    H226430   2.569   3.235  14.888  1.5867 -0.4926 -0.8362
 1647TIP3   OH226431   2.140   6.761   3.554  0.1993 -0.4286  0.2665
 1647TIP3    H126432   2.231   6.783   3.534  0.1230 -0.1362  0.2486
 1647TIP3    H226433   2.090   6.799   3.483 -0.3147  2.5870  2.0657
 1648TIP3   OH226434   5.664   2.537  12.376  0.4946 -0.0335  0.8311
 1648TIP3    H126435   5.591   2.563  12.432  0.0418  1.4739 -0.4077
 1648TIP3    H226436   5.644   2.446  12.352  0.3251 -0.4691  2.4750
 1649TIP3   OH226437   5.910   1.836   4.874 -0.1158  0.0742 -0.4795
 1649TIP3    H126438   5.954   1.833   4.958  0.8207  0.0456 -0.9635
 1649TIP3    H226439   5.849   1.910   4.881  1.2065  1.1810 -0.3784
 1650TIP3   OH226440   6.497   1.389  11.504 -0.0595 -0.5312 -0.4896
 1650TIP3    H126441   6.465   1.419  11.590  1.0319  0.0702 -0.2686
 1650TIP3    H226442   6.419   1.388  11.449 -0.4769  0.9142  0.0169
 1651TIP3   OH226443   0.638   0.911   4.066  0.1496  0.3433  0.1613
 1651TIP3    H126444   0.729   0.913   4.094  0.1814 -2.8292  0.7210
 1651TIP3    H226445   0.588   0.917   4.148  0.1106 -3.2716  0.5698
 1652TIP3   OH226446   4.543   1.488  14.728 -0.3067  0.2890  0.2806
 1652TIP3    H126447   4.597   1.511  14.803  0.1502  1.0147 -0.2602
 1652TIP3    H226448   4.455   1.517  14.752 -0.5647 -1.2529  1.3266
 1653TIP3   OH226449   2.466   6.241   1.172 -0.3960  0.2520  0.2178
 1653TIP3    H126450   2.410   6.202   1.105  3.0648 -1.4843 -1.9420
 1653TIP3    H226451   2.445   6.192   1.252 -1.1502 -1.1290 -0.7926
 1654TIP3   OH226452   4.342   4.821  13.543  0.1437 -0.0658 -0.4182
 1654TIP3    H126453   4.317   4.796  13.454  1.9001 -0.1563 -0.9164
 1654TIP3    H226454   4.421   4.771  13.561  2.1976  2.9128 -0.3931
 1655TIP3   OH226455   0.348   4.186   0.048 -0.3435 -0.1861  0.1681
 1655TIP3    H126456   0.324   4.198  -0.044  0.1524 -0.5479 -0.0130
 1655TIP3    H226457   0.336   4.272   0.088  0.7112  0.2907 -0.5335
 1656TIP3   OH226458   6.227   2.941   2.645 -0.2038  0.0878 -0.1647
 1656TIP3    H126459   6.167   2.889   2.698  0.3747  0.6228  1.0410
 1656TIP3    H226460   6.298   2.964   2.705  3.1434 -3.4631 -2.2781
 1657TIP3   OH226461   0.348   6.472  15.370 -0.2207  0.4775  0.1017
 1657TIP3    H126462   0.391   6.436  15.448 -0.6310  1.8461  1.0032
 1657TIP3    H226463   0.410   6.537  15.337 -0.6038  0.8345  0.0747
 1658TIP3   OH226464   3.865   5.744   0.572 -0.0324  0.0602 -0.3750
 1658TIP3    H126465   3.782   5.756   0.526  0.9074 -1.8939 -2.7854
 1658TIP3    H226466   3.840   5.709   0.658 -1.7240  0.2852 -0.7466
 1659TIP3   OH226467   6.258   1.985  16.140 -0.7867  0.6973 -0.2035
 1659TIP3    H126468   6.349   2.012  16.130 -0.0339 -0.9915  1.5928
 1659TIP3    H226469   6.220   2.049  16.199  0.0004 -0.0601  1.1644
 1660TIP3   OH226470   4.580   4.780  13.760  1.0319 -0.4196 -0.7039
 1660TIP3    H126471   4.657   4.723  13.760  1.4042  0.0685  0.0444
 1660TIP3    H226472   4.509   4.723  13.788  1.6514 -0.2478  1.4335
 1661TIP3   OH226473   1.736   0.400  12.718  0.3265  0.0022 -0.5731
 1661TIP3    H126474   1.679   0.364  12.650  2.3398 -0.0439 -2.3689
 1661TIP3    H226475   1.715   0.350  12.797  1.0188 -3.2641 -2.2631
 1662TIP3   OH226476   3.566   5.360  15.308 -0.6629 -0.1460 -0.3378
 1662TIP3    H126477   3.550   5.357  15.403 -2.0351 -0.4965 -0.5575
 1662TIP3    H226478   3.637   5.298  15.294  0.6850  1.0969  0.6509
 1663TIP3   OH226479   4.120   5.312   2.561  0.2460  0.4145  0.0623
 1663TIP3    H126480   4.037   5.312   2.512  0.9154  0.3552 -1.1139
 1663TIP3    H226481   4.094   5.303   2.653 -1.1046  1.4995 -0.1877
 1664TIP3   OH226482   3.454   0.692  12.881  0.3890 -0.1785 -0.0811
 1664TIP3    H126483   3.503   0.769  12.854  1.6333 -0.6115  0.8594
 1664TIP3    H226484   3.401   0.721  12.955 -0.1863  0.0928 -0.5903
 1665TIP3   OH226485   6.376   2.866   1.504  0.0110 -0.3759  0.2067
 1665TIP3    H126486   6.282   2.865   1.522 -0.4749 -1.6747 -1.9361
 1665TIP3    H226487   6.392   2.951   1.464 -0.5477 -0.6008 -0.5333
 1666TIP3   OH226488   6.695   4.903  11.645  0.1896 -0.0421 -0.2335
 1666TIP3    H126489   6.703   4.998  11.634  1.3133 -0.1144 -0.0945
 1666TIP3    H226490   6.623   4.878  11.587 -1.5816  1.1804  1.3070
 1667TIP3   OH226491   2.223   0.356  13.886 -0.2130 -0.2571  0.3491
 1667TIP3    H126492   2.142   0.307  13.898 -0.5515  0.1245 -0.3258
 1667TIP3    H226493   2.206   0.412  13.810  0.5799  0.0383  0.3831
 1668TIP3   OH226494   4.263   0.927  14.402 -0.6075  0.1472 -0.3593
 1668TIP3    H126495   4.179   0.965  14.376 -1.2575 -0.8215  0.2641
 1668TIP3    H226496   4.244   0.835  14.420  0.8536 -0.4182 -1.4625
 1669TIP3   OH226497   6.617   6.747   4.555  0.2293 -0.1576  0.3282
 1669TIP3    H126498   6.564   6.674   4.587 -0.1453 -0.3150 -0.6313
 1669TIP3    H226499   6.626   6.804   4.631 -0.6055 -0.5406  0.7353
 1670TIP3   OH226500   5.418   0.286  12.443  0.0369 -0.1308 -0.3720
 1670TIP3    H126501   5.424   0.205  12.494  0.3744 -0.4571 -0.9159
 1670TIP3    H226502   5.328   0.316  12.455 -0.1764 -0.7462 -0.4120
 1671TIP3   OH226503   5.331   0.504   0.092  0.0137  0.1699  0.1373
 1671TIP3    H126504   5.287   0.581   0.128  0.3891  0.5875 -0.2906
 1671TIP3    H226505   5.360   0.531   0.005  1.3920  0.0162  0.5185
 1672TIP3   OH226506   5.793   1.994  11.158  0.2203 -0.0285  0.1929
 1672TIP3    H126507   5.820   1.903  11.165 -0.3397 -0.2265 -0.1760
 1672TIP3    H226508   5.835   2.026  11.078 -1.0894 -0.5156 -0.7316
 1673TIP3   OH226509   1.489   5.734  12.108 -0.3150 -0.2269 -0.0318
 1673TIP3    H126510   1.483   5.737  12.013 -0.1375 -1.8346 -0.1193
 1673TIP3    H226511   1.557   5.669  12.126  0.5900  1.0003  1.1930
 1674TIP3   OH226512   1.702   3.858   1.713 -0.1893 -0.1523 -0.2168
 1674TIP3    H126513   1.700   3.862   1.617 -0.8296 -0.2323 -0.2160
 1674TIP3    H226514   1.695   3.949   1.741 -0.8201 -0.1808 -0.2518
 1675TIP3   OH226515   6.154   3.919   3.969 -0.6296  0.0884 -0.7062
 1675TIP3    H126516   6.140   3.909   4.063  3.2359  0.7979  0.1113
 1675TIP3    H226517   6.214   3.848   3.946  0.5966  1.4756 -2.0033
 1676TIP3   OH226518   4.344   6.458  15.731 -0.1549  0.2389 -0.0676
 1676TIP3    H126519   4.339   6.401  15.654  1.1271  0.5253 -0.3751
 1676TIP3    H226520   4.421   6.513  15.716 -0.1576  0.6237  1.2033
 1677TIP3   OH226521   0.808   1.255  13.861 -0.6485  0.2546  0.2248
 1677TIP3    H126522   0.719   1.288  13.872 -1.1965 -0.5495 -1.4044
 1677TIP3    H226523   0.855   1.283  13.940 -2.5877 -0.1507  1.5788
 1678TIP3   OH226524   1.907   6.698  13.243 -0.3289  0.6832  0.7302
 1678TIP3    H126525   1.815   6.716  13.222 -0.8181 -2.5210 -0.4656
 1678TIP3    H226526   1.903   6.641  13.320  0.5154 -0.7222 -0.2194
 1679TIP3   OH226527   4.584   5.758   5.458 -0.1214 -0.1981 -0.1427
 1679TIP3    H126528   4.625   5.755   5.371  2.0806 -0.2655  0.8340
 1679TIP3    H226529   4.574   5.666   5.483  2.5450 -0.2235  1.0787
 1680TIP3   OH226530   4.945   1.769   0.743 -0.0790 -0.1917  0.5104
 1680TIP3    H126531   4.932   1.776   0.648  0.2541 -1.3136  0.3645
 1680TIP3    H226532   4.971   1.678   0.757 -0.3537 -0.1054  1.7115
 1681TIP3   OH226533   3.580   3.382  16.603  0.0808  0.0897 -0.2895
 1681TIP3    H126534   3.507   3.383  16.666  0.0804 -0.8204 -0.2595
 1681TIP3    H226535   3.586   3.472  16.572 -0.2685  0.4400  0.6170
 1682TIP3   OH226536   3.879   0.170  14.790 -0.2370 -0.2010 -0.1353
 1682TIP3    H126537   3.923   0.239  14.840 -2.9542  2.2474 -0.8243
 1682TIP3    H226538   3.828   0.122  14.855  0.5031 -0.6027  0.1536
 1683TIP3   OH226539   2.966   4.261  13.897  0.4314  0.2477  0.2108
 1683TIP3    H126540   2.937   4.351  13.911  1.9908  0.7272  0.5694
 1683TIP3    H226541   3.049   4.269  13.850 -0.1598 -1.0742 -1.1552
 1684TIP3   OH226542   6.461   3.582   5.460  0.0960  0.9357  0.4848
 1684TIP3    H126543   6.396   3.642   5.423  0.8220  0.7890 -1.1245
 1684TIP3    H226544   6.542   3.633   5.459  0.7444 -0.0532 -0.9827
 1685TIP3   OH226545   6.131   6.767  14.885 -0.3577  0.0699  0.4224
 1685TIP3    H126546   6.038   6.790  14.893 -1.0056 -1.5647 -1.6067
 1685TIP3    H226547   6.151   6.721  14.966 -1.2343  0.6325  0.9784
 1686TIP3   OH226548   0.179   5.065  15.582 -0.2027 -0.4164  0.4015
 1686TIP3    H126549   0.259   5.109  15.554  0.4722 -0.5056  2.0626
 1686TIP3    H226550   0.111   5.100  15.525  1.0454 -0.5262 -1.2310
 1687TIP3   OH226551   2.208   1.559  10.398  0.1643 -0.0807  0.3078
 1687TIP3    H126552   2.248   1.646  10.389 -0.8970  0.4069  0.0699
 1687TIP3    H226553   2.234   1.512  10.319  2.5405 -0.7839  1.4055
 1688TIP3   OH226554   4.917   4.020  11.488  0.0921 -0.2620 -0.2309
 1688TIP3    H126555   4.906   3.925  11.485  0.2735 -0.3109  0.3969
 1688TIP3    H226556   5.011   4.034  11.488  0.0799 -0.1242  0.4309
 1689TIP3   OH226557   5.831   5.285  13.904 -0.6496 -0.1217  0.0125
 1689TIP3    H126558   5.782   5.204  13.921  0.8483 -1.6106 -2.2884
 1689TIP3    H226559   5.867   5.274  13.817  0.3317  2.7226 -0.0557
 1690TIP3   OH226560   1.189   2.716   3.093 -0.1936  0.2095  0.3582
 1690TIP3    H126561   1.097   2.723   3.067  0.1183  1.7292 -0.4237
 1690TIP3    H226562   1.189   2.648   3.161 -1.9769  0.6237  0.8311
 1691TIP3   OH226563   1.822   4.229   5.231  0.4098 -0.1127  0.6172
 1691TIP3    H126564   1.796   4.137   5.231  1.0180 -0.3094  1.8233
 1691TIP3    H226565   1.916   4.227   5.213  0.4729  0.2506  0.8942
 1692TIP3   OH226566   1.442   6.120   1.800 -0.0952 -0.3089 -0.1314
 1692TIP3    H126567   1.389   6.048   1.834  0.0380  0.9422  3.0747
 1692TIP3    H226568   1.527   6.080   1.779 -0.7618 -1.4563 -0.7711
 1693TIP3   OH226569   5.922   2.313   4.781  0.0163 -0.1872  0.1486
 1693TIP3    H126570   5.998   2.287   4.833 -0.6074 -0.4535  0.9510
 1693TIP3    H226571   5.873   2.372   4.839 -0.7732 -0.6099 -0.0763
 1694TIP3   OH226572   0.616   1.977   1.489 -0.0045  1.0146  0.5544
 1694TIP3    H126573   0.567   2.028   1.553 -0.6079  1.1230  0.0115
 1694TIP3    H226574   0.579   1.889   1.493 -0.1916  1.0753  0.2015
 1695TIP3   OH226575   3.510   5.964  10.726  0.1230  0.1710 -0.5504
 1695TIP3    H126576   3.429   5.994  10.683  0.6307 -0.8188 -2.3080
 1695TIP3    H226577   3.558   6.045  10.745 -2.0480  0.9630  2.3628
 1696TIP3   OH226578   4.094   6.428  14.062  0.4135  0.4494  0.4997
 1696TIP3    H126579   4.188   6.445  14.054  0.3357  0.7188  0.1132
 1696TIP3    H226580   4.054   6.515  14.065  0.1671  0.3363  0.5254
 1697TIP3   OH226581   6.268   4.747  16.454  0.1248 -0.2855 -0.2365
 1697TIP3    H126582   6.301   4.775  16.369 -1.7389  1.6473 -0.4030
 1697TIP3    H226583   6.206   4.815  16.480 -0.1237 -1.3205  2.2251
 1698TIP3   OH226584   1.954   5.939  14.864  0.4300 -0.5856 -0.1279
 1698TIP3    H126585   2.014   5.867  14.882 -0.2142 -0.6215  2.1815
 1698TIP3    H226586   1.867   5.898  14.859  0.2771 -0.2030 -0.9179
 1699TIP3   OH226587   3.280   6.647   2.884 -0.6253 -0.0558 -0.4459
 1699TIP3    H126588   3.233   6.578   2.931  1.3988 -1.4713 -0.3954
 1699TIP3    H226589   3.237   6.728   2.912 -2.7378 -1.2125 -0.1104
 1700TIP3   OH226590   2.287   2.453  12.349 -0.2747 -0.2986 -0.1492
 1700TIP3    H126591   2.266   2.404  12.270  1.5868 -0.2278 -0.7512
 1700TIP3    H226592   2.328   2.389  12.407 -0.6744 -0.1264  0.3270
 1701TIP3   OH226593   5.762   6.702   2.007 -0.3048  0.1637  0.2614
 1701TIP3    H126594   5.845   6.728   1.968  0.6799 -2.4588  0.4500
 1701TIP3    H226595   5.785   6.671   2.094 -1.5663 -0.1293  0.5079
 1702TIP3   OH226596   1.096   5.286  12.889 -0.2843  0.6510  0.3584
 1702TIP3    H126597   1.069   5.195  12.876  1.3427  0.2612 -0.6284
 1702TIP3    H226598   1.015   5.333  12.906 -1.3785 -0.6974 -0.8436
 1703TIP3   OH226599   4.029   2.663  16.583  0.3403  0.2483  0.2617
 1703TIP3    H126600   3.987   2.713  16.653  0.1063 -0.6394  0.7734
 1703TIP3    H226601   4.120   2.655  16.610  0.0643 -0.8291  0.9012
 1704TIP3   OH226602   4.790   6.559  13.961  0.0786 -0.1052  0.2110
 1704TIP3    H126603   4.836   6.475  13.969  1.0660  0.4896  1.0037
 1704TIP3    H226604   4.736   6.563  14.040  0.8391  0.4626  0.7179
 1705TIP3   OH226605   2.927   2.340  14.091  0.4265 -0.1633  0.0571
 1705TIP3    H126606   2.869   2.384  14.029 -0.6301 -1.6657 -0.0745
 1705TIP3    H226607   3.012   2.384  14.080 -0.5932  1.9283  0.0837
 1706TIP3   OH226608   2.558   0.790   0.838 -0.0674 -0.1715  0.3047
 1706TIP3    H126609   2.579   0.697   0.829  1.3984  0.2146 -0.6292
 1706TIP3    H226610   2.473   0.800   0.795  0.2455 -0.9260 -0.5295
 1707TIP3   OH226611   3.145   2.211   0.488 -0.3282  0.1340 -0.8731
 1707TIP3    H126612   3.093   2.291   0.480  0.3750  0.4970 -1.9660
 1707TIP3    H226613   3.211   2.218   0.419 -1.3291 -2.2101 -2.1610
 1708TIP3   OH226614   4.632   2.601   6.194 -0.0528 -0.1157  1.0315
 1708TIP3    H126615   4.709   2.545   6.180 -0.5399 -0.3757 -0.9724
 1708TIP3    H226616   4.661   2.667   6.256  1.8806 -0.0815  0.1578
 1709TIP3   OH226617   1.360   5.329  16.491 -0.8166 -0.0702 -0.5488
 1709TIP3    H126618   1.340   5.325  16.585  3.9607  1.8147  0.8767
 1709TIP3    H226619   1.317   5.409  16.461 -0.6634  0.4997  0.6667
 1710TIP3   OH226620   2.842   6.573  13.703  0.3093 -0.0087 -0.7563
 1710TIP3    H126621   2.918   6.606  13.750 -1.2910  1.5481  0.8437
 1710TIP3    H226622   2.871   6.569  13.611  1.8701  1.9555 -0.4122
 1711TIP3   OH226623   4.849   6.104   5.924  0.3925  0.1397 -0.6215
 1711TIP3    H126624   4.871   6.086   6.016  0.8469  2.3969 -0.2360
 1711TIP3    H226625   4.816   6.021   5.891 -1.0901 -0.4021  1.9683
 1712TIP3   OH226626   3.368   1.238   2.346  0.7505 -0.1181 -0.2298
 1712TIP3    H126627   3.397   1.153   2.314 -0.4685  0.0120 -1.7906
 1712TIP3    H226628   3.274   1.227   2.363  1.1650  0.0334  2.7279
 1713TIP3   OH226629   1.541   0.369   3.713 -0.2852  0.4797 -0.0385
 1713TIP3    H126630   1.627   0.365   3.672  0.4787 -0.0980  1.5701
 1713TIP3    H226631   1.510   0.458   3.694 -0.8751 -0.3397 -3.5260
 1714TIP3   OH226632   4.278   2.189   1.508  0.0453 -0.0641 -0.0237
 1714TIP3    H126633   4.281   2.254   1.438 -1.2936  0.0217 -0.0254
 1714TIP3    H226634   4.197   2.208   1.555 -0.0582 -1.3460  0.3548
 1715TIP3   OH226635   5.268   4.699  11.080 -0.5599  0.4123 -0.1457
 1715TIP3    H126636   5.223   4.752  11.014 -1.5531 -0.3140 -0.0724
 1715TIP3    H226637   5.286   4.760  11.151  0.0360  1.0818 -0.8434
 1716TIP3   OH226638   3.209   0.874  15.212 -0.1443 -0.6358  0.0462
 1716TIP3    H126639   3.130   0.852  15.163  1.2242 -1.4921 -1.9082
 1716TIP3    H226640   3.262   0.794  15.209  2.1166  0.8056 -1.4638
 1717TIP3   OH226641   4.753   3.578   0.937 -0.5618  0.4428 -0.3706
 1717TIP3    H126642   4.669   3.619   0.918 -0.5132 -0.1812 -2.0210
 1717TIP3    H226643   4.798   3.572   0.853  0.0016 -1.7075  0.0169
 1718TIP3   OH226644   5.569   4.872   5.367  0.1976  0.5076 -0.5541
 1718TIP3    H126645   5.657   4.901   5.389  0.0659  1.9183 -1.7447
 1718TIP3    H226646   5.534   4.834   5.448  1.7332  0.3089  0.0315
 1719TIP3   OH226647   1.964   6.241  11.454  0.4805  0.1153  0.1698
 1719TIP3    H126648   2.056   6.258  11.476  0.1683  1.0069  0.8497
 1719TIP3    H226649   1.961   6.239  11.359  1.0138  1.2108  0.1246
 1720TIP3   OH226650   3.269   3.566  13.683 -0.5506 -0.3480 -0.4159
 1720TIP3    H126651   3.312   3.592  13.764  0.4936 -0.2804 -0.9748
 1720TIP3    H226652   3.300   3.477  13.667 -3.2071 -1.6120  0.8876
 1721TIP3   OH226653   4.942   6.719  14.490 -0.1637 -0.4617 -0.2704
 1721TIP3    H126654   5.025   6.728  14.538 -0.1526  2.8577 -0.6790
 1721TIP3    H226655   4.969   6.712  14.398 -0.3104 -0.9114 -0.2799
 1722TIP3   OH226656   6.111   5.524   2.239 -0.0341 -0.2780  0.8678
 1722TIP3    H126657   6.192   5.549   2.284 -0.1810  1.2028  0.3396
 1722TIP3    H226658   6.131   5.438   2.202  1.9886  0.8366 -0.8382
 1723TIP3   OH226659   5.170   2.010   0.517 -0.3700  0.1644 -0.1781
 1723TIP3    H126660   5.257   2.005   0.476 -0.5586  0.3294 -0.6016
 1723TIP3    H226661   5.188   2.029   0.609  0.1007 -1.1305  0.0213
 1724TIP3   OH226662   0.076   4.099  13.789  0.2182  0.1411  0.5590
 1724TIP3    H126663   0.043   4.143  13.711  1.6397 -1.9177 -1.3210
 1724TIP3    H226664   0.142   4.158  13.824 -0.2170  0.9554  0.0208
 1725TIP3   OH226665   4.809   3.776  11.999 -0.2525  0.7748 -0.3740
 1725TIP3    H126666   4.834   3.856  11.953 -0.2146  1.2529  0.4540
 1725TIP3    H226667   4.713   3.777  11.999 -0.2561  0.5786 -0.7679
 1726TIP3   OH226668   5.212   4.033   0.838 -0.2489 -0.4429  0.5729
 1726TIP3    H126669   5.219   4.115   0.888  0.5421  0.0768 -0.3565
 1726TIP3    H226670   5.243   3.966   0.898  2.9218  0.4439  0.1070
 1727TIP3   OH226671   6.209   4.692  13.597  0.4217 -0.3590 -0.2673
 1727TIP3    H126672   6.170   4.672  13.512  1.3108  0.1375 -0.8104
 1727TIP3    H226673   6.213   4.787  13.600  0.3122 -0.3692  0.3766
 1728TIP3   OH226674   5.792   2.131  12.815 -0.7461  0.7454  0.0453
 1728TIP3    H126675   5.795   2.196  12.885  0.2014  0.3055  0.4201
 1728TIP3    H226676   5.881   2.099  12.807 -1.0708 -0.0436 -0.5834
 1729TIP3   OH226677   2.006   3.779   2.307 -0.0133  0.0560 -0.0349
 1729TIP3    H126678   1.956   3.859   2.290 -0.8643 -0.7566 -1.5722
 1729TIP3    H226679   2.050   3.761   2.224 -0.7996 -1.7010 -0.1156
 1730TIP3   OH226680   2.808   3.441   2.817 -0.9687 -0.3648  0.3125
 1730TIP3    H126681   2.730   3.419   2.767 -0.0893  0.9535 -1.8432
 1730TIP3    H226682   2.837   3.524   2.779 -0.0357  0.5966  2.9056
 1731TIP3   OH226683   5.780   6.663   6.684 -0.2397 -0.3262 -0.1292
 1731TIP3    H126684   5.770   6.605   6.760 -1.3765  0.8780  0.6806
 1731TIP3    H226685   5.705   6.642   6.628 -0.9536  0.6774  0.4145
 1732TIP3   OH226686   5.038   3.029   2.453  0.4975  0.6642  0.3643
 1732TIP3    H126687   5.041   2.952   2.510  2.1576  0.4150 -0.0051
 1732TIP3    H226688   4.962   3.013   2.397 -0.3647  0.2706  1.5899
 1733TIP3   OH226689   0.067   3.486  14.186  0.2833 -0.3116  0.1606
 1733TIP3    H126690  -0.026   3.495  14.165  0.5218 -0.3645 -0.9579
 1733TIP3    H226691   0.075   3.397  14.220  0.0973 -0.6696 -0.7213
 1734TIP3   OH226692   5.207   3.416   0.715 -0.5395  0.0952 -0.4795
 1734TIP3    H126693   5.263   3.486   0.680  0.6014 -0.5380  0.0279
 1734TIP3    H226694   5.158   3.385   0.639 -0.8751  1.2491 -0.7676
 1735TIP3   OH226695   6.783   1.285   0.329  0.1979 -0.2413 -0.4911
 1735TIP3    H126696   6.872   1.261   0.358  1.5059  1.6646 -2.6149
 1735TIP3    H226697   6.762   1.220   0.262  0.3439 -0.2365 -0.5436
 1736TIP3   OH226698   6.675   5.134  15.632 -0.2617  0.2553  0.0787
 1736TIP3    H126699   6.753   5.145  15.578  1.3304  0.1943  2.2643
 1736TIP3    H226700   6.623   5.068  15.585  0.9482  0.3252 -1.4316
 1737TIP3   OH226701   5.312   1.376  11.464 -0.0291 -0.0715  0.1505
 1737TIP3    H126702   5.342   1.347  11.550  1.3526  2.2446  0.5221
 1737TIP3    H226703   5.283   1.466  11.477  1.0979  0.6681 -1.9726
 1738TIP3   OH226704   1.931   0.626   1.803  0.7760 -0.6545  0.2788
 1738TIP3    H126705   1.924   0.586   1.717 -1.0248  0.0533  0.0482
 1738TIP3    H226706   2.009   0.588   1.842  0.8793 -1.9614 -1.1566
 1739TIP3   OH226707   4.548   2.698  14.774 -0.1564 -0.8756 -0.1266
 1739TIP3    H126708   4.629   2.654  14.800 -0.0072 -0.4232  0.1748
 1739TIP3    H226709   4.568   2.737  14.689 -0.7586 -2.6736 -1.1628
 1740TIP3   OH226710   0.325   6.239  11.056 -0.1343 -0.3954 -0.3190
 1740TIP3    H126711   0.382   6.220  11.130 -0.4162 -0.4758 -0.1191
 1740TIP3    H226712   0.237   6.216  11.087 -0.1625 -1.1846 -0.9464
 1741TIP3   OH226713   4.412   1.091  14.927  0.3263  0.1149 -0.7667
 1741TIP3    H126714   4.491   1.046  14.959  1.3706  2.7913  0.7551
 1741TIP3    H226715   4.423   1.181  14.956 -3.3750  0.6059 -0.4680
 1742TIP3   OH226716   3.266   2.859  12.457  0.1300  0.8588 -0.0399
 1742TIP3    H126717   3.321   2.891  12.385 -0.5520 -0.5437 -1.2468
 1742TIP3    H226718   3.306   2.775  12.482 -0.6291  0.5105  0.0269
 1743TIP3   OH226719   1.955   4.364  11.619 -0.2828 -0.3047  0.0643
 1743TIP3    H126720   2.000   4.384  11.536 -1.0962  0.2087 -0.2620
 1743TIP3    H226721   1.989   4.429  11.680 -0.0656 -0.3577  0.0018
 1744TIP3   OH226722   5.283   2.810   2.216 -0.0027 -0.3389 -0.1985
 1744TIP3    H126723   5.305   2.889   2.266  1.6350 -0.9942  0.1817
 1744TIP3    H226724   5.202   2.778   2.255  0.7330 -0.3127  1.4121
 1745TIP3   OH226725   4.921   5.916  12.170  0.0595  0.5225  0.0901
 1745TIP3    H126726   4.992   5.930  12.108  0.4846 -0.8300  0.2353
 1745TIP3    H226727   4.843   5.905  12.116  0.2641  0.2926 -0.1590
 1746TIP3   OH226728   4.827   3.870   3.976 -0.0984 -0.0690  0.4278
 1746TIP3    H126729   4.854   3.954   3.937  0.3338 -0.4245 -0.0495
 1746TIP3    H226730   4.793   3.820   3.902  1.3563 -1.0081  0.3606
 1747TIP3   OH226731   3.697   5.690   5.103  0.0184 -0.0950  0.0461
 1747TIP3    H126732   3.716   5.770   5.054 -0.1979 -1.0305 -1.6291
 1747TIP3    H226733   3.617   5.710   5.152  0.6299  1.0904  0.5929
 1748TIP3   OH226734   6.746   6.318  15.652  0.2854 -0.1043 -0.0030
 1748TIP3    H126735   6.772   6.281  15.736  1.0284 -0.6969 -0.4806
 1748TIP3    H226736   6.829   6.335  15.606 -0.1140 -0.0700 -0.7314
 1749TIP3   OH226737   3.763   6.662  12.655  0.2480  0.5739 -0.0561
 1749TIP3    H126738   3.816   6.678  12.733  1.1250  2.2819 -0.9333
 1749TIP3    H226739   3.673   6.660  12.687  0.7085 -0.8495  1.2559
 1750TIP3   OH226740   1.503   6.074   5.328  0.2753  0.6406  0.3974
 1750TIP3    H126741   1.486   6.049   5.238  0.6982  0.7158  0.2950
 1750TIP3    H226742   1.444   6.020   5.380  0.7853 -0.1603  0.1474
 1751TIP3   OH226743   1.546   2.630   2.059  0.5417 -0.0106  0.2733
 1751TIP3    H126744   1.480   2.606   1.995  1.0917 -0.2456 -0.2188
 1751TIP3    H226745   1.614   2.563   2.050  2.1300  1.6786 -1.1661
 1752TIP3   OH226746   2.729   3.083  13.511 -0.1028 -0.0707 -0.1728
 1752TIP3    H126747   2.714   3.019  13.580 -1.2819 -0.2387 -0.5666
 1752TIP3    H226748   2.641   3.109  13.483  0.3312  1.8597  0.1124
 1753TIP3   OH226749   0.750   0.200  16.889  0.5191 -0.1498 -1.1184
 1753TIP3    H126750   0.792   0.165  16.811 -1.7186 -0.0460 -2.4376
 1753TIP3    H226751   0.759   0.131  16.955 -1.8910 -2.4437 -2.9959
 1754TIP3   OH226752   1.426   0.733   1.869  0.4462  0.9075 -1.0319
 1754TIP3    H126753   1.503   0.681   1.844 -1.1677 -1.7960 -0.8287
 1754TIP3    H226754   1.366   0.727   1.795 -1.1871 -0.5688  0.3024
 1755TIP3   OH226755   5.227   6.193  15.325  0.3798  0.2767  0.3177
 1755TIP3    H126756   5.244   6.100  15.341  1.3258  0.0499 -1.6315
 1755TIP3    H226757   5.284   6.239  15.386  1.3262 -0.4657  0.0228
 1756TIP3   OH226758   5.608   6.573   0.811 -0.3893  0.9142  0.1284
 1756TIP3    H126759   5.655   6.633   0.754  1.3509  1.2308  1.7938
 1756TIP3    H226760   5.674   6.510   0.839 -1.7981 -0.7913 -0.2329
 1757TIP3   OH226761   3.558   3.146  13.562  0.3512  0.1292  0.8569
 1757TIP3    H126762   3.574   3.135  13.656  0.8976 -1.6521  0.5898
 1757TIP3    H226763   3.501   3.073  13.539 -2.1711  2.1512  0.3090
 1758TIP3   OH226764   4.286   0.424   0.126 -0.2334 -0.1935  0.1711
 1758TIP3    H126765   4.201   0.465   0.110 -0.7545  0.0054  2.9253
 1758TIP3    H226766   4.349   0.495   0.114 -0.7905  0.5125  1.2321
 1759TIP3   OH226767   2.841   2.031  11.290  0.2305 -1.4793  0.1073
 1759TIP3    H126768   2.776   2.097  11.268 -1.5239 -3.3870 -0.8242
 1759TIP3    H226769   2.879   2.060  11.372 -1.1278  0.1845  0.1906
 1760TIP3   OH226770   3.872   3.491   0.864 -0.2531 -0.0219  0.5982
 1760TIP3    H126771   3.878   3.586   0.851  1.0237 -0.3400 -1.6970
 1760TIP3    H226772   3.807   3.462   0.800 -0.5765 -0.7338  1.2289
 1761TIP3   OH226773   0.862   4.313   2.862 -0.4684 -0.3250 -0.2151
 1761TIP3    H126774   0.885   4.363   2.784 -1.4705  0.0056 -0.3116
 1761TIP3    H226775   0.773   4.341   2.883 -0.5444 -1.0809  0.5169
 1762TIP3   OH226776   1.625   4.098   1.825 -0.0813  0.0244 -0.0840
 1762TIP3    H126777   1.590   4.113   1.913 -1.2649 -2.3264 -0.0533
 1762TIP3    H226778   1.566   4.146   1.767  0.4393  1.2208  0.3532
 1763TIP3   OH226779   6.741   1.417   4.578  0.0546  0.0902  0.5462
 1763TIP3    H126780   6.683   1.403   4.503  1.7488  0.2820 -0.8531
 1763TIP3    H226781   6.718   1.504   4.610  0.0011  0.4328 -0.3973
 1764TIP3   OH226782   3.553   2.076  15.934 -0.1597  0.3302 -0.2817
 1764TIP3    H126783   3.638   2.112  15.907  0.0290 -0.0637 -0.2216
 1764TIP3    H226784   3.532   2.122  16.014 -0.7804  1.6009 -1.1465
 1765TIP3   OH226785   4.099   5.004   2.710 -0.3499 -0.3167  0.2487
 1765TIP3    H126786   4.166   5.073   2.716  1.4847 -1.9728 -0.3501
 1765TIP3    H226787   4.054   5.007   2.795  0.6025  0.7028  0.7394
 1766TIP3   OH226788   6.064   2.741   5.233  0.0312  0.0106  0.5459
 1766TIP3    H126789   6.128   2.810   5.215 -1.2526  1.9116  2.6685
 1766TIP3    H226790   6.117   2.664   5.254  1.6210  1.2324  1.2655
 1767TIP3   OH226791   4.747   2.038   0.047 -0.2261  0.4245  0.9232
 1767TIP3    H126792   4.805   2.064   0.117 -0.8489  1.2579  1.1392
 1767TIP3    H226793   4.715   1.951   0.073  0.5775  0.1430  0.9991
 1768TIP3   OH226794   5.267   4.667  15.227 -0.2672  0.3564  0.6896
 1768TIP3    H126795   5.181   4.709  15.226 -1.4462 -1.8941  0.2070
 1768TIP3    H226796   5.300   4.677  15.138 -0.3240  0.6278  0.6975
 1769TIP3   OH226797   4.319   4.380   0.006 -0.4835  0.1075 -0.8479
 1769TIP3    H126798   4.351   4.467   0.029  1.1270 -0.5655 -0.3491
 1769TIP3    H226799   4.285   4.344   0.088 -0.2307 -0.0889 -0.8274
 1770TIP3   OH226800   4.420   6.642  11.565  0.4439 -0.0342  0.8982
 1770TIP3    H126801   4.375   6.609  11.487  1.4936  0.1598  0.1850
 1770TIP3    H226802   4.456   6.563  11.606 -0.8581 -0.2419  1.7120
 1771TIP3   OH226803   4.226   2.469   5.406  0.0294  0.1072 -0.0525
 1771TIP3    H126804   4.263   2.385   5.432 -2.4709 -1.2970 -0.7078
 1771TIP3    H226805   4.238   2.525   5.482  0.2779 -1.3600  1.0256
 1772TIP3   OH226806   1.727   6.120   5.094 -0.8013 -0.8290 -0.0242
 1772TIP3    H126807   1.697   6.167   5.016  1.8610  0.7187 -0.2303
 1772TIP3    H226808   1.745   6.188   5.158  1.2721 -1.6566  0.3642
 1773TIP3   OH226809   1.871   6.337   6.146 -0.9874  0.2616 -0.5312
 1773TIP3    H126810   1.851   6.318   6.237  0.0917 -1.4297 -0.6097
 1773TIP3    H226811   1.941   6.402   6.150 -0.4996 -0.2781 -0.1258
 1774TIP3   OH226812   1.766   0.984  10.293  0.0088  0.2347 -0.1223
 1774TIP3    H126813   1.689   1.016  10.341 -0.7599 -1.2786 -0.2727
 1774TIP3    H226814   1.840   1.028  10.334 -0.8306  0.7561  0.8883
 1775TIP3   OH226815   5.648   0.717   1.677 -1.0218 -0.1642 -0.0878
 1775TIP3    H126816   5.668   0.683   1.765  0.6059  0.8320 -0.0327
 1775TIP3    H226817   5.732   0.749   1.644 -1.4577 -1.1194 -2.3069
 1776TIP3   OH226818   0.787   3.620   1.247 -0.1264 -0.2888 -0.2806
 1776TIP3    H126819   0.807   3.599   1.156  1.9983 -0.6690  0.2285
 1776TIP3    H226820   0.785   3.536   1.292 -1.6025 -0.1427 -0.0148
 1777TIP3   OH226821   2.861   0.761  11.277  0.0520 -0.2683 -0.1039
 1777TIP3    H126822   2.887   0.772  11.186  1.1588  2.4366  0.4319
 1777TIP3    H226823   2.824   0.846  11.302  2.8826  0.2888  2.8453
 1778TIP3   OH226824   2.356   5.904  12.584 -1.3655  0.3638 -0.1219
 1778TIP3    H126825   2.386   5.845  12.516 -2.4314  0.0887 -0.3603
 1778TIP3    H226826   2.332   5.984  12.538 -0.8608  0.6469  0.0915
 1779TIP3   OH226827   4.851   6.003  16.848 -0.0959 -0.3109  0.1394
 1779TIP3    H126828   4.892   6.027  16.765  1.0363  0.9668  1.0222
 1779TIP3    H226829   4.799   5.925  16.828  0.0165  0.0649 -1.7903
 1780TIP3   OH226830   0.746   0.126  13.618  0.3859 -0.0032 -0.2658
 1780TIP3    H126831   0.707   0.206  13.586  0.5312 -0.0558 -0.5784
 1780TIP3    H226832   0.697   0.105  13.697 -1.3369 -0.9706 -1.5188
 1781TIP3   OH226833   1.040   6.820  14.659  0.7259  0.0313 -0.2504
 1781TIP3    H126834   1.088   6.891  14.701  0.9434  0.5904 -1.3894
 1781TIP3    H226835   0.993   6.863  14.587 -1.6681 -0.4422  0.9188
 1782TIP3   OH226836   1.625   1.486  12.309  0.1170 -0.8494  0.0220
 1782TIP3    H126837   1.661   1.420  12.367  1.1560 -0.2603  0.0724
 1782TIP3    H226838   1.695   1.551  12.300 -0.5995 -0.1435 -0.6290
 1783TIP3   OH226839   5.720   0.962  12.305  0.3401 -0.1166  0.0964
 1783TIP3    H126840   5.655   0.897  12.329  1.2574 -1.1980 -0.2616
 1783TIP3    H226841   5.682   1.046  12.331 -0.6892 -0.8279  0.9325
 1784TIP3   OH226842   0.146   3.018   2.424 -0.1791  0.1186 -0.3351
 1784TIP3    H126843   0.130   2.925   2.407 -0.2945 -0.0991  0.8954
 1784TIP3    H226844   0.241   3.028   2.414 -0.0515 -0.3261  0.3883
 1785TIP3   OH226845   4.310   5.463  16.793 -0.5252  0.5404 -0.3091
 1785TIP3    H126846   4.233   5.493  16.841 -1.7946 -0.8646 -1.3570
 1785TIP3    H226847   4.365   5.421  16.860 -1.9947 -0.8879  0.0921
 1786TIP3   OH226848   6.113   4.765   3.556 -0.5864 -0.3399  0.1498
 1786TIP3    H126849   6.185   4.751   3.617 -1.8276 -0.4964  1.6239
 1786TIP3    H226850   6.139   4.718   3.477  1.6360  0.9470  0.0438
 1787TIP3   OH226851   6.057   6.179  11.190  0.0780 -0.1708  0.4234
 1787TIP3    H126852   6.079   6.178  11.283 -0.7497 -0.5071  0.6340
 1787TIP3    H226853   6.044   6.087  11.168 -0.8824 -0.0101  0.2763
 1788TIP3   OH226854   3.655   0.969  15.057 -0.5085 -0.7195 -0.2551
 1788TIP3    H126855   3.583   0.991  15.115  0.5583 -0.3065  0.9741
 1788TIP3    H226856   3.687   0.885  15.090 -1.7445 -1.9854 -2.1347
 1789TIP3   OH226857   1.135   5.202  17.041  0.2863  0.6081 -0.2093
 1789TIP3    H126858   1.121   5.288  17.081 -1.2102  0.7894 -1.0423
 1789TIP3    H226859   1.205   5.215  16.978  1.4165  0.7365  1.0234
 1790TIP3   OH226860   0.298   5.095   1.780  0.0299  0.1531 -0.3643
 1790TIP3    H126861   0.243   5.021   1.805  1.2746 -0.8826 -0.5443
 1790TIP3    H226862   0.269   5.117   1.691 -0.0120 -0.4659 -0.5110
 1791TIP3   OH226863   3.321   3.676  14.631  0.2360  0.6742 -0.0228
 1791TIP3    H126864   3.264   3.753  14.639  2.0326  2.0717 -0.1334
 1791TIP3    H226865   3.403   3.702  14.671  1.0808 -1.0160 -0.5574
 1792TIP3   OH226866   0.177   1.188  16.018  0.2406  0.3535  0.0855
 1792TIP3    H126867   0.217   1.172  15.933  0.4634 -1.6863  0.5079
 1792TIP3    H226868   0.244   1.161  16.081 -0.5285  0.1936  0.8567
 1793TIP3   OH226869   0.875   2.752  15.482 -0.4121 -0.1456 -0.0480
 1793TIP3    H126870   0.861   2.704  15.564 -0.1773 -0.3999 -0.1560
 1793TIP3    H226871   0.821   2.830  15.491  2.2251  1.6463  1.8851
 1794TIP3   OH226872   1.020   2.142  12.195  0.5620  0.3480 -0.2326
 1794TIP3    H126873   0.987   2.054  12.180  0.1199  0.6496 -1.1040
 1794TIP3    H226874   1.025   2.181  12.108  0.2283  1.3697  0.1888
 1795TIP3   OH226875   6.124   4.495   4.269  0.5043 -0.0966 -0.1928
 1795TIP3    H126876   6.033   4.525   4.272 -0.0804 -1.8080  0.2604
 1795TIP3    H226877   6.169   4.561   4.216 -1.4023 -0.2004 -2.0979
 1796TIP3   OH226878   1.807   5.293   0.144  0.5690  0.2729  0.4180
 1796TIP3    H126879   1.865   5.367   0.124  0.4152 -0.2314 -2.2997
 1796TIP3    H226880   1.864   5.227   0.184  1.0129  1.2367  1.4432
 1797TIP3   OH226881   0.707   0.692  16.330  0.2604  0.2115  0.4842
 1797TIP3    H126882   0.788   0.642  16.331  0.3790  0.3974  0.3051
 1797TIP3    H226883   0.639   0.629  16.351  0.3615 -0.1026 -0.1210
 1798TIP3   OH226884   0.967   5.897  11.816  0.4450  0.4999  0.2078
 1798TIP3    H126885   0.942   5.864  11.902 -0.2611 -0.3765 -0.3121
 1798TIP3    H226886   0.918   5.979  11.807  1.5459  1.2882  1.1607
 1799TIP3   OH226887   1.838   6.306  12.286  0.0166  0.0561  0.1220
 1799TIP3    H126888   1.757   6.332  12.331 -0.3321 -0.2868 -0.3040
 1799TIP3    H226889   1.825   6.333  12.196 -0.0430 -0.9076 -0.1705
 1800TIP3   OH226890   3.356   4.886  15.747 -0.4268  0.1171 -0.5681
 1800TIP3    H126891   3.275   4.841  15.722 -1.0022  1.8425 -2.0632
 1800TIP3    H226892   3.396   4.911  15.663  0.9121  0.5610  0.1764
 1801TIP3   OH226893   3.946   0.352   1.403 -0.7797 -0.1344 -0.2210
 1801TIP3    H126894   4.024   0.343   1.349  0.5238  1.7426  1.2400
 1801TIP3    H226895   3.877   0.307   1.353  0.9922 -1.0460 -1.9766
 1802TIP3   OH226896   4.286   4.687  12.811  0.2450  0.9365 -0.5092
 1802TIP3    H126897   4.301   4.640  12.893  0.7682  0.2665 -0.9766
 1802TIP3    H226898   4.282   4.618  12.744  1.5154  1.5689 -1.2749
 1803TIP3   OH226899   1.294   5.222   4.794  0.2334  0.6556  0.0441
 1803TIP3    H126900   1.239   5.292   4.757  0.1486  0.5104 -0.1030
 1803TIP3    H226901   1.353   5.268   4.854  0.5462  0.9266 -0.4686
 1804TIP3   OH226902   3.955   5.895   1.530  0.1750  0.2387 -0.2097
 1804TIP3    H126903   3.884   5.928   1.475 -0.6821  0.7827  1.1714
 1804TIP3    H226904   3.984   5.972   1.579  0.6781 -0.3142  0.3675
 1805TIP3   OH226905   3.987   3.854   3.157 -0.2287 -0.1781  0.3854
 1805TIP3    H126906   4.040   3.888   3.229  0.0017  0.6797 -0.1823
 1805TIP3    H226907   3.928   3.926   3.134 -0.0703 -0.3217 -0.5109
 1806TIP3   OH226908   5.887   6.582   1.353  0.4675 -0.1420  0.1732
 1806TIP3    H126909   5.912   6.648   1.288  0.2840 -0.7920 -0.5834
 1806TIP3    H226910   5.833   6.629   1.416  0.1255  0.3841 -0.4917
 1807TIP3   OH226911   3.091   5.399  14.561 -0.1705  0.6050 -0.2495
 1807TIP3    H126912   3.155   5.336  14.595 -0.7962 -0.3533 -0.7941
 1807TIP3    H226913   3.098   5.474  14.620  0.6428  0.0566  0.3820
 1808TIP3   OH226914   3.592   5.925   4.252 -0.1987  0.3215  0.2235
 1808TIP3    H126915   3.587   5.852   4.314  0.1490  0.9700  1.0401
 1808TIP3    H226916   3.511   5.918   4.201  0.7178 -1.7708 -1.0510
 1809TIP3   OH226917   3.666   3.039   5.331  0.5510 -0.3059 -0.0742
 1809TIP3    H126918   3.606   2.967   5.348 -1.1324  0.5347 -1.9596
 1809TIP3    H226919   3.652   3.061   5.238  1.8129  1.7051  0.1279
 1810TIP3   OH226920   5.468   0.684  10.991 -0.5744  0.5590  0.0976
 1810TIP3    H126921   5.513   0.679  10.907  0.9681 -0.6381  0.9520
 1810TIP3    H226922   5.453   0.592  11.016  0.2518  0.8344  1.7625
 1811TIP3   OH226923   5.928   4.694   2.641  0.2175 -0.5688 -0.4239
 1811TIP3    H126924   5.927   4.789   2.633  0.3169 -0.4736  0.5255
 1811TIP3    H226925   5.966   4.678   2.727  0.9919 -1.5014 -0.9189
 1812TIP3   OH226926   0.875   1.118  10.473 -0.1012 -0.1781  0.4596
 1812TIP3    H126927   0.913   1.094  10.389  0.3840 -1.4178  1.0173
 1812TIP3    H226928   0.869   1.036  10.521  3.2234  0.9096  3.1259
 1813TIP3   OH226929   5.356   0.815  14.572  0.4026 -0.0460 -0.3608
 1813TIP3    H126930   5.361   0.758  14.649 -0.5631  1.3870  0.8239
 1813TIP3    H226931   5.332   0.901  14.607  1.0085  0.9166 -2.1678
 1814TIP3   OH226932   0.273   1.692  12.279 -0.0148 -0.2115 -0.5162
 1814TIP3    H126933   0.346   1.755  12.274 -0.0525 -0.2428 -2.5926
 1814TIP3    H226934   0.196   1.743  12.254 -0.3431 -0.6748 -0.4501
 1815TIP3   OH226935   4.579   2.740   3.444  0.0005 -0.2529 -0.0064
 1815TIP3    H126936   4.652   2.729   3.505  1.1040 -0.5367 -1.3303
 1815TIP3    H226937   4.502   2.747   3.501  0.8460 -1.5147  1.3941
 1816TIP3   OH226938   5.214   2.483  14.258  0.0702  0.0787 -0.1863
 1816TIP3    H126939   5.306   2.496  14.284  0.6730 -1.8718 -1.1727
 1816TIP3    H226940   5.197   2.553  14.195  0.5165  1.0989  0.7785
 1817TIP3   OH226941   4.772   4.631  12.729 -0.2335  0.4132 -0.3353
 1817TIP3    H126942   4.811   4.565  12.787 -0.1227  0.2497 -0.5948
 1817TIP3    H226943   4.838   4.644  12.661 -0.9320 -0.3902 -1.1736
 1818TIP3   OH226944   0.284   4.980  11.887  0.2811  0.3108  0.2758
 1818TIP3    H126945   0.212   4.933  11.845  2.1735 -2.4288 -0.1943
 1818TIP3    H226946   0.293   5.060  11.835 -1.9558  0.4321 -0.0329
 1819TIP3   OH226947   4.538   6.366  13.528 -0.4270  0.0487  0.0368
 1819TIP3    H126948   4.594   6.290  13.510  1.6248  0.8618  2.3182
 1819TIP3    H226949   4.595   6.441  13.510 -2.7379  1.2131 -3.2081
 1820TIP3   OH226950   5.773   6.527  17.032  0.3590  0.2958  0.5496
 1820TIP3    H126951   5.795   6.588  16.961  0.7673 -1.3001 -0.7466
 1820TIP3    H226952   5.841   6.541  17.098  0.2383  1.4763  0.4395
 1821TIP3   OH226953   3.019   4.214  13.180  0.2308 -0.1176 -0.3800
 1821TIP3    H126954   3.007   4.273  13.254  0.9819 -1.0649  0.5375
 1821TIP3    H226955   2.997   4.127  13.214 -0.7437 -0.3995 -1.6660
 1822TIP3   OH226956   5.985   1.320  12.304  0.1037  0.0806 -0.6972
 1822TIP3    H126957   5.929   1.285  12.373  0.0717  1.9754  0.3052
 1822TIP3    H226958   6.073   1.320  12.342  1.0130 -3.3192 -2.4221
 1823TIP3   OH226959   1.461   5.300   4.364 -0.7484 -0.9196  0.2338
 1823TIP3    H126960   1.462   5.213   4.403  0.8101 -0.1320  2.1655
 1823TIP3    H226961   1.549   5.334   4.380 -1.1891  0.8666 -0.8390
 1824TIP3   OH226962   3.836   1.310   4.317  0.2189  0.3456  0.1439
 1824TIP3    H126963   3.929   1.291   4.324  0.0759 -0.5050 -0.1296
 1824TIP3    H226964   3.795   1.226   4.297 -0.7443  0.4691  1.4533
 1825TIP3   OH226965   3.424   2.915   4.305  0.3651 -0.8478 -0.4708
 1825TIP3    H126966   3.405   2.932   4.397  1.2463 -0.5303 -0.3468
 1825TIP3    H226967   3.405   2.998   4.261  2.1197 -0.2843 -0.2390
 1826TIP3   OH226968   3.863   4.298  13.600  0.1687  0.0445  0.6927
 1826TIP3    H126969   3.935   4.357  13.581 -0.8711  1.3839  0.7502
 1826TIP3    H226970   3.829   4.327  13.685  0.8765 -1.9394  1.7290
 1827TIP3   OH226971   2.170   5.964   5.806  0.0843  0.0256 -0.6700
 1827TIP3    H126972   2.170   5.975   5.901  0.4361  0.3254 -0.7004
 1827TIP3    H226973   2.084   5.996   5.777 -0.3275 -0.8072 -0.3754
 1828TIP3   OH226974   3.374   4.110  14.630 -0.2565 -0.6780  0.1450
 1828TIP3    H126975   3.379   4.143  14.719 -2.0468 -0.4373  0.1938
 1828TIP3    H226976   3.465   4.098  14.604  0.3245  0.1028  1.6752
 1829TIP3   OH226977   1.650   3.789   6.460 -0.2989 -0.3949  0.3976
 1829TIP3    H126978   1.706   3.711   6.460  0.0727 -0.1516  1.5981
 1829TIP3    H226979   1.695   3.850   6.402 -1.7395 -1.7942 -2.4132
 1830TIP3   OH226980   6.644   6.476   3.281 -0.2899  0.7940  0.3239
 1830TIP3    H126981   6.638   6.386   3.250  1.3594  0.6170  0.4205
 1830TIP3    H226982   6.659   6.469   3.375 -0.5250  1.1852  0.3935
 1831TIP3   OH226983   5.379   0.447   4.577  0.2399  0.3763  0.0458
 1831TIP3    H126984   5.371   0.531   4.623  1.9217  0.0994  0.9277
 1831TIP3    H226985   5.473   0.431   4.573 -0.0036 -0.9318 -1.1393
 1832TIP3   OH226986   0.346   2.904  10.947  0.2483 -0.4304  0.2434
 1832TIP3    H126987   0.348   2.828  10.889 -2.9259 -0.7747  0.4271
 1832TIP3    H226988   0.409   2.882  11.016 -0.5784 -2.9484  0.3076
 1833TIP3   OH226989   4.258   5.653   4.913  0.2063 -0.6130  0.2453
 1833TIP3    H126990   4.270   5.683   5.003  1.7297 -0.1138 -0.0935
 1833TIP3    H226991   4.272   5.558   4.917 -2.0117 -0.9576  0.8846
 1834TIP3   OH226992   4.562   0.649   2.611 -0.2234  0.0712 -0.2158
 1834TIP3    H126993   4.613   0.661   2.531 -0.0958 -1.4349 -0.3768
 1834TIP3    H226994   4.625   0.616   2.675 -0.8795 -1.3995 -0.2980
 1835TIP3   OH226995   1.521   5.485  16.040 -0.5335 -0.1967  0.2995
 1835TIP3    H126996   1.457   5.418  16.066 -0.1878 -0.0096  1.7318
 1835TIP3    H226997   1.565   5.508  16.122  1.1898 -0.1306 -0.6045
 1836TIP3   OH226998   6.545   0.339   1.920  0.7547  0.5598  0.4891
 1836TIP3    H126999   6.466   0.285   1.924  0.8613  0.4582  3.0523
 1836TIP3    H227000   6.597   0.301   1.849 -1.8937  1.3273 -2.0701
 1837TIP3   OH227001   1.333   5.448  14.165 -0.6591 -0.8247  0.4373
 1837TIP3    H127002   1.310   5.435  14.073 -0.2393 -2.8553  0.5855
 1837TIP3    H227003   1.326   5.361  14.205  3.2340 -0.8949  1.3794
 1838TIP3   OH227004   1.401   2.748  16.264 -0.4743  0.2864 -0.0351
 1838TIP3    H127005   1.417   2.837  16.234 -3.1271 -0.0235 -2.8513
 1838TIP3    H227006   1.460   2.694  16.212  0.1668  0.2257  0.7187
 1839TIP3   OH227007   5.806   3.726   5.883 -0.3990  0.5577 -0.1586
 1839TIP3    H127008   5.788   3.767   5.967 -0.4430  0.6919 -0.2346
 1839TIP3    H227009   5.867   3.786   5.839  0.8835 -0.2636  0.4258
 1840TIP3   OH227010   1.168   6.582  11.860 -0.1754  0.3596  0.0912
 1840TIP3    H127011   1.201   6.500  11.895 -0.1309  1.0684  1.8143
 1840TIP3    H227012   1.243   6.622  11.815 -0.5084 -1.0446 -1.8155
 1841TIP3   OH227013   5.106   4.305   4.239  0.4714  0.5363 -0.1027
 1841TIP3    H127014   5.109   4.301   4.143  0.4091 -0.6533 -0.0595
 1841TIP3    H227015   5.026   4.353   4.258  0.7779  1.2911 -0.6460
 1842TIP3   OH227016   5.820   1.550   5.917  0.1872 -0.5242  0.0314
 1842TIP3    H127017   5.770   1.523   5.840 -1.5654  2.3314 -0.0101
 1842TIP3    H227018   5.753   1.571   5.982  1.4968  0.1404  1.2078
 1843TIP3   OH227019   3.951   6.630   2.523  0.0164 -0.2594  0.1600
 1843TIP3    H127020   3.999   6.692   2.578  0.5009  0.0089 -0.5609
 1843TIP3    H227021   3.905   6.573   2.586 -1.4363  1.5734  0.8524
 1844TIP3   OH227022   1.998   6.061  15.110 -0.2543  0.4185  0.6364
 1844TIP3    H127023   1.986   6.024  15.023 -0.2382 -0.5094  1.0259
 1844TIP3    H227024   2.093   6.068  15.121 -0.2567  0.5581  0.5775
 1845TIP3   OH227025   3.402   0.894  16.715 -0.8407 -0.0819  0.3811
 1845TIP3    H127026   3.474   0.831  16.706  0.5939  1.0640  2.8126
 1845TIP3    H227027   3.446   0.977  16.733 -2.7796  0.7270  1.6258
 1846TIP3   OH227028   6.729   6.440   2.240 -0.3754 -0.3257 -0.1054
 1846TIP3    H127029   6.720   6.535   2.238  2.1284 -0.0229  0.4526
 1846TIP3    H227030   6.640   6.408   2.260 -1.2051  1.8747 -0.0212
 1847TIP3   OH227031   4.417   2.529  14.278  0.0098  0.2977  0.0482
 1847TIP3    H127032   4.349   2.503  14.340  0.1541 -1.4938 -0.4823
 1847TIP3    H227033   4.497   2.535  14.331  1.0053 -4.9743 -0.3042
 1848TIP3   OH227034   0.639   3.994  15.541 -0.5439  0.2273 -0.2331
 1848TIP3    H127035   0.702   3.949  15.596 -1.2204 -0.8054 -0.2715
 1848TIP3    H227036   0.575   4.031  15.602 -1.3773 -1.0459 -0.2951
 1849TIP3   OH227037   0.554   5.938   6.493 -0.3961  0.3562 -0.5456
 1849TIP3    H127038   0.579   6.020   6.535  1.4089 -0.0353 -0.7717
 1849TIP3    H227039   0.487   5.963   6.429 -1.4770  1.2925  0.8963
 1850TIP3   OH227040   5.661   0.845   0.082 -0.1921 -0.2029 -0.3843
 1850TIP3    H127041   5.587   0.826   0.140  0.5208  0.0548  0.6282
 1850TIP3    H227042   5.652   0.939   0.062  0.5132  0.1234  0.7205
 1851TIP3   OH227043   5.266   6.473   0.746  0.2793 -0.2886 -0.0049
 1851TIP3    H127044   5.270   6.442   0.836  2.3595 -0.5395 -0.1329
 1851TIP3    H227045   5.338   6.427   0.702 -2.1264 -2.0392 -2.4369
 1852TIP3   OH227046   6.775   5.198  11.298  0.7690  0.5580  0.5076
 1852TIP3    H127047   6.769   5.181  11.204  1.3456  0.0382  0.5560
 1852TIP3    H227048   6.817   5.284  11.305  0.2271  0.8490  0.2915
 1853TIP3   OH227049   0.388   5.900  16.037 -0.4035 -0.5088 -0.6298
 1853TIP3    H127050   0.431   5.984  16.026 -1.3042  0.0368 -0.0524
 1853TIP3    H227051   0.460   5.838  16.050  0.1877  0.5831  1.6356
 1854TIP3   OH227052   0.383   5.716   1.651 -0.1593 -0.1670  0.2570
 1854TIP3    H127053   0.301   5.715   1.700  0.0200  1.1281  0.6456
 1854TIP3    H227054   0.416   5.626   1.655 -0.9804 -0.4409  1.0907
 1855TIP3   OH227055   6.077   0.746   3.073  0.5580  0.4666  0.2962
 1855TIP3    H127056   6.019   0.759   2.998 -0.2266  2.9336  1.1969
 1855TIP3    H227057   6.026   0.691   3.133 -1.0290  2.6830  1.1190
 1856TIP3   OH227058   4.441   6.000   1.426  0.1016 -0.3985 -0.1422
 1856TIP3    H127059   4.469   6.086   1.394 -0.8824 -0.2217 -0.5606
 1856TIP3    H227060   4.451   6.006   1.521 -1.6752  0.8616  0.0213
 1857TIP3   OH227061   2.457   2.284   3.547  0.4913  0.2014 -0.0175
 1857TIP3    H127062   2.399   2.361   3.546  0.4174  0.1591 -1.6312
 1857TIP3    H227063   2.447   2.248   3.636 -0.7627  1.0823  0.2358
 1858TIP3   OH227064   4.713   5.698  12.285 -0.3352 -0.1285 -0.1294
 1858TIP3    H127065   4.729   5.792  12.281 -1.8070  0.0970 -1.3288
 1858TIP3    H227066   4.660   5.679  12.208 -3.6082 -1.2142  2.2011
 1859TIP3   OH227067   5.241   5.984   1.671 -0.2825 -0.2808 -0.0435
 1859TIP3    H127068   5.170   5.923   1.694  0.7231 -0.6543  2.4626
 1859TIP3    H227069   5.230   6.057   1.732  1.2537 -0.2028  0.1825
 1860TIP3   OH227070   4.280   3.167   1.201 -0.2433  0.1550 -0.4259
 1860TIP3    H127071   4.321   3.230   1.260 -1.6467  2.9877 -2.2668
 1860TIP3    H227072   4.196   3.147   1.241  0.2269 -0.6300  0.1885
 1861TIP3   OH227073   5.707   6.732   0.598  0.3747  0.8880 -0.2187
 1861TIP3    H127074   5.696   6.824   0.624  1.2166  0.8252  0.4371
 1861TIP3    H227075   5.747   6.737   0.511  1.7109  1.1913  0.3755
 1862TIP3   OH227076   4.503   1.107   2.130  0.0470 -0.4075 -0.4321
 1862TIP3    H127077   4.463   1.087   2.214  0.0468  1.5220  0.0580
 1862TIP3    H227078   4.543   1.193   2.141  1.3728 -0.7706 -1.9508
 1863TIP3   OH227079   5.556   6.736   3.162 -0.3564 -0.1841 -0.0296
 1863TIP3    H127080   5.582   6.722   3.253 -1.5344 -1.1436  0.1684
 1863TIP3    H227081   5.618   6.683   3.111 -0.5366 -0.7220  0.3023
 1864TIP3   OH227082   4.263   2.586  15.602  0.0089  0.3121  0.1348
 1864TIP3    H127083   4.181   2.633  15.619  1.2557  2.1125  1.6115
 1864TIP3    H227084   4.264   2.515  15.666 -0.9184 -0.4988 -0.7095
 1865TIP3   OH227085   2.029   4.917  10.557 -0.0171  0.4650 -0.3437
 1865TIP3    H127086   2.017   4.924  10.463 -0.3105 -0.1555 -0.3580
 1865TIP3    H227087   2.072   4.833  10.570 -1.4036 -0.1916  0.1834
 1866TIP3   OH227088   6.058   1.930  16.810  0.0611  0.2257  0.2597
 1866TIP3    H127089   6.060   2.024  16.795 -1.7461  0.7382  2.5818
 1866TIP3    H227090   6.134   1.913  16.865  1.7829 -0.1874 -2.0869
 1867TIP3   OH227091   1.061   0.302   0.816  0.7468 -0.0725  0.0653
 1867TIP3    H127092   0.967   0.319   0.808  0.3271 -1.3314  1.8132
 1867TIP3    H227093   1.102   0.376   0.771 -1.0605  0.3339 -1.0307
 1868TIP3   OH227094   0.241   5.035  17.085  1.0540  0.0649 -0.1116
 1868TIP3    H127095   0.191   4.956  17.105  0.0172  0.3895 -1.2936
 1868TIP3    H227096   0.317   5.030  17.143 -1.1551  0.4201  3.0713
 1869TIP3   OH227097   5.492   6.695  14.753  0.0042  0.2160  0.1492
 1869TIP3    H127098   5.470   6.768  14.811  0.1169  0.7411 -0.4451
 1869TIP3    H227099   5.467   6.617  14.801  1.7819  0.5170  1.6652
 1870TIP3   OH227100   0.738   5.050  11.748 -0.5789  0.5562 -0.0881
 1870TIP3    H127101   0.772   5.073  11.835 -1.4377  2.4099 -0.1991
 1870TIP3    H227102   0.655   5.006  11.765  0.0616 -0.6407  0.0558
 1871TIP3   OH227103   2.810   4.874  11.007 -0.0413 -0.4559  0.5963
 1871TIP3    H127104   2.800   4.904  10.917 -1.1061 -1.0867  0.4902
 1871TIP3    H227105   2.794   4.952  11.060  1.8441  0.2193  0.2363
 1872TIP3   OH227106   2.571   2.297   5.173 -0.5576 -0.2736 -0.3136
 1872TIP3    H127107   2.492   2.248   5.196 -0.7353  0.1305 -0.0501
 1872TIP3    H227108   2.591   2.271   5.083 -0.6478 -0.8276 -0.1735
 1873TIP3   OH227109   6.345   3.234   5.240  0.0346 -0.0103  0.2054
 1873TIP3    H127110   6.294   3.200   5.313  0.7055  0.8480  1.1083
 1873TIP3    H227111   6.284   3.235   5.166  0.0358 -3.3259  0.0228
 1874TIP3   OH227112   6.161   5.900  12.653  0.0200  0.1311 -0.3833
 1874TIP3    H127113   6.197   5.930  12.570 -0.7823 -1.9414 -1.5558
 1874TIP3    H227114   6.074   5.941  12.658 -0.1973 -0.2521 -0.9103
 1875TIP3   OH227115   0.937   1.532   5.628  0.3450  0.2869  0.2829
 1875TIP3    H127116   0.983   1.610   5.597 -1.0183  0.3080 -1.9552
 1875TIP3    H227117   0.850   1.539   5.590  0.0335 -2.1102  0.3796
 1876TIP3   OH227118   4.601   6.087  16.988  0.2881 -0.1375  0.2410
 1876TIP3    H127119   4.691   6.108  16.961 -0.1651  0.9429 -0.5109
 1876TIP3    H227120   4.553   6.078  16.905 -0.9564  2.4338  0.5890
 1877TIP3   OH227121   4.661   4.550  12.278  0.3133 -0.4716  0.0327
 1877TIP3    H127122   4.696   4.502  12.354  0.1222 -0.5862  0.0473
 1877TIP3    H227123   4.739   4.588  12.236  0.4090 -0.3156  0.3495
 1878TIP3   OH227124   2.473   4.269  16.895  0.2838 -0.9059 -0.4792
 1878TIP3    H127125   2.518   4.195  16.853  0.3385 -1.6571  0.8400
 1878TIP3    H227126   2.535   4.341  16.892  0.6280 -1.2153 -0.8586
 1879TIP3   OH227127   0.582   4.958   0.670 -0.7274 -0.4274 -0.5942
 1879TIP3    H127128   0.618   5.046   0.662 -0.7379 -0.4798 -1.2681
 1879TIP3    H227129   0.577   4.943   0.765  0.3234 -0.1368 -0.4752
 1880TIP3   OH227130   0.412   1.825   5.993 -0.0051 -0.1197 -0.2415
 1880TIP3    H127131   0.400   1.864   6.079  0.3273 -2.8919  1.1439
 1880TIP3    H227132   0.333   1.772   5.980 -0.2174  0.5194 -1.8429
 1881TIP3   OH227133   2.169   4.121   1.725  0.4237 -0.0306 -0.4569
 1881TIP3    H127134   2.222   4.163   1.794  1.3282 -3.0202  0.8254
 1881TIP3    H227135   2.079   4.128   1.756  0.7223 -0.4031  0.5228
 1882TIP3   OH227136   3.613   3.928  15.944 -0.4518  0.0451 -0.2404
 1882TIP3    H127137   3.655   3.846  15.917  2.1231  0.8477  1.0062
 1882TIP3    H227138   3.621   3.986  15.868 -0.9810 -0.3926 -0.6345
 1883TIP3   OH227139   6.605   6.537  15.539  0.2126  0.2191  0.0989
 1883TIP3    H127140   6.664   6.466  15.563  0.3774  0.1798 -0.3961
 1883TIP3    H227141   6.663   6.604  15.501 -0.2515 -0.8013 -2.6667
 1884TIP3   OH227142   5.954   5.622  12.430 -0.1731  0.2332  0.8740
 1884TIP3    H127143   5.975   5.531  12.450  4.2143  0.2471 -2.3357
 1884TIP3    H227144   5.989   5.671  12.505  0.0792 -0.5513  1.2812
 1885TIP3   OH227145   4.595   1.572  13.666 -0.4242 -0.0946  0.1706
 1885TIP3    H127146   4.581   1.479  13.680 -0.9019 -0.2324 -1.1397
 1885TIP3    H227147   4.518   1.614  13.706 -1.3321 -0.4244 -1.1783
 1886TIP3   OH227148   1.187   1.091   2.433  0.3412 -0.5781 -0.2468
 1886TIP3    H127149   1.193   1.000   2.403  1.0233 -0.4735 -0.4609
 1886TIP3    H227150   1.240   1.092   2.513  0.4848 -0.3358 -0.3446
 1887TIP3   OH227151   5.320   5.954   3.224 -0.5175 -0.2640  0.2465
 1887TIP3    H127152   5.261   5.934   3.297 -0.1542  0.7389  0.8313
 1887TIP3    H227153   5.407   5.952   3.262 -0.2188 -0.8790 -0.4314
 1888TIP3   OH227154   5.940   1.967   0.904 -0.4673 -0.2374 -0.0565
 1888TIP3    H127155   5.858   1.923   0.880 -1.6374  1.8460 -0.0997
 1888TIP3    H227156   5.977   1.997   0.821  0.8468 -1.9150 -0.1294
 1889TIP3   OH227157   3.114   4.318   4.614  0.2687 -0.6269  0.0636
 1889TIP3    H127158   3.120   4.263   4.537  1.3911  0.2358 -0.4929
 1889TIP3    H227159   3.043   4.379   4.595  2.0795  1.1647 -1.3985
 1890TIP3   OH227160   4.802   6.090  11.021  0.0235  0.0807  0.1921
 1890TIP3    H127161   4.890   6.128  11.016  0.1461 -0.2010  0.1896
 1890TIP3    H227162   4.785   6.057  10.932  0.5322 -1.2228  0.5498
 1891TIP3   OH227163   6.411   2.322   1.381 -0.4178 -0.3752  0.1459
 1891TIP3    H127164   6.453   2.293   1.463  1.6363 -1.6985 -1.2737
 1891TIP3    H227165   6.447   2.409   1.365 -0.4147 -0.3282  0.4036
 1892TIP3   OH227166   3.510   4.507   6.126 -0.0448  0.4697  0.3282
 1892TIP3    H127167   3.507   4.565   6.201 -0.4926  2.1922 -0.9602
 1892TIP3    H227168   3.601   4.477   6.121  0.4010  1.7594  0.5048
 1893TIP3   OH227169   2.963   5.307   3.659 -0.3931  0.8823 -0.2989
 1893TIP3    H127170   3.032   5.301   3.593 -1.8725 -0.5344 -1.8378
 1893TIP3    H227171   2.942   5.401   3.662 -0.9329  0.9201 -2.6617
 1894TIP3   OH227172   1.741   6.787  15.845 -0.0285  0.4694 -0.0016
 1894TIP3    H127173   1.687   6.838  15.905  0.6607  0.7603  0.3775
 1894TIP3    H227174   1.825   6.777  15.890  0.5935  0.9381 -1.0324
 1895TIP3   OH227175   2.211   5.298  15.212  0.0315  0.4117 -0.3549
 1895TIP3    H127176   2.171   5.218  15.179 -0.0095  0.1193  0.3903
 1895TIP3    H227177   2.278   5.320  15.148 -0.4700  0.2108 -0.9594
 1896TIP3   OH227178   6.821   6.820  16.638 -0.3750 -0.2350  0.0458
 1896TIP3    H127179   6.807   6.914  16.645 -2.3692 -0.4962  0.0248
 1896TIP3    H227180   6.866   6.796  16.719 -1.3728  0.4993  0.8393
 1897TIP3   OH227181   1.076   5.390   0.221 -0.1116  0.2516 -0.1367
 1897TIP3    H127182   1.063   5.444   0.299  0.3441  1.6472 -0.9795
 1897TIP3    H227183   1.058   5.450   0.148  2.0789 -0.2543 -1.1552
 1898TIP3   OH227184   3.795   3.649  10.831 -0.6620  0.4684  0.7258
 1898TIP3    H127185   3.738   3.718  10.795 -0.8400  1.3538  2.5850
 1898TIP3    H227186   3.738   3.572  10.835 -0.9507  0.6423  0.1373
 1899TIP3   OH227187   1.083   4.352   5.050  0.6426 -0.0135 -0.1917
 1899TIP3    H127188   1.172   4.327   5.026  0.6306 -1.3161  0.9696
 1899TIP3    H227189   1.082   4.348   5.146 -0.4254  0.8802 -0.1380
 1900TIP3   OH227190   4.148   2.084   4.294 -0.9486  0.6085 -0.3785
 1900TIP3    H127191   4.163   2.012   4.233  1.8467  0.0819  0.7872
 1900TIP3    H227192   4.161   2.163   4.241  1.7495  0.1652 -0.4989
 1901TIP3   OH227193   0.255   0.843   0.166  0.4027 -1.1610  0.1526
 1901TIP3    H127194   0.228   0.804   0.083  1.8052 -0.3354 -0.7393
 1901TIP3    H227195   0.350   0.851   0.158  0.4780 -0.4254  1.5685
 1902TIP3   OH227196   0.297   2.413  12.260 -0.5416  0.1446 -0.3116
 1902TIP3    H127197   0.258   2.338  12.304  0.5200 -2.1442 -3.0171
 1902TIP3    H227198   0.379   2.428  12.306 -1.8932  1.5052  1.9098
 1903TIP3   OH227199   3.431   0.564  15.445 -0.1754 -0.1724 -0.3106
 1903TIP3    H127200   3.369   0.551  15.373 -1.8792 -1.9645  1.3444
 1903TIP3    H227201   3.420   0.486  15.500  0.9982  1.1378  1.9207
 1904TIP3   OH227202   0.967   1.887  12.238  0.3535 -0.4434 -0.2269
 1904TIP3    H127203   0.977   1.885  12.333 -1.2560 -2.3419 -0.0503
 1904TIP3    H227204   0.994   1.800  12.209 -0.3904 -0.3172 -1.3695
 1905TIP3   OH227205   4.594   0.926  13.200 -0.2049 -0.2906  0.6395
 1905TIP3    H127206   4.600   0.974  13.283  0.1254  0.0722  0.4101
 1905TIP3    H227207   4.530   0.974  13.149  0.0016 -0.1887  0.4739
 1906TIP3   OH227208   0.072   6.751  13.587  0.0333  0.6006  0.3657
 1906TIP3    H127209   0.064   6.819  13.521 -1.7843 -0.0439 -0.1364
 1906TIP3    H227210   0.083   6.670  13.537  0.1217  0.2740  0.9021
 1907TIP3   OH227211   2.497   2.004  14.009  0.0114  0.0056  0.6198
 1907TIP3    H127212   2.513   2.087  13.965 -0.6636  0.6110  1.4909
 1907TIP3    H227213   2.573   1.950  13.986  0.0371  0.5425 -0.6628
 1908TIP3   OH227214   3.771   2.408  13.755  0.0943  0.2214  0.0439
 1908TIP3    H127215   3.794   2.319  13.780  1.0914  0.7822  1.2260
 1908TIP3    H227216   3.729   2.399  13.669 -1.3631 -1.5502  0.8807
 1909TIP3   OH227217   0.911   1.244   4.681  0.1649  0.3246 -0.2039
 1909TIP3    H127218   0.974   1.212   4.745 -0.3332 -0.1620  0.0459
 1909TIP3    H227219   0.888   1.332   4.711  1.0613  0.6957 -0.5488
 1910TIP3   OH227220   1.317   6.539  14.670 -0.1338  0.4825 -0.5551
 1910TIP3    H127221   1.302   6.490  14.751 -1.7772 -2.7513 -2.5694
 1910TIP3    H227222   1.230   6.546  14.630  0.7612  0.8375 -2.5870
 1911TIP3   OH227223   6.172   4.174   3.902  0.0175  0.4324  0.5515
 1911TIP3    H127224   6.266   4.177   3.919  0.1861 -0.6644 -0.0903
 1911TIP3    H227225   6.146   4.085   3.928 -0.5260  0.1842 -0.7860
 1912TIP3   OH227226   4.491   4.407   0.555 -0.2231 -0.1221  0.6340
 1912TIP3    H127227   4.465   4.328   0.602  2.8120 -1.0699  0.8823
 1912TIP3    H227228   4.472   4.389   0.463 -1.6153 -0.2006  0.9158
 1913TIP3   OH227229   1.229   6.332   4.779 -0.0079  0.4669 -0.2535
 1913TIP3    H127230   1.315   6.289   4.772 -1.0340 -1.5657 -1.1475
 1913TIP3    H227231   1.202   6.347   4.689 -0.7982  0.6445  0.0093
 1914TIP3   OH227232   6.205   5.499   1.118 -0.1221  0.0866 -0.1697
 1914TIP3    H127233   6.152   5.467   1.191 -0.9778 -0.6936 -1.1075
 1914TIP3    H227234   6.244   5.580   1.150 -0.0299 -0.5392  1.3465
 1915TIP3   OH227235   2.588   2.752   3.919 -0.2965  0.1539  1.0342
 1915TIP3    H127236   2.513   2.725   3.866 -0.2962 -0.2041  1.2148
 1915TIP3    H227237   2.582   2.698   3.998  0.9492 -0.8851  0.4427
 1916TIP3   OH227238   0.745   6.098   1.711  0.1054 -0.1702  0.0727
 1916TIP3    H127239   0.763   6.186   1.744 -0.7585 -0.5221  1.6072
 1916TIP3    H227240   0.752   6.105   1.616  1.0982  1.2958  0.2296
 1917TIP3   OH227241   0.140   2.589   0.843 -0.1110 -0.2004 -0.0406
 1917TIP3    H127242   0.046   2.609   0.853 -0.2341 -1.4012  1.5287
 1917TIP3    H227243   0.183   2.649   0.904  0.1347  0.0655 -0.4653
 1918TIP3   OH227244   0.249   4.639   2.276 -0.6569 -0.2964  0.0620
 1918TIP3    H127245   0.242   4.555   2.230 -2.0809 -0.4324  0.4697
 1918TIP3    H227246   0.217   4.621   2.364 -1.1352  0.6934  0.1113
 1919TIP3   OH227247   2.945   3.513   6.374  0.5489 -0.1500  0.1471
 1919TIP3    H127248   2.956   3.608   6.369  0.8202 -0.1959 -0.1718
 1919TIP3    H227249   2.908   3.498   6.461 -1.4147  0.4208 -0.5458
 1920TIP3   OH227250   1.331   5.661   0.962  0.1920  0.1921 -0.0384
 1920TIP3    H127251   1.291   5.577   0.937  0.8087 -0.4395  1.0297
 1920TIP3    H227252   1.423   5.652   0.936 -0.0453  1.1456 -1.3097
 1921TIP3   OH227253   4.031   0.122  12.362  0.3563 -0.0757  0.2066
 1921TIP3    H127254   4.047   0.041  12.411 -1.1441 -0.5739 -0.0740
 1921TIP3    H227255   4.017   0.188  12.430  1.8706  0.0345  0.4396
 1922TIP3   OH227256   4.680   6.489   4.706 -0.0928  0.5617 -0.0482
 1922TIP3    H127257   4.744   6.537   4.653 -0.6415  0.1444 -1.1103
 1922TIP3    H227258   4.624   6.444   4.643 -1.8967  1.4678  0.8062
 1923TIP3   OH227259   3.105   6.100   3.545 -0.2932  0.4363 -0.1696
 1923TIP3    H127260   3.084   6.007   3.535  0.9992  0.1479 -0.4437
 1923TIP3    H227261   3.051   6.143   3.479  0.6264 -0.3776 -1.5345
 1924TIP3   OH227262   0.241   3.122   5.052 -0.1125  0.2597 -0.1710
 1924TIP3    H127263   0.313   3.150   5.109 -0.1958 -0.4886  0.3081
 1924TIP3    H227264   0.173   3.187   5.066  0.3323  0.7809 -0.3682
 1925TIP3   OH227265   6.629   1.097  14.899 -0.3421  0.2546  0.2068
 1925TIP3    H127266   6.681   1.017  14.891  0.0325  0.5029  0.1171
 1925TIP3    H227267   6.602   1.117  14.810 -2.7864 -1.2831  0.5030
 1926TIP3   OH227268   6.845   3.527  12.742  0.3310  0.0300 -0.2957
 1926TIP3    H127269   6.851   3.436  12.713  0.6374  0.3693 -1.3499
 1926TIP3    H227270   6.936   3.553  12.759  0.4163  0.5901 -1.5031
 1927TIP3   OH227271   2.532   4.043   5.805  0.6518  0.5377 -0.1740
 1927TIP3    H127272   2.614   3.998   5.787 -0.5457 -0.6232 -3.4094
 1927TIP3    H227273   2.523   4.038   5.901  2.2140 -3.1969 -0.0554
 1928TIP3   OH227274   6.016   3.998   6.358 -0.1399  0.2948 -0.5050
 1928TIP3    H127275   5.951   4.046   6.308  1.5258 -0.0600 -3.1928
 1928TIP3    H227276   6.057   3.938   6.295 -0.2925 -2.8282  2.0511
 1929TIP3   OH227277   4.442   4.105  15.378  0.2936  0.4172 -0.1333
 1929TIP3    H127278   4.412   4.195  15.391  0.6432  0.6415 -0.8377
 1929TIP3    H227279   4.527   4.114  15.334  0.5866 -0.2450  0.2850
 1930TIP3   OH227280   4.162   0.578   4.338  0.4936 -0.7934  0.2619
 1930TIP3    H127281   4.200   0.529   4.265  1.7357  0.3270  0.1375
 1930TIP3    H227282   4.223   0.650   4.354 -0.6995  0.0430  1.2152
 1931TIP3   OH227283   2.388   0.387  12.393 -0.6504 -0.3226  0.4039
 1931TIP3    H127284   2.458   0.430  12.344 -0.1486 -1.1602  0.3636
 1931TIP3    H227285   2.309   0.407  12.343 -0.2588 -0.4754 -0.3045
 1932TIP3   OH227286   5.197   6.301   5.540  0.6125  0.0944  0.8277
 1932TIP3    H127287   5.289   6.283   5.559  0.2288 -1.3917  1.4201
 1932TIP3    H227288   5.157   6.315   5.626  0.2353  0.4679  0.5948
 1933TIP3   OH227289   4.952   5.760   1.665  0.0660 -0.1197 -0.4667
 1933TIP3    H127290   4.997   5.773   1.748 -0.7026 -1.5690  0.1987
 1933TIP3    H227291   4.923   5.848   1.640  2.2296  0.6914 -0.3702
 1934TIP3   OH227292   1.006   1.399  11.557  0.3772  0.3627  0.2964
 1934TIP3    H127293   1.068   1.340  11.513  0.8870  0.7192  0.5258
 1934TIP3    H227294   0.920   1.361  11.539  0.7225 -0.6795  0.7708
 1935TIP3   OH227295   4.228   2.666   3.003  0.0662 -0.9476 -0.8718
 1935TIP3    H127296   4.244   2.668   3.098 -0.0585 -1.5645 -0.8319
 1935TIP3    H227297   4.286   2.734   2.968 -0.9597  0.3137 -0.2199
 1936TIP3   OH227298   3.531   1.286  13.022 -0.1137 -0.1569  0.3096
 1936TIP3    H127299   3.605   1.266  13.079  1.3790  2.2684 -0.6160
 1936TIP3    H227300   3.570   1.298  12.935 -1.5050  1.6459 -0.1231
 1937TIP3   OH227301   2.233   5.551  14.215 -0.1126  0.5402  0.3002
 1937TIP3    H127302   2.325   5.533  14.193 -0.6962 -1.7062 -0.6058
 1937TIP3    H227303   2.199   5.467  14.246 -1.6272  1.5808  1.5872
 1938TIP3   OH227304   2.809   2.409   4.574 -0.2032  0.2541 -0.1555
 1938TIP3    H127305   2.788   2.331   4.625 -0.5432  0.9612  0.8301
 1938TIP3    H227306   2.740   2.471   4.597  1.8991  2.0516  1.8098
 1939TIP3   OH227307   0.692   1.318  14.298  0.0043  1.1041 -0.0019
 1939TIP3    H127308   0.788   1.310  14.293 -0.0194 -0.0998  0.8271
 1939TIP3    H227309   0.672   1.397  14.249  1.3784  1.0667 -0.6928
 1940TIP3   OH227310   3.568   4.451  14.707 -0.2301  0.0947  0.4672
 1940TIP3    H127311   3.495   4.451  14.770 -0.4567 -1.3948  0.2456
 1940TIP3    H227312   3.622   4.377  14.733 -0.4496 -0.7054 -1.2171
 1941TIP3   OH227313   2.809   3.244   5.601  0.1693 -0.0132  0.1099
 1941TIP3    H127314   2.773   3.193   5.673 -0.0235  0.8532  0.6317
 1941TIP3    H227315   2.847   3.178   5.542 -2.2236 -0.9935 -0.4803
 1942TIP3   OH227316   4.387   6.564  14.136 -0.8093 -0.4519 -0.5204
 1942TIP3    H127317   4.434   6.508  14.197 -0.7629  1.2254  1.0854
 1942TIP3    H227318   4.455   6.604  14.082 -0.8718 -2.1673 -1.9365
 1943TIP3   OH227319   6.731   3.044   1.951 -0.6447  0.3053  0.8512
 1943TIP3    H127320   6.773   3.108   2.009  1.0753 -2.2707  2.7209
 1943TIP3    H227321   6.660   3.007   2.004  0.1483 -1.2062  0.9284
 1944TIP3   OH227322   3.003   2.654  12.884  0.3381  0.6199 -0.3323
 1944TIP3    H127323   3.010   2.593  12.811 -0.2656  1.5392 -1.1882
 1944TIP3    H227324   2.968   2.734  12.845  1.2028  1.5573  0.7321
 1945TIP3   OH227325   1.469   3.551   0.068 -0.7491 -1.0043  0.0350
 1945TIP3    H127326   1.471   3.477   0.006  1.1001  0.3919 -1.7117
 1945TIP3    H227327   1.451   3.627   0.014  2.1523  0.4546  0.9018
 1946TIP3   OH227328   0.290   6.559   0.729  0.0023 -0.6534 -0.3390
 1946TIP3    H127329   0.257   6.569   0.639  0.0154 -2.6176 -0.6091
 1946TIP3    H227330   0.315   6.648   0.755  1.6528 -0.2473 -2.9163
 1947TIP3   OH227331   6.190   6.410   5.128 -0.5091 -0.1923 -0.3708
 1947TIP3    H127332   6.260   6.476   5.133 -0.4114 -0.2896 -0.4692
 1947TIP3    H227333   6.181   6.379   5.218  0.0205 -0.6490 -0.4727
 1948TIP3   OH227334   6.676   0.367   5.198 -0.0472 -0.0065 -0.4076
 1948TIP3    H127335   6.590   0.401   5.173  0.0085 -0.0282 -0.6321
 1948TIP3    H227336   6.663   0.329   5.285  0.1322  1.5884  0.3499
 1949TIP3   OH227337   3.367   3.621  12.686  0.3046  0.3857 -0.0300
 1949TIP3    H127338   3.333   3.533  12.668  0.6142 -0.6741  3.6256
 1949TIP3    H227339   3.462   3.613  12.674  0.3291  0.2060  0.2637
 1950TIP3   OH227340   4.103   2.786   5.835  0.0320  0.0564 -0.1354
 1950TIP3    H127341   4.050   2.801   5.914 -0.0859  1.1829 -0.4181
 1950TIP3    H227342   4.179   2.736   5.867  0.3294  1.0806  0.8271
 1951TIP3   OH227343   6.802   6.528   0.665  0.0655 -0.6103 -0.0389
 1951TIP3    H127344   6.786   6.436   0.640  0.2065 -0.0259 -2.6074
 1951TIP3    H227345   6.882   6.552   0.618 -1.3296  1.4984 -1.5313
 1952TIP3   OH227346   3.413   4.178   5.689 -0.2738  0.1884  0.8955
 1952TIP3    H127347   3.371   4.119   5.751 -1.5531  0.5886  0.4468
 1952TIP3    H227348   3.376   4.154   5.604  1.5406 -0.4347  0.2397
 1953TIP3   OH227349   5.063   1.180   2.338  0.3472 -0.1399  0.6096
 1953TIP3    H127350   5.060   1.180   2.243  0.2533  4.9742  0.3405
 1953TIP3    H227351   5.139   1.126   2.360  1.2738 -0.2302 -2.4156
 1954TIP3   OH227352   3.001   5.942   4.713 -0.0643 -0.7028  0.2934
 1954TIP3    H127353   3.074   5.981   4.761  0.4681 -1.3737  0.0534
 1954TIP3    H227354   2.935   6.011   4.709  0.3849 -0.2246  0.8882
 1955TIP3   OH227355   5.905   6.123  12.971 -0.2195 -0.2508  0.3324
 1955TIP3    H127356   5.841   6.182  13.012 -0.6131 -0.5203  0.1192
 1955TIP3    H227357   5.972   6.181  12.936  0.2468 -0.0202  1.5524
 1956TIP3   OH227358   4.648   3.728  16.822  0.0684 -0.1299 -0.0688
 1956TIP3    H127359   4.618   3.776  16.745 -0.9729  0.5346  0.7046
 1956TIP3    H227360   4.582   3.660  16.835  0.7916 -0.8838 -0.3568
 1957TIP3   OH227361   6.341   3.826   1.761  0.8018  0.7840 -0.3366
 1957TIP3    H127362   6.255   3.838   1.720  0.3335 -0.3722  0.2799
 1957TIP3    H227363   6.375   3.915   1.769 -0.9567  1.4223  0.7471
 1958TIP3   OH227364   6.154   5.647  11.484 -0.3025 -0.0636  0.0976
 1958TIP3    H127365   6.197   5.669  11.567  1.8699 -0.0362 -0.9574
 1958TIP3    H227366   6.081   5.708  11.478 -0.8071 -0.3841  2.1896
 1959TIP3   OH227367   1.408   1.771  11.701  0.1682 -0.0299 -0.1617
 1959TIP3    H127368   1.332   1.770  11.642 -1.1688 -1.4863  1.4647
 1959TIP3    H227369   1.375   1.813  11.781  0.2993 -2.7544  1.4240
 1960TIP3   OH227370   3.604   5.239   2.608  0.2779  0.7761 -0.1601
 1960TIP3    H127371   3.603   5.297   2.531  1.3478  0.5280 -0.3662
 1960TIP3    H227372   3.601   5.299   2.682 -2.2758  1.0004 -0.3473
 1961TIP3   OH227373   0.164   2.212  16.700 -0.0238 -0.1904  0.4944
 1961TIP3    H127374   0.229   2.280  16.718 -0.0694 -0.3687  1.3431
 1961TIP3    H227375   0.088   2.260  16.668 -0.1296  0.1840  1.2834
 1962TIP3   OH227376   5.335   4.228  14.662  0.0560  0.1192 -0.3041
 1962TIP3    H127377   5.277   4.206  14.590 -0.1582  0.3797 -0.2115
 1962TIP3    H227378   5.276   4.245  14.736  0.3016 -1.7688  0.4037
 1963TIP3   OH227379   3.855   6.174  11.750 -0.4103  0.3593  0.3473
 1963TIP3    H127380   3.832   6.156  11.841 -0.1080 -0.0217  0.3470
 1963TIP3    H227381   3.881   6.267  11.750  1.4322 -0.1141  1.0254
 1964TIP3   OH227382   1.530   5.330  11.100  0.3004 -0.4642 -0.3621
 1964TIP3    H127383   1.609   5.374  11.067  0.3571  0.0867  0.4943
 1964TIP3    H227384   1.461   5.357  11.040 -0.0120  2.1330  1.0185
 1965TIP3   OH227385   4.145   3.683   0.696  0.3687 -0.7438  0.0971
 1965TIP3    H127386   4.172   3.591   0.696 -0.3297 -0.9703 -1.4687
 1965TIP3    H227387   4.050   3.680   0.686  0.5571  0.1500 -2.7865
 1966TIP3   OH227388   6.638   5.606   0.586  0.3843 -0.5908  0.1348
 1966TIP3    H127389   6.682   5.641   0.663  0.7949 -1.2612  0.2101
 1966TIP3    H227390   6.694   5.633   0.513 -0.8272  1.4285 -0.1221
 1967TIP3   OH227391   4.973   3.744   4.405 -0.1268  0.0734  0.2010
 1967TIP3    H127392   5.012   3.734   4.318 -0.0710  1.1112  0.0937
 1967TIP3    H227393   5.040   3.710   4.465 -0.2077 -0.7452 -0.1591
 1968TIP3   OH227394   5.816   1.555  16.644 -0.4593  0.1643  0.2080
 1968TIP3    H127395   5.760   1.630  16.661  0.3291  0.8875 -0.2812
 1968TIP3    H227396   5.798   1.495  16.716 -0.9150  0.9333  0.7536
 1969TIP3   OH227397   0.444   5.222   3.186  0.1990  0.6308  0.3244
 1969TIP3    H127398   0.457   5.317   3.193  0.0234  0.5885  1.3206
 1969TIP3    H227399   0.509   5.194   3.121  0.4866  1.3818  0.2747
 1970TIP3   OH227400   3.104   0.977   3.085  0.0421 -0.2447  0.0251
 1970TIP3    H127401   3.119   0.886   3.110  0.1176  0.1967  1.7317
 1970TIP3    H227402   3.098   1.024   3.168  0.6767  1.4229 -0.8105
 1971TIP3   OH227403   3.693   3.897  12.609 -0.5536  0.2566  0.7487
 1971TIP3    H127404   3.606   3.933  12.626 -1.3023 -0.4283 -1.2811
 1971TIP3    H227405   3.733   3.958  12.548 -0.7780 -0.8567 -0.5738
 1972TIP3   OH227406   6.608   4.948  14.616  0.8292 -0.1140 -0.4287
 1972TIP3    H127407   6.584   4.885  14.548  2.4914 -0.3205 -0.8765
 1972TIP3    H227408   6.633   4.894  14.691 -0.6468  0.1065  0.2511
 1973TIP3   OH227409   2.504   5.497  14.226  0.3046 -0.3100 -0.5245
 1973TIP3    H127410   2.526   5.404  14.218 -0.5572 -0.4377 -1.8228
 1973TIP3    H227411   2.581   5.543  14.192  1.6394 -0.4060  2.1056
 1974TIP3   OH227412   5.872   2.998   1.797  0.7989  0.1896  0.0408
 1974TIP3    H127413   5.857   3.020   1.889 -0.1592  1.5419 -0.4213
 1974TIP3    H227414   5.883   3.082   1.753 -2.6711 -0.1339 -1.7307
 1975TIP3   OH227415   3.527   6.058   1.682 -0.0460 -0.4209 -0.1261
 1975TIP3    H127416   3.564   6.146   1.690 -0.4757  0.0466 -2.4239
 1975TIP3    H227417   3.432   6.072   1.679 -0.0942 -0.8061 -1.4371
 1976TIP3   OH227418   5.761   1.801  14.999  0.2758 -0.1792  0.3978
 1976TIP3    H127419   5.745   1.708  14.981 -0.8619  0.2036 -0.7568
 1976TIP3    H227420   5.700   1.847  14.941  0.2666  1.2824  1.5218
 1977TIP3   OH227421   4.862   1.258  16.983  0.8324 -0.1443  1.1168
 1977TIP3    H127422   4.878   1.173  17.024 -1.2028  0.0362  2.4065
 1977TIP3    H227423   4.916   1.319  17.033  2.8117 -0.6845 -0.2225
 1978TIP3   OH227424   1.738   2.651   2.568  0.1332 -0.3944 -0.3809
 1978TIP3    H127425   1.826   2.685   2.551 -1.2622  2.9402 -1.9612
 1978TIP3    H227426   1.726   2.583   2.503  1.2698 -0.3537 -0.6634
 1979TIP3   OH227427   4.863   2.877  12.703 -0.5741  0.1290  0.6036
 1979TIP3    H127428   4.895   2.830  12.626 -0.6721  0.3658  0.4190
 1979TIP3    H227429   4.787   2.925  12.672  0.4772  1.7133  0.3846
 1980TIP3   OH227430   5.572   3.504   3.367 -0.2837 -0.0879  0.3413
 1980TIP3    H127431   5.604   3.561   3.437 -0.1606  0.0347  0.1855
 1980TIP3    H227432   5.553   3.563   3.294  0.5667 -0.3279 -0.0803
 1981TIP3   OH227433   1.625   3.054   3.162 -0.5953 -0.0234 -0.1936
 1981TIP3    H127434   1.591   2.997   3.231 -2.7053  0.1093 -1.0793
 1981TIP3    H227435   1.694   3.105   3.205 -0.8756 -0.9589  1.4235
 1982TIP3   OH227436   3.816   5.761  12.975 -0.4825 -0.0375  0.0520
 1982TIP3    H127437   3.798   5.743  12.882  0.8425 -2.5399  0.1925
 1982TIP3    H227438   3.890   5.705  12.996  1.2763  2.7129  1.8904
 1983TIP3   OH227439   1.813   5.923   4.361  0.8323  0.0927  0.1238
 1983TIP3    H127440   1.772   5.915   4.447 -2.1672 -0.6188 -1.2458
 1983TIP3    H227441   1.855   6.009   4.363 -1.5388  1.3319  1.4249
 1984TIP3   OH227442   3.187   6.059  14.682  0.1572 -0.1063 -0.6624
 1984TIP3    H127443   3.269   6.106  14.670 -0.3438  0.7585 -0.7967
 1984TIP3    H227444   3.136   6.080  14.603  0.6081 -2.3624 -1.6257
 1985TIP3   OH227445   1.095   5.107   5.989 -0.5438 -0.0669 -0.0536
 1985TIP3    H127446   1.166   5.117   6.053  0.5277 -1.6514 -0.9212
 1985TIP3    H227447   1.086   5.193   5.948  0.5453  0.2857  0.4211
 1986TIP3   OH227448   6.082   1.515   5.015 -0.5051 -0.0391  0.0426
 1986TIP3    H127449   6.028   1.593   5.029 -1.3901 -0.5774 -0.2682
 1986TIP3    H227450   6.133   1.506   5.096  0.4542  1.4934 -0.3566
 1987TIP3   OH227451   1.264   1.747  11.420 -0.0101 -0.0653 -0.0751
 1987TIP3    H127452   1.300   1.674  11.369 -1.7689  0.7054 -2.5641
 1987TIP3    H227453   1.311   1.824  11.389 -0.1525  0.2515  0.4768
 1988TIP3   OH227454   2.649   1.606   4.222  0.5705 -0.9222 -0.2557
 1988TIP3    H127455   2.570   1.590   4.169 -1.2643 -1.0329  2.2981
 1988TIP3    H227456   2.644   1.540   4.292  2.7491 -0.6495  0.2247
 1989TIP3   OH227457   1.877   1.262   1.947  0.3770  0.3318 -0.2662
 1989TIP3    H127458   1.840   1.331   1.892  0.2875  0.1779 -0.4038
 1989TIP3    H227459   1.800   1.219   1.986  0.4049 -0.0310 -0.6027
 1990TIP3   OH227460   4.768   1.252  13.479 -0.0004  0.4706 -0.0578
 1990TIP3    H127461   4.831   1.298  13.424  0.4260 -1.0759 -0.9246
 1990TIP3    H227462   4.822   1.194  13.533 -0.5556  0.6210  0.6825
 1991TIP3   OH227463   1.596   5.101  11.238  0.4650  0.1746 -0.0480
 1991TIP3    H127464   1.578   5.022  11.187 -0.1491 -0.8691  1.7134
 1991TIP3    H227465   1.564   5.173  11.182  2.3763 -0.5942 -2.3326
 1992TIP3   OH227466   2.759   2.688  16.327 -0.0606  0.1022  0.2793
 1992TIP3    H127467   2.779   2.597  16.347  1.6325  0.3026 -0.3247
 1992TIP3    H227468   2.824   2.738  16.376 -0.6552  0.9636  0.2153
 1993TIP3   OH227469   1.262   1.522  14.485 -0.0264 -0.4364  0.2738
 1993TIP3    H127470   1.273   1.470  14.564  1.1330  1.0088  1.1256
 1993TIP3    H227471   1.315   1.601  14.501  0.7908 -0.3910 -2.1951
 1994TIP3   OH227472   4.207   4.558   4.465  0.4125 -0.5095  0.0495
 1994TIP3    H127473   4.237   4.647   4.483  1.6570 -1.0290  0.6116
 1994TIP3    H227474   4.215   4.512   4.549 -2.6288 -0.5226  0.4423
 1995TIP3   OH227475   5.600   0.274   5.215 -0.1906 -0.5674  0.3134
 1995TIP3    H127476   5.660   0.262   5.288 -1.0964  0.4104  1.2672
 1995TIP3    H227477   5.638   0.345   5.163 -1.1638  1.0988  1.7267
 1996TIP3   OH227478   6.154   4.024  15.332  0.4197  0.1465 -0.0813
 1996TIP3    H127479   6.198   4.094  15.381  2.0331 -2.9865  3.5034
 1996TIP3    H227480   6.081   3.998  15.388  1.4782 -2.6990  0.1488
 1997TIP3   OH227481   0.931   2.494   4.100  0.0791  0.6527  0.4715
 1997TIP3    H127482   0.912   2.524   4.011 -0.9612 -1.2643 -0.0093
 1997TIP3    H227483   0.849   2.508   4.148  0.3596  0.8345  0.9137
 1998TIP3   OH227484   0.546   4.469   0.223 -0.0622 -0.4272 -0.1753
 1998TIP3    H127485   0.581   4.523   0.294 -1.6520  0.3249  0.0729
 1998TIP3    H227486   0.600   4.389   0.225  1.5114  0.6051  0.2580
 1999TIP3   OH227487   6.415   1.331  15.454 -0.6059  0.2289 -0.1048
 1999TIP3    H127488   6.370   1.364  15.532 -1.0588 -1.0314  0.1975
 1999TIP3    H227489   6.475   1.265  15.488  2.4488  2.7018 -0.3556
 2000TIP3   OH227490   3.034   3.954   4.694 -0.0851 -0.2297  0.2424
 2000TIP3    H127491   3.032   3.869   4.738 -0.0905 -1.1958 -1.5054
 2000TIP3    H227492   3.105   3.946   4.630 -0.5098  0.8484 -0.3973
 2001TIP3   OH227493   6.370   1.754  11.629  0.4685 -0.3830  0.4803
 2001TIP3    H127494   6.406   1.717  11.710  0.8084  2.4769  1.7821
 2001TIP3    H227495   6.436   1.816  11.600 -0.1781 -0.5150 -1.3904
 2002TIP3   OH227496   0.610   1.142  14.790 -0.0167 -0.5994 -0.4103
 2002TIP3    H127497   0.588   1.235  14.790  2.1403 -0.0141  0.9382
 2002TIP3    H227498   0.552   1.104  14.856  2.1184  0.7138  2.4058
 2003TIP3   OH227499   0.286   3.544  16.527 -0.6296  0.4219 -0.0167
 2003TIP3    H127500   0.346   3.528  16.600 -0.2127  0.2792 -0.3867
 2003TIP3    H227501   0.246   3.628  16.547 -1.8072 -0.3930  1.2503
 2004TIP3   OH227502   4.074   3.441  16.203  0.1887  0.1851  0.6368
 2004TIP3    H127503   4.096   3.348  16.199 -1.2944 -0.2872  2.2248
 2004TIP3    H227504   4.152   3.483  16.238  0.6650 -0.5440  0.4739
 2005TIP3   OH227505   6.778   5.136   4.019  0.1670  0.3346 -0.0237
 2005TIP3    H127506   6.870   5.111   4.008  0.0668 -0.2310  0.4092
 2005TIP3    H227507   6.729   5.070   3.970 -0.0151  0.5968 -0.1977
 2006TIP3   OH227508   6.017   0.613   4.390 -1.2853  0.3412  0.4832
 2006TIP3    H127509   5.933   0.650   4.362 -0.9007  0.7918 -0.1000
 2006TIP3    H227510   6.083   0.669   4.349 -0.6962  0.0669  1.0378
 2007TIP3   OH227511   5.545   2.848   3.156  0.1068 -0.0528  0.1971
 2007TIP3    H127512   5.530   2.943   3.160 -1.9164 -0.3546  1.1633
 2007TIP3    H227513   5.567   2.824   3.246  0.8525 -0.4782 -0.0961
 2008TIP3   OH227514   3.209   5.445  11.761 -0.4608  0.2887 -0.0760
 2008TIP3    H127515   3.121   5.449  11.724 -0.3934 -1.4188 -0.5258
 2008TIP3    H227516   3.258   5.389  11.700  1.0301  1.4574  0.0070
 2009TIP3   OH227517   4.239   3.943  16.176  0.3069  0.0201  0.4657
 2009TIP3    H127518   4.194   3.983  16.250 -1.4023  1.7722 -1.4103
 2009TIP3    H227519   4.175   3.882  16.140  0.3301  0.7213 -0.7902
 2010TIP3   OH227520   3.403   2.055   2.833 -0.2330 -0.0435 -0.1868
 2010TIP3    H127521   3.331   2.096   2.785  0.6496  0.0006 -1.5628
 2010TIP3    H227522   3.363   1.982   2.880 -1.4105  0.8909  0.3126
 2011TIP3   OH227523   4.467   4.145   3.551  0.3637  0.0034  0.3442
 2011TIP3    H127524   4.496   4.067   3.503 -0.7027 -0.5891  0.6328
 2011TIP3    H227525   4.434   4.203   3.483 -0.5191 -0.5582  0.2733
 2012TIP3   OH227526   5.542   2.083  13.986  0.0938 -0.3524  0.4465
 2012TIP3    H127527   5.474   2.034  13.940 -0.4943 -0.0083  0.9229
 2012TIP3    H227528   5.509   2.092  14.076  0.2329  0.7770  0.4103
 2013TIP3   OH227529   6.851   6.505  11.132 -0.1838 -0.2502 -0.6932
 2013TIP3    H127530   6.774   6.470  11.088 -0.5610 -0.3918  0.0727
 2013TIP3    H227531   6.867   6.589  11.090 -1.0412 -0.0017 -0.5397
 2014TIP3   OH227532   1.417   6.357   2.802 -0.7046 -0.1758 -0.3176
 2014TIP3    H127533   1.364   6.284   2.768 -0.3455 -0.2229 -0.7918
 2014TIP3    H227534   1.443   6.406   2.724  0.0624 -0.2275 -0.1052
 2015TIP3   OH227535   4.458   5.333  11.908 -0.4013 -0.1626  0.0752
 2015TIP3    H127536   4.518   5.326  11.834 -1.0061  1.8142 -0.6470
 2015TIP3    H227537   4.457   5.245  11.946  0.8460 -0.9145 -1.5250
 2016TIP3   OH227538   0.959   2.636  14.262 -0.1374 -0.5053  0.6700
 2016TIP3    H127539   0.882   2.680  14.296 -1.1507 -2.4059  0.9572
 2016TIP3    H227540   0.949   2.641  14.166  0.5849  1.2027  0.6464
 2017TIP3   OH227541   0.281   4.097  12.477  0.0321 -0.4650 -0.3866
 2017TIP3    H127542   0.278   4.160  12.406 -0.3868 -1.4569 -1.2784
 2017TIP3    H227543   0.201   4.045  12.467  0.5349 -1.3656  0.0964
 2018TIP3   OH227544   5.704   4.213   4.788 -0.5344  0.4744 -0.0913
 2018TIP3    H127545   5.688   4.306   4.769 -2.0462  0.5902  1.5175
 2018TIP3    H227546   5.657   4.197   4.870  1.8550 -1.0873  1.0774
 2019TIP3   OH227547   6.851   3.741   3.597 -0.2167  0.3515 -0.0653
 2019TIP3    H127548   6.772   3.727   3.650 -0.8441  4.0180  0.2027
 2019TIP3    H227549   6.829   3.704   3.512 -0.8340 -1.7719  0.9466
 2020TIP3   OH227550   0.205   4.328  15.366  0.1432  0.4946 -0.1558
 2020TIP3    H127551   0.238   4.414  15.338  0.1570  0.9992  1.2763
 2020TIP3    H227552   0.284   4.281  15.393  0.3190 -0.5895 -2.3957
 2021TIP3   OH227553   3.709   0.268  12.603 -0.3254 -0.1377 -0.1592
 2021TIP3    H127554   3.669   0.354  12.616 -0.8478  0.1828 -3.1932
 2021TIP3    H227555   3.786   0.268  12.661 -1.1602  1.7318  1.0319
 2022TIP3   OH227556   4.048   0.452   3.042 -0.2108 -0.3828 -0.3085
 2022TIP3    H127557   4.138   0.444   3.013 -0.2707  0.3247 -0.7151
 2022TIP3    H227558   4.052   0.438   3.137 -0.1559 -3.7599 -0.6832
 2023TIP3   OH227559   6.309   3.125  12.193  0.1696  0.6151 -0.2495
 2023TIP3    H127560   6.307   3.146  12.286  0.2501  0.3043 -0.1759
 2023TIP3    H227561   6.335   3.032  12.190 -2.4668 -0.2017 -0.4635
 2024TIP3   OH227562   6.404   0.110  13.845 -0.1366  0.3119  0.0739
 2024TIP3    H127563   6.370   0.197  13.827  1.9863  0.8706 -1.7955
 2024TIP3    H227564   6.484   0.126  13.896 -0.0602 -0.5671  0.2446
 2025TIP3   OH227565   5.814   6.609   1.640 -0.9518 -0.2256 -0.3610
 2025TIP3    H127566   5.740   6.617   1.700 -1.2285 -0.5846 -0.6489
 2025TIP3    H227567   5.848   6.521   1.655  0.8982  0.7313  1.4499
 2026TIP3   OH227568   1.960   5.883   1.727  0.5131  0.3290 -0.1082
 2026TIP3    H127569   1.991   5.809   1.780  0.9565  0.2631 -0.4491
 2026TIP3    H227570   1.928   5.842   1.647 -0.5691  0.3899  0.2815
 2027TIP3   OH227571   4.963   6.775  15.444 -0.3092  0.1483  0.1273
 2027TIP3    H127572   4.999   6.722  15.373  0.0542 -0.2549  0.6083
 2027TIP3    H227573   4.934   6.856  15.401 -1.3239 -0.6250 -0.6932
 2028TIP3   OH227574   3.728   1.684  15.500 -0.7239 -0.2686 -0.0484
 2028TIP3    H127575   3.821   1.705  15.502 -0.9460  1.1446 -1.5892
 2028TIP3    H227576   3.720   1.616  15.433 -0.5175 -2.4400  2.0248
 2029TIP3   OH227577   0.640   1.975  13.571 -0.1960 -0.3332  0.3022
 2029TIP3    H127578   0.574   1.939  13.513 -0.1524 -1.3945  0.8830
 2029TIP3    H227579   0.593   1.997  13.651 -0.0610  0.1022  0.2687
 2030TIP3   OH227580   2.102   6.538   6.213 -0.1747 -0.4189  0.2502
 2030TIP3    H127581   2.116   6.632   6.200  0.9619 -0.6422 -0.3313
 2030TIP3    H227582   2.125   6.523   6.305 -2.0373  0.1330  0.8405
 2031TIP3   OH227583   2.492   3.658  11.923  0.2987 -0.2942  0.3386
 2031TIP3    H127584   2.473   3.698  11.838  1.5522  2.5088  1.2679
 2031TIP3    H227585   2.586   3.640  11.922  0.6666  1.2842  1.6391
 2032TIP3   OH227586   3.756   3.208   0.463  0.0743 -0.0050  0.0070
 2032TIP3    H127587   3.773   3.138   0.401 -0.3295 -0.4702  0.4094
 2032TIP3    H227588   3.814   3.189   0.537  1.1892  1.0277 -0.5654
 2033TIP3   OH227589   2.827   2.903  14.032  0.1424  0.6353 -0.8440
 2033TIP3    H127590   2.907   2.943  13.997  0.1930  1.2051 -0.1032
 2033TIP3    H227591   2.756   2.951  13.990  0.1814  0.1324 -1.4986
 2034TIP3   OH227592   3.561   1.118  15.956 -0.5241  0.3637  0.4906
 2034TIP3    H127593   3.538   1.206  15.927 -2.9500 -0.6161 -0.9413
 2034TIP3    H227594   3.535   1.062  15.883 -0.4829 -1.6537  1.9463
 2035TIP3   OH227595   1.844   6.581   5.003 -0.6955  0.4742 -0.1234
 2035TIP3    H127596   1.821   6.514   4.939 -2.3274  0.6807  0.1867
 2035TIP3    H227597   1.795   6.556   5.082  0.3067  0.9019  0.6622
 2036TIP3   OH227598   6.243   5.386  13.180 -0.1177  0.0565 -0.3625
 2036TIP3    H127599   6.285   5.399  13.265  0.4327 -3.1483 -0.0167
 2036TIP3    H227600   6.306   5.420  13.117  0.9606 -0.4677  0.3878
 2037TIP3   OH227601   4.419   4.971  17.077  0.1083 -0.3415 -0.0418
 2037TIP3    H127602   4.330   5.001  17.098 -1.0549 -0.9484 -3.4196
 2037TIP3    H227603   4.406   4.884  17.039  2.2321 -0.6217 -0.2331
 2038TIP3   OH227604   1.642   2.199   3.516 -0.4518 -0.1515  0.7377
 2038TIP3    H127605   1.581   2.187   3.443 -0.8541 -1.0649  1.2127
 2038TIP3    H227606   1.586   2.220   3.591 -0.1141 -0.0971  0.9760
 2039TIP3   OH227607   2.752   5.939   3.053  0.2487 -0.1471 -0.1672
 2039TIP3    H127608   2.764   5.858   3.002 -0.2289 -0.7257  0.6165
 2039TIP3    H227609   2.815   5.933   3.124 -0.0299  0.0039  0.0950
 2040TIP3   OH227610   2.011   1.178  11.384 -0.0625 -0.4945 -0.0089
 2040TIP3    H127611   2.011   1.129  11.301  2.0080  0.8581 -0.8930
 2040TIP3    H227612   2.089   1.148  11.429 -0.4181 -0.1813  0.8308
 2041TIP3   OH227613   1.286   0.347   4.230  0.0013  0.0184 -0.3987
 2041TIP3    H127614   1.190   0.347   4.220 -0.1439 -0.4179  0.8382
 2041TIP3    H227615   1.302   0.406   4.303  0.5353 -1.1897  0.4878
 2042TIP3   OH227616   0.389   4.249   4.786  0.4357  0.2387  0.3176
 2042TIP3    H127617   0.455   4.188   4.819 -0.1147  0.3177  1.6279
 2042TIP3    H227618   0.365   4.302   4.862  0.2385  1.4922 -0.5776
 2043TIP3   OH227619   4.299   5.455  12.771  0.2612 -0.1719  0.1501
 2043TIP3    H127620   4.252   5.375  12.796  0.4278 -0.2077  0.3536
 2043TIP3    H227621   4.321   5.442  12.679 -0.4195 -0.0106 -0.0391
 2044TIP3   OH227622   1.576   6.370   4.675  0.1965  0.2668 -0.4367
 2044TIP3    H127623   1.590   6.464   4.689 -0.6111  0.4645 -0.8958
 2044TIP3    H227624   1.554   6.363   4.582  1.6912 -0.5603 -0.7684
 2045TIP3   OH227625   3.387   5.066  11.850  0.5615 -0.4030  0.5574
 2045TIP3    H127626   3.364   5.157  11.869 -0.7677 -0.8053  0.9780
 2045TIP3    H227627   3.482   5.063  11.861  0.6323  0.9377  0.5152
 2046TIP3   OH227628   3.574   5.375  14.010 -0.1628 -0.2273 -0.0592
 2046TIP3    H127629   3.586   5.327  13.929  2.0456 -0.3512  0.2957
 2046TIP3    H227630   3.586   5.467  13.986 -2.9497  0.1400 -0.4563
 2047TIP3   OH227631   2.934   1.703   2.778 -0.5011  0.5753  0.3916
 2047TIP3    H127632   2.848   1.725   2.813 -1.0036 -0.1362 -0.3577
 2047TIP3    H227633   2.942   1.756   2.698 -0.0974  0.8763  0.6218
 2048TIP3   OH227634   5.458   5.547  11.562  0.3169  0.3321  0.1176
 2048TIP3    H127635   5.410   5.620  11.522 -1.9981 -1.3273 -0.2848
 2048TIP3    H227636   5.496   5.585  11.642  1.2399  2.5450 -1.2544
 2049TIP3   OH227637   2.231   6.771   4.337  0.5603 -0.2516  0.5230
 2049TIP3    H127638   2.274   6.854   4.318 -1.8343  1.0938  0.5935
 2049TIP3    H227639   2.179   6.752   4.259  0.2750 -1.1203  0.9095
 2050TIP3   OH227640   6.557   1.917  14.213  0.2604  0.4778 -0.5842
 2050TIP3    H127641   6.614   1.989  14.190  1.4139  0.2242  1.2712
 2050TIP3    H227642   6.605   1.868  14.279 -1.7376 -0.2460  0.4337
 2051TIP3   OH227643   5.891   3.478   3.374  0.7307  0.3233  0.2489
 2051TIP3    H127644   5.859   3.567   3.355 -0.8877  0.2743  2.3394
 2051TIP3    H227645   5.876   3.467   3.468 -1.0116 -2.8440 -0.2532
 2052TIP3   OH227646   1.990   4.076   1.434 -0.2267 -0.0293  0.0915
 2052TIP3    H127647   1.895   4.070   1.440 -0.1603  0.3648  2.0215
 2052TIP3    H227648   2.020   3.985   1.425 -0.6698 -0.4148  2.1348
 2053TIP3   OH227649   3.320   2.643   0.966  0.0125 -0.2851 -0.5310
 2053TIP3    H127650   3.370   2.676   1.041 -1.7292  0.7849  0.2367
 2053TIP3    H227651   3.358   2.558   0.947 -0.4312 -1.3037  2.5975
 2054TIP3   OH227652   0.008   2.966  12.763 -0.4284  0.5537 -0.6198
 2054TIP3    H127653   0.077   2.972  12.698  0.2844  0.7449  0.1337
 2054TIP3    H227654  -0.016   2.874  12.765  0.6821  0.2646 -0.0133
 2055TIP3   OH227655   1.828   4.338  13.180 -0.8355 -0.2506  0.0603
 2055TIP3    H127656   1.803   4.300  13.264 -0.5637 -0.6812 -0.0523
 2055TIP3    H227657   1.901   4.284  13.150 -1.0936 -0.2486 -0.5700
 2056TIP3   OH227658   4.202   5.091  11.940  0.0902  0.8051  0.2326
 2056TIP3    H127659   4.229   5.136  12.020  1.4380  0.3933  0.0381
 2056TIP3    H227660   4.283   5.053  11.906 -0.1339  2.3254 -2.2050
 2057TIP3   OH227661   1.457   5.414   4.922 -0.6103 -0.2252 -0.3426
 2057TIP3    H127662   1.483   5.465   4.846 -1.8499  1.7934  0.5194
 2057TIP3    H227663   1.540   5.381   4.959  0.1673  0.6647 -1.2665
 2058TIP3   OH227664   1.075   5.805   4.759 -0.6461 -0.7582 -0.5659
 2058TIP3    H127665   1.077   5.883   4.814 -1.5908 -0.0698 -1.4801
 2058TIP3    H227666   1.160   5.763   4.774 -0.2339  0.2963  0.1408
 2059TIP3   OH227667   2.739   6.396   2.525 -0.2665 -0.7241  0.4833
 2059TIP3    H127668   2.722   6.311   2.565 -2.5070  0.4691  2.3715
 2059TIP3    H227669   2.739   6.458   2.598 -0.0260  1.0655 -0.9325
 2060TIP3   OH227670   3.097   1.970  15.241 -0.1900 -0.7041 -0.2285
 2060TIP3    H127671   3.058   1.914  15.173 -1.3971 -0.1735  0.0096
 2060TIP3    H227672   3.060   2.057  15.224  0.9279 -0.1689 -0.0060
 2061TIP3   OH227673   0.601   0.761   0.384  0.6632 -0.0273  0.5353
 2061TIP3    H127674   0.634   0.756   0.473  1.3569  0.5578  0.3156
 2061TIP3    H227675   0.631   0.680   0.343 -0.1759 -0.5866  0.9919
 2062TIP3   OH227676   3.748   1.877   3.528  0.3016 -0.1852  0.4451
 2062TIP3    H127677   3.750   1.957   3.581  1.8034  0.7582 -0.9781
 2062TIP3    H227678   3.808   1.817   3.573  0.8270  0.2615  0.3458
 2063TIP3   OH227679   6.193   3.396   3.698 -0.0048 -0.0835  0.4900
 2063TIP3    H127680   6.129   3.405   3.768 -1.2622 -0.4316 -0.5815
 2063TIP3    H227681   6.194   3.303   3.676 -1.2374  0.2794 -1.3653
 2064TIP3   OH227682   2.642   5.585  11.638 -0.1666 -0.5129  0.1258
 2064TIP3    H127683   2.570   5.538  11.598  0.1331 -1.3348  0.5309
 2064TIP3    H227684   2.613   5.600  11.728 -0.6557  0.9358 -0.2489
 2065TIP3   OH227685   5.297   0.045  12.190 -0.5749 -0.3102  0.6141
 2065TIP3    H127686   5.277   0.130  12.229 -0.2228  0.5087 -0.9181
 2065TIP3    H227687   5.234   0.036  12.118  0.1950 -0.7720 -0.0143
 2066TIP3   OH227688   5.570   0.785  15.965  0.1855 -0.2334 -0.9294
 2066TIP3    H127689   5.536   0.696  15.957 -0.2605 -0.1161 -0.3508
 2066TIP3    H227690   5.594   0.809  15.875  1.7564 -1.4920 -0.9011
 2067TIP3   OH227691   5.055   3.565  11.128 -0.4839  0.8035 -0.3724
 2067TIP3    H127692   5.026   3.642  11.176  0.8218 -0.2236  2.2566
 2067TIP3    H227693   4.988   3.499  11.144  0.3726  0.1923  0.8599
 2068TIP3   OH227694   3.471   3.770  10.661 -0.7976  0.0680 -0.3916
 2068TIP3    H127695   3.540   3.803  10.720 -0.7658 -0.2291 -0.2595
 2068TIP3    H227696   3.438   3.691  10.705 -0.3542 -0.5029 -1.0668
 2069TIP3   OH227697   5.543   0.632   3.100 -0.0395 -0.4132  0.0881
 2069TIP3    H127698   5.477   0.584   3.048  0.0479 -0.2176 -0.2080
 2069TIP3    H227699   5.558   0.712   3.050  0.7627 -0.6642 -0.0938
 2070TIP3   OH227700   2.367   5.070   1.804  0.1859  0.2281  0.3487
 2070TIP3    H127701   2.450   5.077   1.851  0.7970  1.3148 -0.8414
 2070TIP3    H227702   2.392   5.051   1.713 -0.9044 -0.1768  0.1079
 2071TIP3   OH227703   4.990   5.480  11.340 -0.3663 -0.3129  0.5705
 2071TIP3    H127704   5.076   5.519  11.323 -0.3054 -0.5015  0.4507
 2071TIP3    H227705   5.006   5.414  11.407 -0.3776 -0.5122  0.3767
 2072TIP3   OH227706   2.852   2.536   1.939  0.4417 -0.0409 -0.7545
 2072TIP3    H127707   2.939   2.577   1.930  1.6154 -2.1131  0.4654
 2072TIP3    H227708   2.797   2.605   1.977  1.9656  0.8353 -0.0243
 2073TIP3   OH227709   6.109   5.159  15.747  0.0200 -0.8149  0.1208
 2073TIP3    H127710   6.033   5.116  15.786  0.5907 -2.6969 -0.6995
 2073TIP3    H227711   6.075   5.202  15.668 -0.4553 -0.2960  0.6047
 2074TIP3   OH227712   5.433   4.679  14.948  0.1652  0.5601  0.4255
 2074TIP3    H127713   5.500   4.612  14.951  0.9144  1.2019 -1.1349
 2074TIP3    H227714   5.479   4.758  14.921 -1.2671  0.9368 -1.0313
 2075TIP3   OH227715   4.540   0.942  11.872  0.4065 -0.0055 -0.7354
 2075TIP3    H127716   4.454   0.979  11.893  0.9211  2.8975 -3.0456
 2075TIP3    H227717   4.520   0.864  11.821 -0.8285  0.2139 -0.6360
 2076TIP3   OH227718   3.464   2.624   0.597 -0.1987  0.4552 -0.2577
 2076TIP3    H127719   3.435   2.632   0.506 -2.0248  0.2875  0.2553
 2076TIP3    H227720   3.393   2.664   0.648  2.6108  4.5006  0.9781
 2077TIP3   OH227721   1.311   2.178  12.694  0.4374  0.5683 -0.3096
 2077TIP3    H127722   1.324   2.272  12.705 -1.8970  0.8914  0.3375
 2077TIP3    H227723   1.326   2.141  12.781 -0.2148  0.5780 -0.1895
 2078TIP3   OH227724   4.497   4.489   5.239  0.3584 -0.1003  0.0372
 2078TIP3    H127725   4.518   4.494   5.332  0.0329 -0.8592  0.1641
 2078TIP3    H227726   4.409   4.527   5.232  1.1998  1.9159 -0.3026
 2079TIP3   OH227727   5.104   0.490   1.328  0.5453  0.2327 -0.5154
 2079TIP3    H127728   5.067   0.490   1.240 -0.0172 -1.2145 -0.2994
 2079TIP3    H227729   5.054   0.424   1.376  2.3785 -0.7027  0.2179
 2080TIP3   OH227730   6.547   5.567   4.696 -0.5577 -0.0151  0.0066
 2080TIP3    H127731   6.467   5.587   4.647 -2.0550  0.1120  2.3405
 2080TIP3    H227732   6.538   5.475   4.720 -0.9179  0.4241  1.7237
 2081TIP3   OH227733   5.219   2.540  14.823  0.4332  0.1091 -0.5825
 2081TIP3    H127734   5.134   2.530  14.867  0.0745  1.0874 -1.0312
 2081TIP3    H227735   5.197   2.578  14.738  1.4126  1.5668 -0.2218
 2082TIP3   OH227736   4.444   3.365   1.677 -0.1353 -0.4779  0.1546
 2082TIP3    H127737   4.509   3.339   1.611  0.8111  1.0937  0.4135
 2082TIP3    H227738   4.367   3.391   1.627 -0.5282 -2.1221 -0.1672
 2083TIP3   OH227739   3.661   2.927  16.522  0.2948 -0.1830 -0.0239
 2083TIP3    H127740   3.695   2.941  16.610 -1.3870  0.9541  0.5010
 2083TIP3    H227741   3.630   3.014  16.494 -2.2034 -1.0965 -0.3850
 2084TIP3   OH227742   3.188   6.290  15.857 -0.0011 -0.3085 -0.6814
 2084TIP3    H127743   3.218   6.216  15.804 -1.0447 -2.2525  1.2181
 2084TIP3    H227744   3.255   6.298  15.926  0.2236  0.6941 -1.0123
 2085TIP3   OH227745   6.253   4.843  10.546  0.7159  0.5141  0.7668
 2085TIP3    H127746   6.192   4.789  10.597 -1.0673  1.1495 -0.5643
 2085TIP3    H227747   6.245   4.811  10.456  0.5906  2.0897  0.1686
 2086TIP3   OH227748   4.718   0.854  10.989 -0.4637  0.1271  0.2285
 2086TIP3    H127749   4.740   0.841  10.897 -2.5469  0.8982 -0.4216
 2086TIP3    H227750   4.795   0.822  11.037 -0.2301 -2.4167 -1.6706
 2087TIP3   OH227751   4.663   3.587   5.116  0.2930 -0.1262  0.2289
 2087TIP3    H127752   4.568   3.589   5.129 -0.0673 -0.5939 -1.8045
 2087TIP3    H227753   4.689   3.499   5.145 -0.0403 -0.2857  0.0559
 2088TIP3   OH227754   2.797   6.164  15.134  0.1590 -0.1717 -0.6897
 2088TIP3    H127755   2.891   6.174  15.116  0.4381 -1.2187  0.0574
 2088TIP3    H227756   2.776   6.077  15.100 -0.5753  0.1188 -0.9780
 2089TIP3   OH227757   4.567   3.862   1.661  0.3028 -0.7252  0.4116
 2089TIP3    H127758   4.649   3.893   1.621  0.5359 -1.0736  0.6148
 2089TIP3    H227759   4.534   3.937   1.710 -0.2394 -0.1200 -0.8140
 2090TIP3   OH227760   5.089   4.491  14.074  0.3209  0.1052 -0.1305
 2090TIP3    H127761   5.105   4.442  13.994  1.0002  0.1650 -0.0377
 2090TIP3    H227762   5.068   4.580  14.044  1.1204  0.2678 -0.2285
 2091TIP3   OH227763   2.250   1.239  14.453 -0.1449  0.1170 -0.2385
 2091TIP3    H127764   2.268   1.328  14.423 -0.0024  0.0955 -0.2203
 2091TIP3    H227765   2.155   1.232  14.452 -0.1639  0.3236 -0.0882
 2092TIP3   OH227766   1.682   5.182   3.887  0.0997  0.3559  0.0729
 2092TIP3    H127767   1.604   5.187   3.943 -0.2390 -0.0720 -0.3501
 2092TIP3    H227768   1.667   5.105   3.832  1.3790 -0.4733  0.8220
 2093TIP3   OH227769   0.519   5.638   1.388 -0.1283  0.0159  0.2040
 2093TIP3    H127770   0.576   5.605   1.457  1.1633  1.7749  0.0639
 2093TIP3    H227771   0.433   5.647   1.429  0.0368 -1.2260  0.8665
 2094TIP3   OH227772   5.502   6.482  11.201  0.6224 -0.5838  0.3405
 2094TIP3    H127773   5.463   6.569  11.214 -0.3595 -0.8990 -0.3851
 2094TIP3    H227774   5.596   6.497  11.211  0.5289  0.7091 -0.4791
 2095TIP3   OH227775   0.934   2.916  14.052 -0.1654 -0.1120  0.1296
 2095TIP3    H127776   0.939   2.830  14.010 -2.2398 -0.1994 -0.0778
 2095TIP3    H227777   0.842   2.942  14.041  0.1029  1.5267  1.3886
 2096TIP3   OH227778   2.760   5.300  13.251  0.0375 -0.6467  0.4160
 2096TIP3    H127779   2.738   5.244  13.177 -1.6295  0.2937  0.1514
 2096TIP3    H227780   2.851   5.326  13.236 -0.5540  0.2988 -1.8500
 2097TIP3   OH227781   3.058   2.899   0.548 -0.1807  0.2838  0.6679
 2097TIP3    H127782   3.084   2.807   0.552 -1.3129 -0.0119  1.9321
 2097TIP3    H227783   3.033   2.921   0.638 -0.9263  1.5243  0.1840
 2098TIP3   OH227784   3.881   5.043  11.186  0.3482 -0.3713  0.0397
 2098TIP3    H127785   3.837   5.106  11.243  0.4577 -0.0523 -0.2273
 2098TIP3    H227786   3.884   5.086  11.100  0.7457 -0.5921 -0.0579
 2099TIP3   OH227787   0.347   5.501  13.241 -0.2078 -0.5174 -0.0316
 2099TIP3    H127788   0.340   5.468  13.151  1.4862  2.7194 -1.5174
 2099TIP3    H227789   0.439   5.487  13.264  0.2240  1.6581 -0.2027
 2100TIP3   OH227790   0.448   5.502  16.011 -0.7372 -0.5470 -0.0882
 2100TIP3    H127791   0.471   5.459  16.093 -2.2204  0.0125  0.6560
 2100TIP3    H227792   0.511   5.573  16.002 -0.7113 -0.4665  0.6864
 2101TIP3   OH227793   1.661   3.160  13.361 -0.3272 -0.4494  0.1277
 2101TIP3    H127794   1.745   3.141  13.320 -0.0829  0.8680 -0.0285
 2101TIP3    H227795   1.610   3.080  13.349  0.8493 -1.2208  0.1140
 2102TIP3   OH227796   6.344   6.309  16.988  0.2588  0.3038  0.2921
 2102TIP3    H127797   6.306   6.256  16.918  2.6689  0.1030 -0.9706
 2102TIP3    H227798   6.335   6.400  16.957  2.1834  0.1708 -0.8597
 2103TIP3   OH227799   6.741   0.526  15.656 -0.1500 -0.1695 -0.2290
 2103TIP3    H127800   6.762   0.466  15.584  3.5491  0.6081  0.0165
 2103TIP3    H227801   6.762   0.476  15.735  1.3562  0.8237  0.0291
 2104TIP3   OH227802   5.772   6.590  16.349  0.1144 -0.4738  0.3101
 2104TIP3    H127803   5.865   6.595  16.328 -0.0043 -0.3879 -0.2099
 2104TIP3    H227804   5.741   6.681  16.342  0.4194 -0.1516  2.5586
 2105TIP3   OH227805   3.250   3.872  14.960  0.6885 -0.2651 -0.1769
 2105TIP3    H127806   3.182   3.937  14.974  1.8967  0.9233  0.4507
 2105TIP3    H227807   3.249   3.855  14.866 -0.2476 -0.0372 -0.2152
 2106TIP3   OH227808   6.333   0.646   0.696  0.0298  0.4436  0.1203
 2106TIP3    H127809   6.301   0.565   0.657 -0.1833 -1.0312  3.0586
 2106TIP3    H227810   6.413   0.620   0.743 -0.2965  1.7827  1.5158
 2107TIP3   OH227811   5.348   1.422  16.498 -0.5172  0.2529 -0.2518
 2107TIP3    H127812   5.438   1.454  16.498 -0.8401  1.2223  0.2487
 2107TIP3    H227813   5.297   1.496  16.464 -1.0532 -0.5395 -1.2266
 2108TIP3   OH227814   4.701   3.224  11.405  0.1543  0.1915  0.5666
 2108TIP3    H127815   4.675   3.269  11.324  0.2402 -1.4328 -0.4107
 2108TIP3    H227816   4.701   3.131  11.382  0.8052 -0.2735  2.2760
 2109TIP3   OH227817   0.684   4.285   0.598 -0.3551  0.5173 -0.0452
 2109TIP3    H127818   0.756   4.321   0.546 -0.2493  1.4123  0.6966
 2109TIP3    H227819   0.683   4.339   0.677  0.1816 -1.4748  1.3931
 2110TIP3   OH227820   0.490   3.885  16.134 -0.6431  0.0742 -0.1098
 2110TIP3    H127821   0.556   3.954  16.140 -0.2602 -0.1434 -1.5135
 2110TIP3    H227822   0.504   3.831  16.212 -0.9238  1.5362  0.9965
 2111TIP3   OH227823   2.859   2.604  12.231  0.1858  0.1995 -0.1534
 2111TIP3    H127824   2.809   2.546  12.289  0.4046  0.8432  0.7097
 2111TIP3    H227825   2.940   2.621  12.279  0.9476 -0.2737 -1.2298
 2112TIP3   OH227826   2.768   4.135  14.793 -0.1664 -0.0375 -0.3296
 2112TIP3    H127827   2.759   4.223  14.830 -1.5227 -0.6708  1.0021
 2112TIP3    H227828   2.843   4.140  14.734 -0.0727  1.9377 -0.0940
 2113TIP3   OH227829   5.691   5.177  16.458 -0.2017  0.2968 -0.1503
 2113TIP3    H127830   5.644   5.256  16.429 -1.4760 -0.1851  0.5225
 2113TIP3    H227831   5.624   5.125  16.502  0.9633 -0.4845  0.7363
 2114TIP3   OH227832   6.834   4.582   4.628 -0.0627 -0.0489  0.2327
 2114TIP3    H127833   6.741   4.584   4.650  0.2258  0.0712  1.5467
 2114TIP3    H227834   6.843   4.512   4.565 -1.1317  0.3067 -0.3378
 2115TIP3   OH227835   3.281   5.244  11.258  0.1934 -0.0073 -0.0434
 2115TIP3    H127836   3.197   5.210  11.287  0.4629 -0.5203  0.1416
 2115TIP3    H227837   3.284   5.225  11.164 -0.5597  1.4050 -0.3774
 2116TIP3   OH227838   6.766   1.946  17.011  0.4450 -0.2338  0.4248
 2116TIP3    H127839   6.813   1.982  16.936  1.2012  0.5808  1.2669
 2116TIP3    H227840   6.739   1.859  16.983 -0.2144  0.4358 -1.1708
 2117TIP3   OH227841   3.886   6.665   2.255  0.0044  0.1138 -0.0692
 2117TIP3    H127842   3.926   6.648   2.341  1.8397 -0.8327 -1.0362
 2117TIP3    H227843   3.806   6.613   2.256  0.8628 -1.2894  0.4913
 2118TIP3   OH227844   0.400   1.226   0.296 -0.4536  0.4047 -0.6575
 2118TIP3    H127845   0.474   1.200   0.350 -0.1567  3.8016  0.8470
 2118TIP3    H227846   0.328   1.169   0.324  0.3854  0.3025  1.4906
 2119TIP3   OH227847   6.637   4.194  16.351 -0.1479  0.2336  0.1074
 2119TIP3    H127848   6.658   4.272  16.404  1.6616  0.2325 -0.5196
 2119TIP3    H227849   6.624   4.124  16.415  0.2899  0.6091  0.6142
 2120TIP3   OH227850   2.892   1.037   1.062  0.1054  0.6875 -0.2035
 2120TIP3    H127851   2.914   0.987   1.141  0.5922  0.4586 -0.4826
 2120TIP3    H227852   2.805   1.073   1.080 -0.2108 -0.1907  0.0290
 2121TIP3   OH227853   3.075   5.319   2.801 -0.4183 -0.2171 -0.3544
 2121TIP3    H127854   3.165   5.290   2.789  0.1641  0.2869  2.2508
 2121TIP3    H227855   3.081   5.415   2.800 -0.5483 -0.1389  1.6693
 2122TIP3   OH227856   5.898   3.314  16.586  0.6734  0.4250  0.0684
 2122TIP3    H127857   5.969   3.325  16.522  0.6603  2.5944  0.3441
 2122TIP3    H227858   5.851   3.398  16.584 -1.0795 -0.4747  0.8831
 2123TIP3   OH227859   6.063   2.325  13.173 -0.0106 -0.7643 -0.1904
 2123TIP3    H127860   6.133   2.366  13.121  1.9970 -0.5427  2.4291
 2123TIP3    H227861   6.055   2.237  13.138  0.8883 -0.4651 -1.2129
 2124TIP3   OH227862   5.499   2.418   4.052 -0.3234  0.6404 -0.7060
 2124TIP3    H127863   5.515   2.329   4.019  0.2296  0.3178  0.4091
 2124TIP3    H227864   5.526   2.415   4.143  1.3646  2.4325 -1.1019
 2125TIP3   OH227865   3.794   0.666   0.440 -0.0314  0.0340 -0.0962
 2125TIP3    H127866   3.705   0.632   0.448  0.3068 -0.9493 -0.2940
 2125TIP3    H227867   3.784   0.753   0.403 -0.8449 -0.5453 -1.2705
 2126TIP3   OH227868   4.875   0.470  16.810  0.1395  0.3958  0.3519
 2126TIP3    H127869   4.931   0.530  16.859  0.7452 -0.1464  0.3333
 2126TIP3    H227870   4.935   0.403  16.777 -0.0293  1.3032 -2.0494
 2127TIP3   OH227871   3.920   4.430  13.037  0.5088  0.4700 -0.3011
 2127TIP3    H127872   3.856   4.367  13.070  1.0662 -0.9886 -1.8859
 2127TIP3    H227873   3.941   4.400  12.949  0.9214  2.8126 -1.0688
 2128TIP3   OH227874   2.161   2.132  12.704 -0.1725 -0.0482  0.0570
 2128TIP3    H127875   2.185   2.071  12.635  1.1356  1.2689 -0.7054
 2128TIP3    H227876   2.138   2.213  12.658 -1.4749  0.1872  1.0638
 2129TIP3   OH227877   0.870   1.713  14.583  0.3065  0.2558 -0.4578
 2129TIP3    H127878   0.930   1.710  14.509  1.0331 -0.8818  0.1524
 2129TIP3    H227879   0.794   1.662  14.555  0.6881 -0.3867 -0.3414
 2130TIP3   OH227880   1.314   1.134   1.035  0.4266  0.2869  0.0629
 2130TIP3    H127881   1.307   1.168   1.125  2.2743  0.1369  0.2950
 2130TIP3    H227882   1.399   1.165   1.005 -0.1471  0.2818 -1.6430
 2131TIP3   OH227883   4.602   2.174   1.337  0.0756  0.2277  0.4723
 2131TIP3    H127884   4.656   2.096   1.327  1.0861  1.0893 -1.5461
 2131TIP3    H227885   4.538   2.168   1.265 -0.2189  0.9569  0.6630
 2132TIP3   OH227886   2.237   6.456   3.943 -0.1883 -0.1269 -0.3859
 2132TIP3    H127887   2.253   6.378   3.997  0.1034  0.1839 -0.0203
 2132TIP3    H227888   2.215   6.421   3.857 -3.4081 -0.7418  0.5564
 2133TIP3   OH227889   4.596   0.292  15.381  0.0245 -0.4212 -0.1301
 2133TIP3    H127890   4.640   0.220  15.425 -2.4208 -0.2958  2.9573
 2133TIP3    H227891   4.505   0.263  15.373 -0.0494  0.3247 -3.7801
 2134TIP3   OH227892   1.577   2.631   1.532  0.1251 -0.2384 -0.1571
 2134TIP3    H127893   1.509   2.578   1.575  1.1029 -0.1337  1.6323
 2134TIP3    H227894   1.633   2.660   1.604  1.4981  0.5171 -1.4786
 2135TIP3   OH227895   1.099   1.480  13.251 -0.5337 -0.2163  0.5062
 2135TIP3    H127896   1.144   1.563  13.267  2.6116 -1.2239 -1.9784
 2135TIP3    H227897   1.045   1.497  13.174 -0.0538 -0.3752  0.1266
 2136TIP3   OH227898   0.712   2.347  12.126  0.1231  0.1342  0.1729
 2136TIP3    H127899   0.753   2.416  12.074  0.5571 -0.7319 -0.6691
 2136TIP3    H227900   0.680   2.284  12.061 -2.0492  0.4881  0.8269
 2137TIP3   OH227901   0.147   0.734   0.473 -0.1818  0.0676  0.3540
 2137TIP3    H127902   0.100   0.763   0.395  1.0285 -0.6676 -0.6988
 2137TIP3    H227903   0.079   0.702   0.531 -1.2464  1.9727  0.2354
 2138TIP3   OH227904   5.421   2.002  13.251  0.1126 -0.0665 -0.2099
 2138TIP3    H127905   5.436   1.908  13.262 -1.5037 -0.3929 -0.4579
 2138TIP3    H227906   5.326   2.009  13.238 -0.1970  1.8312  2.2745
 2139TIP3   OH227907   5.196   0.587  14.155 -0.8965  0.1519  0.0887
 2139TIP3    H127908   5.207   0.662  14.213  0.4387 -0.8625  1.2057
 2139TIP3    H227909   5.203   0.623  14.067 -0.5734  1.3667  0.6000
 2140TIP3   OH227910   1.723   4.705   0.371  0.7560  0.1535  0.0532
 2140TIP3    H127911   1.758   4.640   0.309  1.4117 -0.0699  0.6492
 2140TIP3    H227912   1.680   4.653   0.438 -0.3096  0.4109 -0.4122
 2141TIP3   OH227913   1.003   5.732   3.676  0.2455  0.1474 -0.7133
 2141TIP3    H127914   0.990   5.739   3.581  0.9412  1.4361 -0.7376
 2141TIP3    H227915   0.959   5.809   3.712  0.5444  0.0192 -0.0567
 2142TIP3   OH227916   6.820   4.334   1.212 -0.3458 -0.2316 -0.3028
 2142TIP3    H127917   6.896   4.311   1.158 -0.4526 -0.6381 -0.2828
 2142TIP3    H227918   6.756   4.266   1.193 -0.9961  0.5181 -0.8969
 2143TIP3   OH227919   6.088   3.342  16.357  0.7283  1.1900 -0.3670
 2143TIP3    H127920   6.182   3.343  16.338  0.7440  1.1680 -0.2922
 2143TIP3    H227921   6.048   3.310  16.276  0.8313  0.6679 -0.2160
 2144TIP3   OH227922   5.959   0.560   1.934  0.3757 -0.1390 -0.1627
 2144TIP3    H127923   6.012   0.638   1.945  0.3086 -0.2501  1.0841
 2144TIP3    H227924   5.874   0.593   1.905  0.3769  0.2394  0.2570
 2145TIP3   OH227925   4.400   6.101   6.192 -0.2456  0.0411  0.0216
 2145TIP3    H127926   4.439   6.045   6.260  0.7020 -0.2202 -0.7242
 2145TIP3    H227927   4.308   6.074   6.190  0.4833 -2.7181 -1.4450
 2146TIP3   OH227928   5.855   4.550   1.679 -0.5444  0.5461  0.3346
 2146TIP3    H127929   5.841   4.564   1.585  3.8177 -0.1301 -0.6729
 2146TIP3    H227930   5.829   4.460   1.694 -0.8733  0.5207 -0.3579
 2147TIP3   OH227931   4.205   5.151  15.236 -0.4160 -0.5516 -0.2621
 2147TIP3    H127932   4.289   5.175  15.196  0.1731  2.1817  2.2830
 2147TIP3    H227933   4.229   5.088  15.304 -1.2023 -3.7915 -2.7394
 2148TIP3   OH227934   1.148   5.923  12.286  0.1475  0.4225 -0.0959
 2148TIP3    H127935   1.213   5.855  12.305  0.8491  0.4970 -1.9636
 2148TIP3    H227936   1.065   5.887  12.317  0.8015 -0.4320  0.7330
 2149TIP3   OH227937   3.607   4.104  15.051 -0.3224  0.3182 -0.4674
 2149TIP3    H127938   3.643   4.129  14.965 -0.3333 -0.1860 -0.6227
 2149TIP3    H227939   3.629   4.012  15.060 -2.4466 -0.2956 -1.0131
 2150TIP3   OH227940   5.373   0.245   2.005 -0.0374  0.4243  0.4017
 2150TIP3    H127941   5.362   0.195   2.086 -1.3168  0.9686  0.5848
 2150TIP3    H227942   5.297   0.222   1.952  0.3786  0.6862 -0.3241
 2151TIP3   OH227943   2.076   0.138  10.280  0.4616 -0.4526 -0.1542
 2151TIP3    H127944   2.045   0.221  10.315  1.0001  0.2631 -1.3070
 2151TIP3    H227945   2.038   0.072  10.338  0.5914  0.6175  1.2163
 2152TIP3   OH227946   5.048   4.706  13.235 -0.5063  0.3073 -0.1177
 2152TIP3    H127947   5.051   4.740  13.146 -2.0545  1.1923  0.1281
 2152TIP3    H227948   5.059   4.611  13.225 -1.2180  0.3245 -1.3126
 2153TIP3   OH227949   1.987   6.079  13.727  0.0813 -0.3790  0.4306
 2153TIP3    H127950   2.077   6.051  13.745 -0.3027 -1.6357  0.5308
 2153TIP3    H227951   1.976   6.159  13.777  1.8538  1.1012 -1.3894
 2154TIP3   OH227952   4.676   3.705   4.836 -0.0184  0.3629 -0.1562
 2154TIP3    H127953   4.734   3.723   4.761  1.2222  0.7523  0.8573
 2154TIP3    H227954   4.588   3.707   4.799  0.5899 -0.0065 -1.7147
 2155TIP3   OH227955   5.614   0.788   5.912  0.4537 -0.4965 -0.2253
 2155TIP3    H127956   5.595   0.701   5.876  1.3146  0.0816 -2.1940
 2155TIP3    H227957   5.617   0.774   6.006  0.3225 -2.5584 -0.4768
 2156TIP3   OH227958   3.880   2.641  12.228  0.1031  0.7257 -0.1904
 2156TIP3    H127959   3.930   2.716  12.260 -0.9571  1.5936 -0.5196
 2156TIP3    H227960   3.799   2.643  12.278 -0.4217  0.5005 -1.0206
 2157TIP3   OH227961   5.829   4.984   1.558  0.2298  0.5344  0.0976
 2157TIP3    H127962   5.803   4.999   1.467 -0.9860  0.6499  0.4475
 2157TIP3    H227963   5.769   4.916   1.589  1.6733 -0.6863  0.3664
 2158TIP3   OH227964   6.103   6.265  12.868 -0.5340 -0.6424 -0.3769
 2158TIP3    H127965   6.088   6.329  12.938 -2.5671  1.3865 -2.4675
 2158TIP3    H227966   6.174   6.304  12.815  1.1162 -2.2418  0.5569
 2159TIP3   OH227967   2.394   0.598   5.701 -0.0417 -0.4053 -0.6143
 2159TIP3    H127968   2.447   0.522   5.724  2.4191  1.0527 -1.0640
 2159TIP3    H227969   2.388   0.649   5.782  0.0184 -0.1410 -0.7734
 2160TIP3   OH227970   5.583   0.001   2.745  0.0110  0.7223  0.2446
 2160TIP3    H127971   5.500   0.026   2.705 -0.2228 -0.4392 -0.0412
 2160TIP3    H227972   5.639   0.078   2.735 -0.9057  1.3862  0.1045
 2161TIP3   OH227973   6.534   1.942   4.975  0.1265  0.2155  0.2730
 2161TIP3    H127974   6.489   1.885   4.913 -0.3143  0.1786  0.6282
 2161TIP3    H227975   6.627   1.925   4.960 -0.0008 -1.0317  0.7700
 2162TIP3   OH227976   4.608   1.579  15.296  0.1873 -0.8163  0.2374
 2162TIP3    H127977   4.653   1.520  15.236  1.9447 -1.3979  2.0356
 2162TIP3    H227978   4.515   1.569  15.275  0.7376 -0.3581 -2.8985
 2163TIP3   OH227979   0.813   1.904   2.905  0.0613 -0.0211 -1.0470
 2163TIP3    H127980   0.816   1.995   2.876  0.0776  0.4063  0.2453
 2163TIP3    H227981   0.772   1.907   2.991  2.8633 -0.8206  0.4468
 2164TIP3   OH227982   6.796   3.743  11.867  0.0006 -1.0149 -0.4818
 2164TIP3    H127983   6.867   3.678  11.869 -0.0205 -1.0231  0.8804
 2164TIP3    H227984   6.717   3.692  11.848  0.1889 -1.1726 -0.8519
 2165TIP3   OH227985   1.407   1.753   1.956  0.5417 -0.2348 -0.5259
 2165TIP3    H127986   1.333   1.734   2.014 -0.3907 -0.6823 -1.8214
 2165TIP3    H227987   1.393   1.698   1.880  2.0826 -0.1179 -0.9274
 2166TIP3   OH227988   3.936   4.331  17.033 -0.3121  0.2435  0.4580
 2166TIP3    H127989   3.981   4.388  17.096 -1.1644  1.9369 -0.3815
 2166TIP3    H227990   3.865   4.386  16.999 -0.9706 -1.2463 -0.6548
 2167TIP3   OH227991   2.488   2.396   5.570 -0.6926 -0.8899 -0.1769
 2167TIP3    H127992   2.428   2.390   5.495 -0.3045 -1.5429 -0.4426
 2167TIP3    H227993   2.436   2.439   5.638 -0.7798  0.5220 -1.0894
 2168TIP3   OH227994   4.037   5.350  15.479 -0.0021 -0.8125 -0.3218
 2168TIP3    H127995   4.042   5.445  15.494  2.0860 -0.5521 -2.0867
 2168TIP3    H227996   3.972   5.340  15.410  1.1191 -0.4291 -1.4622
 2169TIP3   OH227997   5.542   4.193  11.719  0.5464 -0.0826  0.3295
 2169TIP3    H127998   5.549   4.278  11.763  2.8052  0.2743 -0.5864
 2169TIP3    H227999   5.632   4.167  11.703 -0.1236 -2.2435 -0.2556
 2170TIP3   OH228000   2.842   5.747  16.200 -1.0556  0.1603  0.7850
 2170TIP3    H128001   2.840   5.676  16.136 -0.3642  1.7327 -1.0870
 2170TIP3    H228002   2.908   5.720  16.264 -1.0692 -1.0345  0.3184
 2171TIP3   OH228003   4.594   2.432   4.293 -0.3034 -0.1158 -0.1950
 2171TIP3    H128004   4.543   2.377   4.234 -0.5070 -0.0263 -0.1032
 2171TIP3    H228005   4.680   2.440   4.251 -0.2836 -0.4743 -0.2261
 2172TIP3   OH228006   5.758   4.354   1.229  0.1396 -0.6849  0.5384
 2172TIP3    H128007   5.837   4.319   1.188  0.1914 -1.9795  1.6746
 2172TIP3    H228008   5.714   4.277   1.266 -1.0533  0.1567  0.9208
 2173TIP3   OH228009   0.316   4.598   2.790 -0.0414  0.0553 -0.0808
 2173TIP3    H128010   0.227   4.628   2.808  0.5643  1.3481  1.0602
 2173TIP3    H228011   0.310   4.503   2.787 -1.4315  0.1142  0.1763
 2174TIP3   OH228012   6.545   4.888   3.544 -0.1260 -0.0935 -0.3806
 2174TIP3    H128013   6.504   4.874   3.459 -0.7664 -1.2466  0.1024
 2174TIP3    H228014   6.638   4.873   3.528 -0.1697  0.2422 -0.9867
 2175TIP3   OH228015   3.382   1.869   0.322  0.0380 -0.6361 -0.1684
 2175TIP3    H128016   3.415   1.903   0.405  1.6152 -0.1032 -0.9693
 2175TIP3    H228017   3.354   1.780   0.342  3.4194 -1.7459  0.3411
 2176TIP3   OH228018   4.009   5.965   2.261  0.3711 -0.2122 -0.2872
 2176TIP3    H128019   3.951   5.978   2.186  0.0640 -2.1323 -0.4312
 2176TIP3    H228020   3.951   5.972   2.337 -0.4663 -3.5234 -0.4728
 2177TIP3   OH228021   4.427   3.780  12.448  0.1268 -0.2519 -0.4457
 2177TIP3    H128022   4.508   3.799  12.495  0.3837  0.8431 -1.2925
 2177TIP3    H228023   4.369   3.742  12.514  1.3321 -1.0753  0.1664
 2178TIP3   OH228024   3.672   4.381  16.458 -0.0657  0.4004  0.2277
 2178TIP3    H128025   3.646   4.290  16.471 -0.5563  0.5719  0.4940
 2178TIP3    H228026   3.742   4.396  16.522 -0.4244  0.3886  0.6308
 2179TIP3   OH228027   4.342   0.889  11.343 -0.3628 -0.3048  0.2002
 2179TIP3    H128028   4.427   0.844  11.349 -0.3645 -0.2414  0.7928
 2179TIP3    H228029   4.278   0.818  11.333 -0.3587 -0.4422  1.0638
 2180TIP3   OH228030   0.110   3.160   5.922  0.4663  0.3304  0.1150
 2180TIP3    H128031   0.018   3.184   5.913  1.0551  2.4276 -0.9566
 2180TIP3    H228032   0.157   3.243   5.912  2.4738 -0.6928  0.6708
 2181TIP3   OH228033   4.557   2.373  12.391  0.0222  0.3787 -0.3527
 2181TIP3    H128034   4.564   2.355  12.297  0.6230  0.4502 -0.3199
 2181TIP3    H228035   4.469   2.410  12.401 -0.7473 -1.2617 -0.6160
 2182TIP3   OH228036   0.377   5.213   4.118  0.8433 -0.3891  0.5188
 2182TIP3    H128037   0.473   5.219   4.110  0.7489 -0.6103 -1.0461
 2182TIP3    H228038   0.347   5.303   4.109  0.8340 -0.4647 -0.2437
 2183TIP3   OH228039   6.197   0.528  11.898 -0.3987  0.0100 -0.2518
 2183TIP3    H128040   6.152   0.610  11.917 -0.2119 -0.0648  0.5506
 2183TIP3    H228041   6.255   0.514  11.973  0.5878 -0.1563 -1.0325
 2184TIP3   OH228042   0.926   0.028  14.402 -0.6019 -0.5227  0.3181
 2184TIP3    H128043   0.832   0.046  14.410 -0.6655 -0.4929 -0.4421
 2184TIP3    H228044   0.932  -0.036  14.331  0.1663  1.6711 -1.7505
 2185TIP3   OH228045   6.728   4.798  12.910  0.1871 -0.2322  0.4846
 2185TIP3    H128046   6.820   4.810  12.934  0.0670 -0.1527  0.9066
 2185TIP3    H228047   6.725   4.712  12.869  0.8674  0.6731 -1.5998
 2186TIP3   OH228048   2.839   0.860  13.080  0.2017 -0.5081  0.0503
 2186TIP3    H128049   2.744   0.849  13.073  0.0228  0.5549  0.5908
 2186TIP3    H228050   2.868   0.786  13.133 -0.4258 -0.4312  0.5077
 2187TIP3   OH228051   2.312   4.918  12.327  0.2414  0.0278  0.1001
 2187TIP3    H128052   2.296   4.896  12.419 -1.6537 -2.9587 -0.7940
 2187TIP3    H228053   2.403   4.892  12.312  0.3556 -0.1176  0.9595
 2188TIP3   OH228054   5.831   4.455   4.229  0.3085 -0.3572  0.0537
 2188TIP3    H128055   5.770   4.510   4.181  0.8571  1.7239  1.5788
 2188TIP3    H228056   5.784   4.432   4.309  0.8769 -0.1915  0.4444
 2189TIP3   OH228057   5.737   0.507  11.584  0.2178 -0.0816  0.1627
 2189TIP3    H128058   5.744   0.528  11.677  0.9308  1.4750 -0.2062
 2189TIP3    H228059   5.812   0.451  11.565  1.1332  1.1006  0.1696
 2190TIP3   OH228060   2.779   1.777  11.698 -0.4812 -0.9308 -0.3290
 2190TIP3    H128061   2.787   1.795  11.604  0.2705 -1.9087 -0.4694
 2190TIP3    H228062   2.750   1.686  11.703  1.0078 -1.4024  0.3821
 2191TIP3   OH228063   1.922   4.261   5.494 -0.8956 -0.5360  0.2667
 2191TIP3    H128064   1.903   4.174   5.531  2.1815 -1.9101 -1.0651
 2191TIP3    H228065   1.873   4.264   5.412  0.7646 -2.0895 -0.8536
 2192TIP3   OH228066   3.310   6.713  12.207 -0.0772  0.6427 -0.2145
 2192TIP3    H128067   3.359   6.745  12.132  0.8056  1.4084  0.6516
 2192TIP3    H228068   3.377   6.697  12.274 -0.5441 -2.5007 -0.3802
 2193TIP3   OH228069   0.728   2.949  15.646  0.0425 -0.1006  0.1182
 2193TIP3    H128070   0.648   2.939  15.595  0.0996  1.1944 -0.2551
 2193TIP3    H228071   0.707   2.913  15.732  0.1312 -2.8990 -0.9209
 2194TIP3   OH228072   0.737   4.878  12.375  0.0095  0.4703 -0.2699
 2194TIP3    H128073   0.674   4.855  12.443  0.3351  2.3181  0.7102
 2194TIP3    H228074   0.822   4.854  12.412  0.1746  1.3564 -0.0575
 2195TIP3   OH228075   0.983   6.214  12.773 -0.4396  0.3686  0.1948
 2195TIP3    H128076   0.893   6.184  12.759 -0.1405 -0.7576  0.5606
 2195TIP3    H228077   1.026   6.202  12.688 -0.8034  1.5764 -0.1742
 2196TIP3   OH228078   0.897   5.518  11.869  0.0643 -0.1865  0.0113
 2196TIP3    H128079   0.991   5.502  11.873 -0.1200 -2.0638 -1.7874
 2196TIP3    H228080   0.865   5.499  11.957  1.1904 -0.8259  0.2975
 2197TIP3   OH228081   0.096   0.740  11.073 -0.1702  0.4401 -0.0089
 2197TIP3    H128082   0.057   0.654  11.086 -0.0403  0.6213  1.9133
 2197TIP3    H228083   0.028   0.791  11.029 -0.8933 -0.1650  0.3839
 2198TIP3   OH228084   4.320   2.216   2.288 -0.7218 -0.6438  0.0568
 2198TIP3    H128085   4.401   2.259   2.261 -1.6641  0.2702 -1.4775
 2198TIP3    H228086   4.348   2.149   2.350  0.8684  1.7080  2.0478
 2199TIP3   OH228087   4.097   4.795  15.695  0.0990  0.0390  0.1019
 2199TIP3    H128088   4.050   4.792  15.612  0.6111 -1.0906 -0.1651
 2199TIP3    H228089   4.158   4.722  15.690 -1.6926 -1.8055  2.5536
 2200TIP3   OH228090   1.506   3.152  12.973 -0.1601 -0.0259 -0.0685
 2200TIP3    H128091   1.599   3.126  12.973  0.3599  1.6462  1.9861
 2200TIP3    H228092   1.494   3.197  12.889  1.3804  1.2706  0.3595
 2201TIP3   OH228093   4.920   2.139  13.671  0.3890 -0.1395 -0.0358
 2201TIP3    H128094   5.008   2.110  13.646  1.0912  0.6594  1.3553
 2201TIP3    H228095   4.924   2.234  13.665 -0.7229 -0.1368 -0.9489
 2202TIP3   OH228096   4.218   5.784   1.569  0.1595  0.2086 -0.6191
 2202TIP3    H128097   4.170   5.867   1.572 -0.1276  0.0699 -1.2466
 2202TIP3    H228098   4.204   5.752   1.480  0.5509 -0.3482 -0.4803
 2203TIP3   OH228099   4.605   0.131   4.656 -0.5110 -0.5145  0.2880
 2203TIP3    H128100   4.559   0.057   4.695 -1.2117 -0.1556  0.1588
 2203TIP3    H228101   4.536   0.195   4.639  0.0984  0.1893  0.4517
 2204TIP3   OH228102   3.380   1.846  15.515 -0.7414 -0.6291 -0.8067
 2204TIP3    H128103   3.423   1.808  15.591 -0.3872  1.9121  0.3888
 2204TIP3    H228104   3.289   1.857  15.543 -0.0977  2.8449  0.5119
 2205TIP3   OH228105   4.846   0.497  14.544  0.5441  0.1590  0.0964
 2205TIP3    H128106   4.859   0.427  14.608 -0.5537  0.3475  0.5391
 2205TIP3    H228107   4.788   0.559  14.588 -2.3167 -0.8912 -1.9163
 2206TIP3   OH228108   5.586   6.579   0.121  0.2668  0.1437  0.1999
 2206TIP3    H128109   5.642   6.572   0.198 -1.0592 -2.1299  1.0775
 2206TIP3    H228110   5.638   6.541   0.050  0.9139  0.7747  0.3322
 2207TIP3   OH228111   0.450   2.094   3.254 -0.2359 -0.6880 -0.1017
 2207TIP3    H128112   0.536   2.116   3.218  0.2275  0.7486  1.7674
 2207TIP3    H228113   0.401   2.060   3.179  1.7655 -1.0307 -1.3237
 2208TIP3   OH228114   1.809   0.102  14.646 -0.3197  0.1389 -0.3039
 2208TIP3    H128115   1.772   0.045  14.713 -0.7180 -0.0622 -0.6867
 2208TIP3    H228116   1.844   0.042  14.581 -2.1487  0.2676 -1.4983
 2209TIP3   OH228117   2.929   2.606   6.035 -0.0243 -0.0929 -0.7247
 2209TIP3    H128118   2.842   2.568   6.020  0.0462 -0.2838 -0.6483
 2209TIP3    H228119   2.989   2.534   6.019  0.0254 -0.5638  1.3778
 2210TIP3   OH228120   6.805   5.889  16.063 -0.0606 -0.1206 -0.2617
 2210TIP3    H128121   6.777   5.798  16.061 -0.1699 -0.1503  1.3037
 2210TIP3    H228122   6.852   5.898  16.146  1.0478  0.9493 -0.9688
 2211TIP3   OH228123   2.565   4.397  13.716  0.6383  0.7001  0.2093
 2211TIP3    H128124   2.527   4.481  13.741  0.4832  1.3173 -1.9586
 2211TIP3    H228125   2.505   4.332  13.753  0.6762  1.5140  1.7715
 2212TIP3   OH228126   5.450   5.471  12.835  0.1469  0.7993 -0.5066
 2212TIP3    H128127   5.362   5.486  12.800  0.2041 -0.6474 -1.3645
 2212TIP3    H228128   5.509   5.504  12.766  0.2544 -1.5100 -1.6311
 2213TIP3   OH228129   1.963   5.357   2.964 -0.4309 -0.6539  0.1621
 2213TIP3    H128130   1.906   5.415   2.913  0.5797  1.8128  1.6244
 2213TIP3    H228131   2.023   5.319   2.899 -1.1355 -0.0646 -0.8643
 2214TIP3   OH228132   0.910   5.956   4.189  0.3060  0.5840 -0.0518
 2214TIP3    H128133   0.861   5.873   4.194  0.3164  0.6318  2.1087
 2214TIP3    H228134   0.974   5.942   4.120 -0.5472 -0.7310 -0.6226
 2215TIP3   OH228135   4.041   6.056   5.922 -0.1176 -0.1188 -0.0260
 2215TIP3    H128136   4.117   6.109   5.902 -0.5006  0.5183  0.1751
 2215TIP3    H228137   4.062   5.969   5.887  0.4989  0.1703 -0.3846
 2216TIP3   OH228138   3.392   4.585   5.872  0.2460  0.1770  0.1924
 2216TIP3    H128139   3.410   4.597   5.965 -1.2929  0.0858  0.5268
 2216TIP3    H228140   3.473   4.548   5.837  0.6848 -0.2592  1.5907
 2217TIP3   OH228141   6.855   2.314  11.631 -0.6040  0.0308  0.1950
 2217TIP3    H128142   6.760   2.311  11.645 -0.3812 -1.1405  1.6045
 2217TIP3    H228143   6.871   2.249  11.562 -0.6642 -0.9130  1.0547
 2218TIP3   OH228144   5.715   6.255  17.001 -0.8167  0.1519  0.2363
 2218TIP3    H128145   5.734   6.348  16.983 -1.4069 -0.0077 -1.4259
 2218TIP3    H228146   5.681   6.255  17.091  0.0244  1.4154  0.5919
 2219TIP3   OH228147   3.676   2.605   1.650  0.1873 -0.2071 -0.6137
 2219TIP3    H128148   3.678   2.700   1.638 -0.5428  0.1786  1.6891
 2219TIP3    H228149   3.584   2.586   1.668  0.5878 -1.0591  0.6875
 2220TIP3   OH228150   4.873   6.597  13.260 -0.2745  0.1006  0.5465
 2220TIP3    H128151   4.811   6.562  13.324 -1.6051 -1.1838 -1.3180
 2220TIP3    H228152   4.903   6.520  13.212  0.5060  1.0336 -0.5126
 2221TIP3   OH228153   4.882   2.446  14.253  0.2315 -0.2608  0.2714
 2221TIP3    H128154   4.797   2.425  14.214  1.6157 -2.5777 -1.8283
 2221TIP3    H228155   4.884   2.541  14.257 -2.4041 -0.1261  0.3518
 2222TIP3   OH228156   2.040   3.825   6.182 -0.7976 -0.2253  0.5879
 2222TIP3    H128157   2.105   3.880   6.227 -0.2999  0.2249 -0.6272
 2222TIP3    H228158   1.958   3.842   6.229 -0.3544  0.4227  1.1534
 2223TIP3   OH228159   1.029   3.164   1.872 -0.0431 -0.2508  0.9155
 2223TIP3    H128160   1.002   3.183   1.961  1.0323 -1.0142  1.4257
 2223TIP3    H228161   0.965   3.101   1.840 -1.1583  0.9595  0.6862
 2224TIP3   OH228162   4.865   3.208  14.454 -0.0881 -0.0518 -0.1961
 2224TIP3    H128163   4.816   3.273  14.404 -0.6211  0.6766  1.1961
 2224TIP3    H228164   4.868   3.245  14.543  2.7269 -0.1961 -0.1456
 2225TIP3   OH228165   1.141   2.945   0.356 -0.2245  0.3873  0.2382
 2225TIP3    H128166   1.080   2.993   0.301 -0.4104 -1.3324 -1.1348
 2225TIP3    H228167   1.107   2.855   0.358  1.1272 -0.1478  1.1482
 2226TIP3   OH228168   0.278   1.591  13.512 -0.5848  0.3173  0.5168
 2226TIP3    H128169   0.231   1.589  13.428 -2.1921 -0.1021  1.3874
 2226TIP3    H228170   0.343   1.520  13.504 -1.6354 -0.6316  0.1225
 2227TIP3   OH228171   4.078   1.816  12.824  0.3890 -0.2354 -0.8114
 2227TIP3    H128172   4.053   1.796  12.914  1.0094  0.8516 -0.3798
 2227TIP3    H228173   4.150   1.878  12.833  0.8116 -0.5337 -2.0586
 2228TIP3   OH228174   6.109   0.862  11.619  0.4248  0.2857  0.3928
 2228TIP3    H128175   6.173   0.922  11.657  3.1255 -1.8827 -0.4231
 2228TIP3    H228176   6.089   0.898  11.533  0.8412  0.7886  0.5071
 2229TIP3   OH228177   5.022   4.800  12.969 -0.1648 -0.4350 -0.1224
 2229TIP3    H128178   5.002   4.708  12.953  2.2089 -0.7467 -1.9018
 2229TIP3    H228179   5.118   4.804  12.970 -0.1575  1.6729  2.3708
 2230TIP3   OH228180   1.821   1.629  11.757 -0.1870  0.5632  0.0496
 2230TIP3    H128181   1.761   1.560  11.786  0.6446  0.0029  0.4885
 2230TIP3    H228182   1.764   1.700  11.730 -1.0806 -0.4811 -0.9085
 2231TIP3   OH228183   0.698   4.531  15.392 -0.4071  0.1452  0.1470
 2231TIP3    H128184   0.735   4.598  15.451  2.5613 -1.4769  0.3311
 2231TIP3    H228185   0.715   4.566  15.304  0.3868  0.0482  0.2501
 2232TIP3   OH228186   5.966   2.090  10.977 -0.0116  0.2655 -0.0994
 2232TIP3    H128187   6.038   2.143  11.009 -1.2897  0.8186  2.1116
 2232TIP3    H228188   5.928   2.141  10.905  0.7110  0.7875 -0.1222
 2233TIP3   OH228189   3.433   6.126   1.373 -0.1103 -0.5159  0.2607
 2233TIP3    H128190   3.466   6.039   1.354  2.6879 -0.2846  3.1835
 2233TIP3    H228191   3.338   6.114   1.384 -0.6167 -2.1268 -4.0280
 2234TIP3   OH228192   1.862   6.523  14.180 -0.0494 -0.4308 -0.2366
 2234TIP3    H128193   1.957   6.516  14.184 -0.0010 -0.7351 -1.5695
 2234TIP3    H228194   1.837   6.558  14.265  1.1312 -1.6623  0.6602
 2235TIP3   OH228195   4.234   1.890   5.713 -1.0088 -0.2463  0.1680
 2235TIP3    H128196   4.313   1.874   5.661 -1.4495 -1.6254 -0.1049
 2235TIP3    H228197   4.175   1.935   5.653 -0.8932 -0.3242 -0.0055
 2236TIP3   OH228198   0.036   6.626   1.500  0.6855 -0.1694 -0.6489
 2236TIP3    H128199  -0.046   6.581   1.479  1.2107 -0.7889 -1.4512
 2236TIP3    H228200   0.054   6.605   1.591 -0.5971  0.8706 -0.1188
 2237TIP3   OH228201   3.279   5.712  16.549 -0.7317 -0.9563  0.0995
 2237TIP3    H128202   3.187   5.692  16.565 -0.5301 -0.3216  2.4568
 2237TIP3    H228203   3.322   5.626  16.547 -1.0917 -1.1874  1.2517
 2238TIP3   OH228204   0.022   1.117  13.484  0.2838 -0.1599 -0.1497
 2238TIP3    H128205  -0.005   1.031  13.518 -2.2404  0.7115  0.2710
 2238TIP3    H228206  -0.024   1.125  13.400  1.4760  0.3028 -0.7794
 2239TIP3   OH228207   2.589   4.549   5.148 -0.2895  0.2245 -0.6270
 2239TIP3    H128208   2.569   4.458   5.127 -0.6987  0.0181  0.5684
 2239TIP3    H228209   2.683   4.557   5.134 -0.1241 -0.5846 -0.0532
 2240TIP3   OH228210   4.448   3.418  14.924  0.3270  0.7055 -0.1515
 2240TIP3    H128211   4.461   3.326  14.899  1.2800  0.3047  1.6807
 2240TIP3    H228212   4.419   3.414  15.015 -0.8170  2.1945 -0.4195
 2241TIP3   OH228213   0.783   1.309  10.980  0.2762  0.7969  0.2188
 2241TIP3    H128214   0.738   1.338  11.060 -0.8862  1.7792 -0.7508
 2241TIP3    H228215   0.786   1.386  10.924 -1.0641 -0.4151 -1.6463
 2242TIP3   OH228216   5.550   6.085  12.884  0.7831 -0.1281 -0.2727
 2242TIP3    H128217   5.546   6.170  12.926 -0.1577  0.0279 -0.6440
 2242TIP3    H228218   5.501   6.027  12.943 -1.5257  0.3263 -1.6229
 2243TIP3   OH228219   3.498   2.387   3.181  0.1066  0.6232  0.3325
 2243TIP3    H128220   3.424   2.448   3.178  0.2261  0.7409 -0.7375
 2243TIP3    H228221   3.571   2.436   3.143  0.7802  0.5460  1.4804
 2244TIP3   OH228222   4.906   2.966   0.590  0.2592  0.4042 -0.2334
 2244TIP3    H128223   4.909   3.014   0.673  0.9275 -2.3347  1.4520
 2244TIP3    H228224   4.996   2.969   0.558 -0.0004  1.4662 -0.9267
 2245TIP3   OH228225   0.869   5.230  14.669 -0.8442  0.1268  0.3531
 2245TIP3    H128226   0.951   5.199  14.629  0.4749  2.0776  1.3686
 2245TIP3    H228227   0.806   5.232  14.597  0.6789  0.8825 -1.0138
 2246TIP3   OH228228   6.293   0.264  10.876 -0.1344 -0.3590  0.1281
 2246TIP3    H128229   6.372   0.255  10.822 -1.3085 -0.9655 -1.5736
 2246TIP3    H228230   6.272   0.357  10.871  1.6296  0.2425  2.3932
 2247TIP3   OH228231   4.322   4.220   2.624  0.7933 -0.3971 -0.4046
 2247TIP3    H128232   4.335   4.290   2.687  1.4771  0.1044 -1.0804
 2247TIP3    H228233   4.396   4.161   2.638  1.4847  0.2106 -1.3523
 2248TIP3   OH228234   0.956   3.243  14.658 -0.1461 -0.0709  0.5481
 2248TIP3    H128235   1.035   3.242  14.712  1.2061  1.9810 -1.2436
 2248TIP3    H228236   0.921   3.332  14.668 -1.0351 -0.3005 -0.3267
 2249TIP3   OH228237   6.612   5.805  16.491  0.7603 -0.2308  0.0517
 2249TIP3    H128238   6.591   5.791  16.399  0.3499 -0.8804  0.2288
 2249TIP3    H228239   6.594   5.720  16.532 -2.3242  0.8732  1.3068
 2250TIP3   OH228240   6.129   1.804   4.674 -0.1665 -0.3923  0.5412
 2250TIP3    H128241   6.070   1.773   4.605  0.4299  0.9742 -0.6272
 2250TIP3    H228242   6.074   1.807   4.752 -1.4711  0.1490 -0.3477
 2251TIP3   OH228243   4.076   4.432   2.230 -0.0031  0.1726  0.3641
 2251TIP3    H128244   4.118   4.405   2.149 -1.6898 -1.3204 -0.0819
 2251TIP3    H228245   4.046   4.521   2.213  2.1646  0.9548  0.4170
 2252TIP3   OH228246   1.997   4.360   0.147  0.2809 -0.4013 -0.2430
 2252TIP3    H128247   2.085   4.355   0.185  0.2298 -0.4643 -0.1345
 2252TIP3    H228248   2.005   4.314   0.063  0.0980 -1.2998  0.2264
 2253TIP3   OH228249   3.857   4.709   5.530  0.6670 -0.0745 -0.3624
 2253TIP3    H128250   3.939   4.704   5.579  0.5170 -0.4069 -0.1434
 2253TIP3    H228251   3.876   4.669   5.445  1.2863  1.6296 -1.0842
 2254TIP3   OH228252   2.395   3.627  16.073  0.0461  0.4531 -0.4934
 2254TIP3    H128253   2.475   3.646  16.123  2.2589 -1.3572 -3.0153
 2254TIP3    H228254   2.377   3.535  16.090 -1.1845  0.6830 -0.4532
 2255TIP3   OH228255   2.744   5.842  16.692 -0.2460  0.4401  0.1237
 2255TIP3    H128256   2.750   5.860  16.598 -1.6532  1.2839  0.1671
 2255TIP3    H228257   2.733   5.747  16.697 -1.1358  0.4942 -0.6223
 2256TIP3   OH228258   0.320   0.602   3.277  0.5222  0.3211  0.2220
 2256TIP3    H128259   0.397   0.621   3.330  0.2443 -0.3915  0.8877
 2256TIP3    H228260   0.250   0.654   3.317  0.4159  0.1469  0.2599
 2257TIP3   OH228261   6.585   5.314   4.763 -0.4264 -0.2798  0.0110
 2257TIP3    H128262   6.621   5.271   4.685 -0.0452  1.2828 -0.7230
 2257TIP3    H228263   6.552   5.242   4.817 -0.6261 -1.4158 -1.5479
 2258TIP3   OH228264   3.729   0.521   5.446  0.1382 -0.0243 -0.0819
 2258TIP3    H128265   3.670   0.455   5.408 -0.4399  0.4737 -0.0701
 2258TIP3    H228266   3.811   0.474   5.460  0.4398 -0.1701 -2.1154
 2259TIP3   OH228267   0.506   5.944  13.678  0.3382  0.0544 -0.0520
 2259TIP3    H128268   0.485   5.904  13.593  0.2945  0.3502 -0.1828
 2259TIP3    H228269   0.572   6.011  13.657 -2.1830  2.6328 -0.4400
 2260TIP3   OH228270   1.613   2.696  13.167  0.0677 -0.1270 -0.3411
 2260TIP3    H128271   1.682   2.756  13.139 -0.3834  0.1016 -0.9912
 2260TIP3    H228272   1.638   2.612  13.129  0.4964 -0.2760  0.2476
 2261TIP3   OH228273   0.628   1.518  14.103  0.0939 -0.9551 -0.3448
 2261TIP3    H128274   0.594   1.603  14.131  0.9447  0.0569 -2.2078
 2261TIP3    H228275   0.551   1.463  14.092 -0.4097 -0.8406  1.9411
 2262TIP3   OH228276   4.787   5.187   2.096  0.1680 -0.3135 -0.0180
 2262TIP3    H128277   4.767   5.248   2.025  0.4244 -0.0410  0.1413
 2262TIP3    H228278   4.882   5.193   2.106  0.0599  0.2030  0.8349
 2263TIP3   OH228279   5.880   4.329  15.845 -0.3281  0.2586  0.1652
 2263TIP3    H128280   5.933   4.369  15.915 -1.2933  0.6351  0.6947
 2263TIP3    H228281   5.892   4.388  15.770 -0.5131  0.7133  0.4842
 2264TIP3   OH228282   2.586   0.386  11.475  0.2369 -0.2893  0.1602
 2264TIP3    H128283   2.679   0.404  11.462 -0.1165  2.3579  0.7970
 2264TIP3    H228284   2.577   0.375  11.570 -0.1539 -0.0768  0.1491
 2265TIP3   OH228285   6.679   1.741  10.322 -0.6865  0.0911  0.1780
 2265TIP3    H128286   6.753   1.718  10.266 -0.8699  0.7269 -0.3354
 2265TIP3    H228287   6.613   1.775  10.262 -0.8872  0.7798  0.7805
 2266TIP3   OH228288   6.023   4.125  15.996 -0.2584  0.2020 -0.2246
 2266TIP3    H128289   6.020   4.170  16.081  0.0032  0.0926 -0.1548
 2266TIP3    H228290   5.987   4.189  15.934 -0.0966  0.4250 -0.0924
 2267TIP3   OH228291   2.688   6.098   5.202  0.7453  0.0829 -0.0601
 2267TIP3    H128292   2.738   6.137   5.130  1.4403 -0.4627  0.1052
 2267TIP3    H228293   2.675   6.007   5.174 -0.4011  0.2824 -0.2163
 2268TIP3   OH228294   6.672   5.421   1.726  0.0676  0.2609 -0.1119
 2268TIP3    H128295   6.684   5.404   1.819  1.8579  0.1000 -0.3242
 2268TIP3    H228296   6.738   5.366   1.684 -0.2084  0.8966 -1.4192
 2269TIP3   OH228297   5.242   5.515   3.165  0.0660  0.1256 -0.0936
 2269TIP3    H128298   5.276   5.596   3.126  0.1529  1.9162  3.2898
 2269TIP3    H228299   5.318   5.458   3.170 -0.2463 -0.8365 -3.6746
 2270TIP3   OH228300   6.668   2.658  13.088  0.6172  0.4529  0.0278
 2270TIP3    H128301   6.584   2.696  13.115 -0.3377 -1.7853  0.4631
 2270TIP3    H228302   6.687   2.592  13.155  2.8211  0.9832  0.0065
 2271TIP3   OH228303   2.407   5.029  16.752 -0.5432  0.0171 -0.1746
 2271TIP3    H128304   2.393   5.107  16.699  0.6042 -0.6524 -1.5081
 2271TIP3    H228305   2.367   4.958  16.702  0.3147 -0.5840 -0.0275
 2272TIP3   OH228306   4.759   1.267  14.871 -0.0030 -0.1602 -0.5350
 2272TIP3    H128307   4.724   1.280  14.783 -1.4530 -2.3492 -0.3624
 2272TIP3    H228308   4.688   1.293  14.930  0.1662 -0.7099 -0.0759
 2273TIP3   OH228309   6.492   6.608  13.087 -0.0180  0.0116 -0.7788
 2273TIP3    H128310   6.419   6.647  13.135  1.1322  0.1630  0.9399
 2273TIP3    H228311   6.452   6.539  13.034 -1.4053  0.1274  0.0668
 2274TIP3   OH228312   1.506   2.696  16.548 -0.1220  0.1212  0.0698
 2274TIP3    H128313   1.456   2.759  16.600 -1.1930 -0.9120  0.3230
 2274TIP3    H228314   1.465   2.699  16.462 -1.6689 -1.7925  0.6621
 2275TIP3   OH228315   4.077   1.961  17.059 -0.0824  1.1760 -0.1629
 2275TIP3    H128316   4.018   2.036  17.049 -1.4362  0.1234 -0.2716
 2275TIP3    H228317   4.034   1.905  17.124  1.3922  0.9254  0.6417
 2276TIP3   OH228318   3.554   1.426   5.393 -0.1898  0.0999  0.7207
 2276TIP3    H128319   3.493   1.458   5.459 -1.4568 -0.9971  0.1253
 2276TIP3    H228320   3.601   1.356   5.436 -1.0729 -0.6693  0.4632
 2277TIP3   OH228321   5.291   5.622  13.127  0.9655 -0.2451  0.0202
 2277TIP3    H128322   5.256   5.535  13.146  0.0432 -0.2732 -1.5960
 2277TIP3    H228323   5.268   5.675  13.203 -0.5748 -0.8544  0.0107
 2278TIP3   OH228324   6.782   4.390   6.181  0.1638 -0.2623 -0.1271
 2278TIP3    H128325   6.877   4.388   6.179  0.1742 -0.6058  0.5055
 2278TIP3    H228326   6.761   4.449   6.253 -0.1208  2.0712 -1.9877
 2279TIP3   OH228327   4.116   4.287   5.250 -0.0733 -0.1451 -0.0492
 2279TIP3    H128328   4.066   4.326   5.178  0.4035 -0.4576 -0.5689
 2279TIP3    H228329   4.071   4.205   5.269  0.6536 -0.8078 -1.0474
 2280TIP3   OH228330   5.618   5.063  17.034 -0.2322 -0.3006  0.1336
 2280TIP3    H128331   5.617   5.010  16.954  2.7819  0.2752 -0.3851
 2280TIP3    H228332   5.598   5.151  17.004  2.0529  0.1403 -0.2790
 2281TIP3   OH228333   5.223   3.898  13.711 -0.8872  0.0858  0.1212
 2281TIP3    H128334   5.307   3.854  13.721  0.9422  3.0969 -0.8437
 2281TIP3    H228335   5.200   3.886  13.618 -1.5468 -0.7233  0.3799
 2282TIP3   OH228336   1.552   5.742  10.410 -0.2546 -0.1428  0.2596
 2282TIP3    H128337   1.617   5.689  10.456 -1.1176  0.8770  2.7893
 2282TIP3    H228338   1.469   5.697  10.424 -0.6340  0.5523  0.2684
 2283TIP3   OH228339   0.246   0.645   1.402  0.7818 -0.4172 -0.1506
 2283TIP3    H128340   0.155   0.675   1.398  0.6992 -0.7219 -0.7232
 2283TIP3    H228341   0.297   0.717   1.367  0.7295 -0.3773 -0.1443
 2284TIP3   OH228342   0.635   6.243  12.680 -0.0134 -0.4712  0.4403
 2284TIP3    H128343   0.630   6.258  12.774  0.5360  4.5679 -0.0811
 2284TIP3    H228344   0.550   6.269  12.646  1.8330  5.1856 -0.8566
 2285TIP3   OH228345   2.739   6.070  13.678 -0.3915  0.1285  0.1252
 2285TIP3    H128346   2.698   6.145  13.637 -2.3389 -0.6568  0.5198
 2285TIP3    H228347   2.789   6.028  13.608 -0.5302  0.9243 -0.4632
 2286TIP3   OH228348   1.819   1.003  16.018 -0.1563  0.5074  0.3211
 2286TIP3    H128349   1.799   0.943  16.090 -3.2837 -1.4933 -1.9305
 2286TIP3    H228350   1.901   0.971  15.981 -1.1121 -1.7045 -0.0438
 2287TIP3   OH228351   0.157   5.117  16.369 -0.0489  0.3991 -0.3731
 2287TIP3    H128352   0.149   5.208  16.400 -0.8686  0.1438  0.1849
 2287TIP3    H228353   0.098   5.067  16.425  0.8143 -0.5803 -0.3051
 2288TIP3   OH228354   2.537   3.364  15.339 -0.0601  0.1654  0.6677
 2288TIP3    H128355   2.522   3.452  15.303 -1.5654  0.0772  1.0112
 2288TIP3    H228356   2.484   3.361  15.419 -1.4684 -1.6465 -0.2630
 2289TIP3   OH228357   5.598   5.657   2.807 -0.3396  0.4669 -0.3236
 2289TIP3    H128358   5.686   5.621   2.798 -1.1353 -2.2924  1.6363
 2289TIP3    H228359   5.611   5.748   2.832  1.8780  0.5858 -1.6496
 2290TIP3   OH228360   1.471   0.046   5.999  0.4969 -0.2047  0.2985
 2290TIP3    H128361   1.518  -0.002   6.067  1.6698 -0.4419 -0.6545
 2290TIP3    H228362   1.383   0.058   6.035  0.8053 -1.1836  1.4401
 2291TIP3   OH228363   5.315   3.906  12.778 -0.0299  0.3491 -0.4885
 2291TIP3    H128364   5.271   3.856  12.709 -0.2089  0.8788 -0.7708
 2291TIP3    H228365   5.249   3.914  12.847  0.7088 -1.6581  0.5077
 2292TIP3   OH228366   5.403   4.817   5.602  0.4628  0.2066  0.4782
 2292TIP3    H128367   5.351   4.896   5.588  2.2388  1.4132  0.3707
 2292TIP3    H228368   5.447   4.832   5.686 -0.4550 -1.4457  1.3167
 2293TIP3   OH228369   5.967   6.020  16.072 -0.2518 -0.0398  0.2981
 2293TIP3    H128370   5.924   5.938  16.050 -1.5187  1.3245 -3.0024
 2293TIP3    H228371   6.059   6.007  16.048 -0.4635 -0.4687 -0.2833
 2294TIP3   OH228372   6.542   3.624  11.852 -0.4003 -0.1075 -0.1980
 2294TIP3    H128373   6.551   3.583  11.766  2.8099 -0.3633  0.1102
 2294TIP3    H228374   6.472   3.688  11.842  0.1005  0.1092 -3.1042
 2295TIP3   OH228375   5.687   2.718   0.310 -0.2172  0.2044 -0.5617
 2295TIP3    H128376   5.592   2.716   0.321 -0.1213  0.5011  0.4639
 2295TIP3    H228377   5.709   2.634   0.269 -1.0677  0.7543 -2.2028
 2296TIP3   OH228378   2.667   6.553  11.440  0.0242 -0.2310  0.3862
 2296TIP3    H128379   2.664   6.634  11.391  2.4407 -0.3355 -0.0827
 2296TIP3    H228380   2.668   6.484  11.373  0.0085 -0.5475  0.7074
 2297TIP3   OH228381   2.502   4.194  12.692  0.0201  0.0681 -0.2943
 2297TIP3    H128382   2.567   4.206  12.761 -0.2306 -0.6551  0.0762
 2297TIP3    H228383   2.431   4.254  12.714 -0.1638 -0.3266  0.2145
 2298TIP3   OH228384   5.850   3.053   2.046  0.0222 -0.4327  0.8158
 2298TIP3    H128385   5.814   3.138   2.020  1.2011 -0.0021  0.5228
 2298TIP3    H228386   5.785   3.017   2.107 -1.2329 -0.0199 -0.2329
 2299TIP3   OH228387   6.399   4.654   6.127  0.0661 -0.8562 -0.1063
 2299TIP3    H128388   6.369   4.728   6.074 -0.7114  0.5354  2.1720
 2299TIP3    H228389   6.321   4.602   6.144  0.2070 -0.9867  0.1514
 2300TIP3   OH228390   2.562   1.790   0.949 -0.1918  0.3374 -0.3264
 2300TIP3    H128391   2.640   1.778   0.895 -1.5378 -0.0811 -2.2742
 2300TIP3    H228392   2.561   1.715   1.007 -0.4198 -0.9915 -1.9821
 2301TIP3   OH228393   1.350   4.079  15.328  0.0505 -0.3992  0.2058
 2301TIP3    H128394   1.313   4.071  15.240 -1.3274 -0.7140  0.7984
 2301TIP3    H228395   1.316   4.162  15.361 -2.0172 -1.6949  1.5777
 2302TIP3   OH228396   3.932   3.933   0.275 -0.0849  0.5685  0.4753
 2302TIP3    H128397   3.864   3.968   0.218  1.3367  0.6477 -1.2391
 2302TIP3    H228398   3.918   3.838   0.276 -0.1672  0.5784  0.0622
 2303TIP3   OH228399   1.059   0.475  13.368  0.2269  0.7222 -0.0010
 2303TIP3    H128400   1.080   0.510  13.282  1.6165  1.4245  0.5752
 2303TIP3    H228401   1.145   0.452  13.406 -0.4899 -1.9659  0.2399
 2304TIP3   OH228402   3.031   0.139   4.867  0.1158 -0.3274 -0.2443
 2304TIP3    H128403   3.121   0.169   4.853  0.1814 -0.9245 -1.2158
 2304TIP3    H228404   3.035   0.044   4.853 -0.3834 -0.5940  1.2330
 2305TIP3   OH228405   1.330   3.040  15.049  0.4002 -0.3620  0.2090
 2305TIP3    H128406   1.347   2.954  15.087 -0.4673 -0.3187  0.7331
 2305TIP3    H228407   1.294   3.091  15.122  0.3711  0.2656 -0.2414
 2306TIP3   OH228408   2.364   2.241   1.197 -0.2018  0.3731 -0.2595
 2306TIP3    H128409   2.320   2.326   1.201 -2.4337 -0.7383  2.0558
 2306TIP3    H228410   2.293   2.178   1.193  1.1804 -1.5158  2.1885
 2307TIP3   OH228411   5.070   3.667  13.102  0.4341 -0.0282  0.0449
 2307TIP3    H128412   5.155   3.701  13.130  0.1135 -0.6658  1.9095
 2307TIP3    H228413   5.079   3.572  13.107  0.7551 -0.3129 -3.4161
 2308TIP3   OH228414   5.565   5.031   3.922  0.0913 -0.4839 -0.1010
 2308TIP3    H128415   5.503   4.992   3.861 -1.5377  0.9503  0.5561
 2308TIP3    H228416   5.618   4.957   3.952  0.3075 -1.3745 -2.4733
 2309TIP3   OH228417   0.936   4.492  14.969 -0.0726 -0.2109 -0.3837
 2309TIP3    H128418   0.869   4.448  14.917 -0.4932  0.4430 -0.4011
 2309TIP3    H228419   0.979   4.551  14.908 -0.5613  0.5516 -0.0000
 2310TIP3   OH228420   5.288   6.212  14.642 -0.2592  0.4523  0.3813
 2310TIP3    H128421   5.351   6.147  14.675 -1.1992  0.4073  2.2261
 2310TIP3    H228422   5.329   6.296  14.661 -0.4290  0.4154  0.9293
 2311TIP3   OH228423   2.133   2.948   1.362 -0.2864 -0.2739 -0.2529
 2311TIP3    H128424   2.214   2.898   1.359 -1.2817 -2.0058 -0.0089
 2311TIP3    H228425   2.067   2.884   1.388 -1.4058  1.5176  1.6171
 2312TIP3   OH228426   2.712   5.685  14.580 -0.4947  0.0972  0.2171
 2312TIP3    H128427   2.634   5.695  14.526  0.7243 -0.8824 -1.8441
 2312TIP3    H228428   2.687   5.621  14.647 -1.2878 -0.6342 -0.7554
 2313TIP3   OH228429   2.735   4.092   5.139 -0.2209 -0.3141 -0.0195
 2313TIP3    H128430   2.705   4.180   5.118  0.8865  0.5429  1.7572
 2313TIP3    H228431   2.794   4.069   5.067 -1.3169 -0.0703 -1.0322
 2314TIP3   OH228432   1.037   6.268   3.571  1.0571  0.1248 -0.1972
 2314TIP3    H128433   0.976   6.337   3.595  0.7723  0.3088 -1.3628
 2314TIP3    H228434   1.045   6.275   3.476  2.8794  0.0776 -0.0782
 2315TIP3   OH228435   4.755   4.264  14.012 -0.2614 -0.2141 -0.0313
 2315TIP3    H128436   4.794   4.298  13.932  0.9658  1.0975  1.0703
 2315TIP3    H228437   4.824   4.212  14.052 -0.9567 -1.0931  0.0588
 2316TIP3   OH228438   4.998   6.306  13.781 -0.0172  0.0322  0.3911
 2316TIP3    H128439   4.909   6.320  13.750 -0.0089 -1.2835 -0.3075
 2316TIP3    H228440   5.004   6.212  13.796  1.1769  0.1301  0.6612
 2317TIP3   OH228441   2.033   6.089   1.302  0.0523 -0.3435 -0.6455
 2317TIP3    H128442   2.103   6.058   1.244  0.3429 -0.7380 -0.0905
 2317TIP3    H228443   1.987   6.155   1.250 -0.1317 -1.1840 -1.5907
 2318TIP3   OH228444   1.551   3.250   5.155 -0.2372  0.1799  0.4285
 2318TIP3    H128445   1.560   3.160   5.124 -3.0981 -0.0684  0.1132
 2318TIP3    H228446   1.458   3.270   5.145  0.2444  3.0451  0.8947
 2319TIP3   OH228447   3.722   6.436  11.883  0.0777  0.8063  0.4046
 2319TIP3    H128448   3.685   6.521  11.859  1.3183  0.5027 -3.0485
 2319TIP3    H228449   3.687   6.374  11.820  1.5652 -0.6711  0.9344
 2320TIP3   OH228450   5.616   3.057   1.188 -0.1475 -0.1761  0.0088
 2320TIP3    H128451   5.615   3.116   1.264  0.0233  1.0093 -0.8814
 2320TIP3    H228452   5.708   3.031   1.180 -0.2012 -0.4682  0.3318
 2321TIP3   OH228453   4.517   3.829  11.708 -0.1576 -0.6668 -0.0353
 2321TIP3    H128454   4.433   3.814  11.752 -0.4649  0.6403 -0.1340
 2321TIP3    H228455   4.531   3.924  11.715  1.1178 -0.8133 -0.3745
 2322TIP3   OH228456   3.690   4.966   4.667 -0.0309  0.0153  0.7019
 2322TIP3    H128457   3.650   4.884   4.693 -1.4437  0.9695  1.6684
 2322TIP3    H228458   3.748   4.943   4.594 -1.5973 -1.5866 -0.0928
 2323TIP3   OH228459   5.317   0.807  15.550 -0.2155 -0.1628 -0.4856
 2323TIP3    H128460   5.301   0.759  15.631 -0.9036  0.4553 -0.2463
 2323TIP3    H228461   5.234   0.851  15.532  1.0170  2.7517  0.5028
 2324TIP3   OH228462   4.716   3.124  16.921 -0.1823 -0.2785  0.3496
 2324TIP3    H128463   4.744   3.181  16.848  0.6627 -1.2301 -0.0901
 2324TIP3    H228464   4.759   3.162  16.998  0.5725 -0.4427  0.0214
 2325TIP3   OH228465   0.540   5.017   5.556  0.4923 -0.3884 -0.3615
 2325TIP3    H128466   0.597   4.993   5.483  2.4192 -1.2691  1.3279
 2325TIP3    H228467   0.498   5.098   5.528  1.0381 -0.7822 -2.4837
 2326TIP3   OH228468   0.788   2.453   1.248 -0.5881 -0.2888  0.0910
 2326TIP3    H128469   0.851   2.451   1.176  0.3115 -2.2980  0.8610
 2326TIP3    H228470   0.765   2.362   1.262 -1.2728  0.1179  1.8942
 2327TIP3   OH228471   5.970   2.690   4.669 -0.4131 -0.4371  0.2044
 2327TIP3    H128472   6.017   2.607   4.675 -0.4981 -0.3980  2.0407
 2327TIP3    H228473   5.901   2.674   4.605  0.5285 -1.2684 -0.6529
 2328TIP3   OH228474   4.276   0.464   4.122 -0.3488 -0.5031 -0.7219
 2328TIP3    H128475   4.258   0.439   4.031  0.1952 -0.8106 -0.7539
 2328TIP3    H228476   4.345   0.403   4.150  1.6961  1.4907 -1.0856
 2329TIP3   OH228477   0.495   4.000  11.835 -0.0600  0.0264  0.2120
 2329TIP3    H128478   0.417   4.003  11.779  0.6978  0.4450 -0.8427
 2329TIP3    H228479   0.484   3.920  11.886 -0.6664 -0.4933 -0.6948
 2330TIP3   OH228480   6.050   6.716   1.981 -0.2584  0.2031 -0.3013
 2330TIP3    H128481   6.055   6.801   1.936  2.6954  1.1496  1.5591
 2330TIP3    H228482   6.114   6.722   2.051 -2.0419 -2.5410  1.7881
 2331TIP3   OH228483   6.578   4.240   2.392  0.3346 -0.3552  0.2245
 2331TIP3    H128484   6.650   4.178   2.380  0.5987 -0.5774  2.3957
 2331TIP3    H228485   6.616   4.326   2.376  0.2493 -0.6441 -1.7061
 2332TIP3   OH228486   6.194   6.824  16.680  0.2269 -0.7284 -0.3682
 2332TIP3    H128487   6.258   6.874  16.730 -1.5633  0.4957  0.7984
 2332TIP3    H228488   6.226   6.733  16.683  1.2077 -0.3635  1.2757
 2333TIP3   OH228489   1.096   4.380   5.321 -0.6457  0.2902  0.0795
 2333TIP3    H128490   1.070   4.468   5.347 -0.2954  0.1793  0.8321
 2333TIP3    H228491   1.137   4.343   5.399 -0.0308 -0.2399 -0.4818
 2334TIP3   OH228492   5.468   4.176   0.443  0.4807  0.3306 -0.9335
 2334TIP3    H128493   5.474   4.124   0.363  0.9217 -0.3085 -0.4890
 2334TIP3    H228494   5.408   4.127   0.499  0.5784  0.5084 -0.6706
 2335TIP3   OH228495   3.543   1.747  13.918  0.1758  0.3950 -0.0866
 2335TIP3    H128496   3.456   1.776  13.892  0.3239 -0.6794 -2.0105
 2335TIP3    H228497   3.565   1.801  13.993 -1.4744  1.8311 -0.5689
 2336TIP3   OH228498   0.533   0.694   1.032 -0.2578 -0.1940  0.5073
 2336TIP3    H128499   0.522   0.657   0.945  0.4527 -2.0761  1.1529
 2336TIP3    H228500   0.491   0.631   1.090  0.6773  0.1958  1.6514
 2337TIP3   OH228501   4.646   2.511   5.394 -0.0837 -0.1416  0.1836
 2337TIP3    H128502   4.568   2.548   5.354 -0.3633 -0.3873  0.4970
 2337TIP3    H228503   4.632   2.520   5.488 -0.4415 -1.5814  0.2897
 2338TIP3   OH228504   4.751   6.271  12.108  0.1148  0.0466 -0.1462
 2338TIP3    H128505   4.801   6.326  12.047 -0.0273 -1.1463 -1.4036
 2338TIP3    H228506   4.815   6.239  12.171  0.4600  0.5147 -0.2586
 2339TIP3   OH228507   3.669   3.514   4.568 -0.0467 -0.2401  0.3333
 2339TIP3    H128508   3.649   3.578   4.501  1.3295 -0.8275 -0.6725
 2339TIP3    H228509   3.764   3.520   4.580 -0.0396 -1.3669  0.9633
 2340TIP3   OH228510   6.374   3.195  10.708 -0.3614  0.0297 -0.0788
 2340TIP3    H128511   6.319   3.256  10.660 -0.9520  0.0513  0.6133
 2340TIP3    H228512   6.460   3.236  10.709  0.1377 -0.7706 -2.6240
 2341TIP3   OH228513   5.851   6.813  14.429  0.2222  0.1041  0.6281
 2341TIP3    H128514   5.846   6.732  14.380  1.2947  1.2948 -1.5833
 2341TIP3    H228515   5.943   6.820  14.454  0.1355  0.6374  0.8127
 2342TIP3   OH228516   6.581   6.742   4.261  0.0935 -0.6030  0.3189
 2342TIP3    H128517   6.583   6.783   4.348 -1.1224  2.1947 -0.8288
 2342TIP3    H228518   6.593   6.816   4.201 -2.2181 -1.9421 -1.9726
 2343TIP3   OH228519   5.409   3.579   3.717  0.5436  0.3553  0.5847
 2343TIP3    H128520   5.359   3.559   3.796 -1.8821  2.2968 -0.3122
 2343TIP3    H228521   5.346   3.625   3.661  2.8426  1.1578 -1.4890
 2344TIP3   OH228522   5.536   0.860   0.763 -0.0779 -0.0399 -0.0328
 2344TIP3    H128523   5.609   0.841   0.705 -0.2363 -0.4986 -0.0875
 2344TIP3    H228524   5.575   0.905   0.838  0.1581  0.3523 -0.3871
 2345TIP3   OH228525   3.593   5.249  12.539  0.2780  0.4906 -0.0333
 2345TIP3    H128526   3.511   5.200  12.547  0.7980 -0.5039 -0.6977
 2345TIP3    H228527   3.639   5.233  12.621 -0.4824  1.6195  0.6349
 2346TIP3   OH228528   0.582   0.872  13.813 -0.0731 -0.0030  0.2337
 2346TIP3    H128529   0.507   0.909  13.860  1.0283  0.5017  1.6657
 2346TIP3    H228530   0.645   0.850  13.881  0.7249 -1.3052 -0.8659
 2347TIP3   OH228531   4.697   4.299  15.588 -0.0910  0.1891 -0.2202
 2347TIP3    H128532   4.722   4.306  15.681 -0.1973 -0.4348 -0.1419
 2347TIP3    H228533   4.755   4.231  15.553  0.0541  0.5277 -0.6542
 2348TIP3   OH228534   1.531   6.073   4.690 -0.0929  0.1407  0.0006
 2348TIP3    H128535   1.447   6.061   4.646 -0.8655 -0.1014  1.5004
 2348TIP3    H228536   1.538   6.168   4.702 -0.8849  0.0597  1.2262
 2349TIP3   OH228537   1.064   6.780   5.371 -0.1185 -0.2402  0.2943
 2349TIP3    H128538   1.046   6.721   5.298  0.2223  1.0438 -0.8756
 2349TIP3    H228539   0.982   6.827   5.385 -0.0840 -0.2477  0.5384
 2350TIP3   OH228540   6.580   4.505   5.277  0.2147 -0.2516 -0.3129
 2350TIP3    H128541   6.525   4.551   5.214 -0.1530 -2.5930 -1.8121
 2350TIP3    H228542   6.669   4.533   5.256 -0.0903  0.8569 -0.1980
 2351TIP3   OH228543   3.172   1.856   2.160  0.4981 -0.0288  0.0330
 2351TIP3    H128544   3.159   1.781   2.102 -0.6179 -0.6708  1.0683
 2351TIP3    H228545   3.130   1.929   2.115 -1.3316 -0.7584  0.4940
 2352TIP3   OH228546   6.612   3.478  11.613  0.4225  0.2050 -0.3242
 2352TIP3    H128547   6.586   3.569  11.605 -2.3905 -0.5440 -0.7023
 2352TIP3    H228548   6.570   3.434  11.539  0.0800 -1.6950  0.9140
 2353TIP3   OH228549   4.106   5.974  15.242  0.4731 -0.0251 -0.2747
 2353TIP3    H128550   4.081   6.027  15.318  2.3463  0.8641 -0.2039
 2353TIP3    H228551   4.094   6.033  15.167  0.7864 -0.1202 -0.4026
 2354TIP3   OH228552   0.571   1.185  16.288 -0.4846 -0.0507 -0.4872
 2354TIP3    H128553   0.607   1.096  16.285 -1.3003 -0.3765 -1.2630
 2354TIP3    H228554   0.648   1.242  16.289  0.0494 -0.7624  0.3375
 2355TIP3   OH228555   3.573   5.684  15.535 -0.3815  0.3314  0.1306
 2355TIP3    H128556   3.583   5.753  15.469 -1.1510  1.7101  1.4044
 2355TIP3    H228557   3.660   5.672  15.571 -0.6970  2.9675  2.0902
 2356TIP3   OH228558   6.424   5.581  12.647 -0.0560 -0.0846 -0.3147
 2356TIP3    H128559   6.501   5.637  12.656  0.0762 -0.2862 -0.1957
 2356TIP3    H228560   6.426   5.551  12.556 -0.9938  1.3691 -0.8523
 2357TIP3   OH228561   2.575   6.102   4.149  0.5610  0.1785 -0.0672
 2357TIP3    H128562   2.667   6.125   4.166  0.8635 -1.5573  0.8494
 2357TIP3    H228563   2.569   6.010   4.173 -1.6873  0.5256  0.9212
 2358TIP3   OH228564   5.933   6.535   0.160  0.3659 -0.0301 -0.2853
 2358TIP3    H128565   5.979   6.455   0.135 -2.5326 -2.2060  0.8497
 2358TIP3    H228566   5.995   6.580   0.217  1.4309 -2.4174  0.5853
 2359TIP3   OH228567   5.719   5.511  11.114  0.0399 -1.2186  0.0108
 2359TIP3    H128568   5.739   5.506  11.021  0.9304 -2.0873  0.2394
 2359TIP3    H228569   5.625   5.530  11.118 -0.2284 -2.2659 -1.0553
 2360TIP3   OH228570   4.299   0.679  15.468 -0.1813  0.0467 -0.1317
 2360TIP3    H128571   4.268   0.745  15.531 -1.0321 -1.5894  1.2364
 2360TIP3    H228572   4.394   0.688  15.469 -0.2930  3.0155 -2.0104
 2361TIP3   OH228573   3.677   3.898   5.399  0.1282 -0.2358  0.4655
 2361TIP3    H128574   3.584   3.883   5.410 -0.0798  0.6588  0.0227
 2361TIP3    H228575   3.701   3.956   5.471 -0.1234  1.2620 -0.5968
 2362TIP3   OH228576   5.393   6.139   2.425 -0.4816 -0.3958 -0.5562
 2362TIP3    H128577   5.468   6.093   2.462 -2.3500 -2.5323  0.8805
 2362TIP3    H228578   5.319   6.081   2.443 -2.8360  2.6098  0.1828
 2363TIP3   OH228579   2.412   1.486  15.154  0.3152  0.3577  0.4105
 2363TIP3    H128580   2.347   1.482  15.224  1.2949 -1.9172  1.2807
 2363TIP3    H228581   2.413   1.398  15.116  0.9562  1.0916 -1.4235
 2364TIP3   OH228582   0.323   1.841  15.131 -0.3322 -0.1253  0.4585
 2364TIP3    H128583   0.235   1.815  15.104 -0.7790  1.8542 -0.1729
 2364TIP3    H228584   0.310   1.916  15.189  0.9071 -0.2790  0.9681
 2365TIP3   OH228585   0.591   5.165  13.506 -0.3234  0.2119 -0.0290
 2365TIP3    H128586   0.614   5.212  13.426 -0.9039  0.1493 -0.2406
 2365TIP3    H228587   0.606   5.073  13.484  1.3403  0.3170  0.5630
 2366TIP3   OH228588   0.879   3.182   2.135  0.1063 -0.2609 -0.2825
 2366TIP3    H128589   0.884   3.241   2.211  1.1469  0.8965 -1.2156
 2366TIP3    H228590   0.789   3.192   2.104 -0.0356  0.0242  0.1916
 2367TIP3   OH228591   5.045   4.162  10.763  0.3551 -0.2739  0.2615
 2367TIP3    H128592   4.976   4.228  10.766  0.3705  0.0160 -2.6483
 2367TIP3    H228593   5.083   4.171  10.676  3.6254 -0.9178  1.4960
 2368TIP3   OH228594   5.902   5.445  11.322 -0.2495 -0.3508  0.5782
 2368TIP3    H128595   5.948   5.529  11.318 -1.4106  0.3574  1.3871
 2368TIP3    H228596   5.833   5.453  11.257  2.2691 -2.4652 -2.6906
 2369TIP3   OH228597   2.178   0.529  11.561  0.0442 -0.4334 -0.0812
 2369TIP3    H128598   2.158   0.444  11.522  0.0911 -0.3804 -0.2221
 2369TIP3    H228599   2.181   0.512  11.655  1.4131 -0.8745 -0.1808
 2370TIP3   OH228600   0.898   3.542  14.749 -0.1585  1.0322  0.1031
 2370TIP3    H128601   0.827   3.568  14.690 -0.0272 -0.5023 -0.7587
 2370TIP3    H228602   0.931   3.625  14.783 -1.7093  1.8384 -0.2315
 2371TIP3   OH228603   5.287   2.575  12.998 -0.3919 -0.0719 -0.0560
 2371TIP3    H128604   5.309   2.638  12.929 -0.2435  0.4233  0.4332
 2371TIP3    H228605   5.192   2.582  13.008 -0.3640  0.1522  0.0646
 2372TIP3   OH228606   4.046   1.449   0.134 -0.0368 -0.0434 -0.3615
 2372TIP3    H128607   4.011   1.445   0.045 -1.6132  1.4693  0.1321
 2372TIP3    H228608   4.079   1.538   0.143  1.2477 -0.5564  0.1814
 2373TIP3   OH228609   3.064   5.306  15.269 -0.4685  0.2857  0.3124
 2373TIP3    H128610   3.011   5.230  15.245  0.9770 -0.0261 -2.2952
 2373TIP3    H228611   3.154   5.275  15.259  0.2161  1.4786  2.3083
 2374TIP3   OH228612   6.351   6.501   1.436  1.0162  0.3587 -0.1508
 2374TIP3    H128613   6.351   6.547   1.520  0.6875  0.8200 -0.3987
 2374TIP3    H228614   6.341   6.570   1.371  3.4879  0.2616 -0.7226
 2375TIP3   OH228615   6.846   4.070  15.977  0.6151 -0.5435  0.0433
 2375TIP3    H128616   6.819   4.138  16.038  1.1444 -0.0132 -0.3042
 2375TIP3    H228617   6.907   4.114  15.917  3.1312 -1.9167  1.4448
 2376TIP3   OH228618   5.999   2.384  14.513  0.1953  0.6235 -0.4276
 2376TIP3    H128619   5.981   2.351  14.424  0.1021  1.8693 -0.8880
 2376TIP3    H228620   6.063   2.454  14.500 -2.9868  3.8793 -0.0963
 2377TIP3   OH228621   4.843   4.916   0.247  0.5966 -0.7460 -0.0702
 2377TIP3    H128622   4.821   4.839   0.195  0.1768 -0.1751 -0.7545
 2377TIP3    H228623   4.760   4.941   0.289 -0.1989  1.3859 -2.6226
 2378TIP3   OH228624   5.458   1.539  14.508 -0.3231  0.4102  0.2138
 2378TIP3    H128625   5.507   1.529  14.590  1.3342 -2.4882 -0.9548
 2378TIP3    H228626   5.374   1.497  14.526  0.7102 -1.9042  0.0199
 2379TIP3   OH228627   1.967   2.232   4.470  0.4776  0.5438  0.0645
 2379TIP3    H128628   2.042   2.239   4.529  1.2015  2.3004 -0.9948
 2379TIP3    H228629   1.896   2.279   4.516  0.0632 -0.8480  0.9226
 2380TIP3   OH228630   3.698   2.574   3.417  0.4510 -0.3880 -0.2620
 2380TIP3    H128631   3.616   2.525   3.429  0.2825 -0.0220  0.0825
 2380TIP3    H228632   3.673   2.650   3.365  0.8642 -1.0777 -1.5217
 2381TIP3   OH228633   1.675   5.475  13.213  0.2566 -0.7325 -0.3848
 2381TIP3    H128634   1.588   5.469  13.253  0.2754 -1.9246 -0.4997
 2381TIP3    H228635   1.726   5.529  13.273 -1.1224  1.8340 -1.3396
 2382TIP3   OH228636   1.847   5.225  14.952  0.3249  0.0410  0.3297
 2382TIP3    H128637   1.833   5.245  14.859  0.6896 -1.1865 -0.0071
 2382TIP3    H228638   1.935   5.258  14.971  0.1982  0.4120  0.2749
 2383TIP3   OH228639   4.899   0.959   2.184  0.4719 -0.0662 -0.7611
 2383TIP3    H128640   4.889   1.046   2.147  0.5585  0.2953  0.0276
 2383TIP3    H228641   4.810   0.934   2.210  0.6074  0.3048  0.1053
 2384TIP3   OH228642   4.650   5.844   4.770  0.0963  0.0958  0.2152
 2384TIP3    H128643   4.648   5.926   4.820  0.2022 -0.4496  1.1282
 2384TIP3    H228644   4.559   5.824   4.751  0.1302  1.1441 -1.2414
 2385TIP3   OH228645   0.346   1.003   0.824  0.1689  0.3505  0.3115
 2385TIP3    H128646   0.349   0.915   0.787  0.5479  0.6357 -0.3409
 2385TIP3    H228647   0.397   0.997   0.905 -0.2992 -0.1674  0.5731
 2386TIP3   OH228648   4.009   4.739  12.410  0.0268 -0.0453  0.0240
 2386TIP3    H128649   4.065   4.768  12.339  3.8149 -0.6803  2.4712
 2386TIP3    H228650   3.992   4.818  12.462  1.6606 -0.3439  1.0997
 2387TIP3   OH228651   3.021   2.809  16.455 -0.5730 -0.7810 -0.4690
 2387TIP3    H128652   3.093   2.790  16.515 -1.1349 -2.4549 -0.2716
 2387TIP3    H228653   3.049   2.770  16.372 -1.1283 -1.2040 -0.4615
 2388TIP3   OH228654   1.471   1.154   3.456 -0.3159 -0.1384  0.3749
 2388TIP3    H128655   1.412   1.090   3.416 -0.5384  0.3783 -0.1376
 2388TIP3    H228656   1.412   1.222   3.491 -0.0287  2.6406 -3.8576
 2389TIP3   OH228657   0.489   2.860  15.551 -0.0450 -0.2980  0.2009
 2389TIP3    H128658   0.473   2.838  15.643  0.6205  0.8345  0.5965
 2389TIP3    H228659   0.437   2.796  15.503  0.0841 -1.3204  1.3465
 2390TIP3   OH228660   5.908   5.764  12.195 -0.1816 -0.2322 -0.0878
 2390TIP3    H128661   5.927   5.716  12.275  0.5623  1.0077  0.4989
 2390TIP3    H228662   5.912   5.856  12.220 -2.8590  0.1873 -0.8918
 2391TIP3   OH228663   3.987   1.220  13.612  0.3119  0.3588 -0.3514
 2391TIP3    H128664   3.965   1.255  13.698  0.3158 -0.3111 -0.0684
 2391TIP3    H228665   3.948   1.133  13.611 -0.5434  0.7316 -1.4107
 2392TIP3   OH228666   5.642   5.752  15.839 -0.2343 -0.0923 -0.3209
 2392TIP3    H128667   5.702   5.824  15.820 -0.2158 -0.5946 -2.4013
 2392TIP3    H228668   5.555   5.792  15.836 -0.1344  0.2043  0.4976
 2393TIP3   OH228669   2.115   4.260   5.186  0.2048  0.2820 -0.7324
 2393TIP3    H128670   2.100   4.193   5.252  0.8507  0.0206 -0.8436
 2393TIP3    H228671   2.125   4.211   5.104  2.3647  0.3601 -0.5613
 2394TIP3   OH228672   6.207   5.544  14.354  0.0864  0.0832 -0.4092
 2394TIP3    H128673   6.276   5.594  14.398 -0.0825 -0.0979  0.0684
 2394TIP3    H228674   6.126   5.590  14.376  0.0528  0.2945 -0.9677
 2395TIP3   OH228675   1.021   5.874   2.904  0.2436 -0.1855 -0.5487
 2395TIP3    H128676   1.059   5.835   2.825  1.3483 -0.1980 -0.0220
 2395TIP3    H228677   1.067   5.831   2.977 -0.7003 -0.1102  0.1039
 2396TIP3   OH228678   1.911   4.583  12.366 -0.3434  0.1934  0.2885
 2396TIP3    H128679   1.875   4.594  12.454  2.6796 -2.0346  2.0005
 2396TIP3    H228680   1.945   4.670  12.343 -0.3093  0.5952  1.7512
 2397TIP3   OH228681   1.477   2.766   3.460  0.1646 -0.2820 -0.6170
 2397TIP3    H128682   1.569   2.740   3.455 -0.4123 -2.7023  0.1254
 2397TIP3    H228683   1.438   2.733   3.380 -0.2744 -0.2466 -0.4212
 2398TIP3   OH228684   0.047   6.657   4.907  0.1756 -0.1288  0.0425
 2398TIP3    H128685   0.033   6.601   4.983 -0.4602 -0.5117 -0.3425
 2398TIP3    H228686   0.080   6.597   4.839  1.2625  0.3071  0.1752
 2399TIP3   OH228687   0.500   5.459  12.435  0.1618  0.0553 -0.6318
 2399TIP3    H128688   0.582   5.472  12.482 -0.3189 -0.1445  0.3112
 2399TIP3    H228689   0.508   5.372  12.395  0.8697  0.5400 -1.5521
 2400TIP3   OH228690   3.616   0.527  12.530  0.3497 -0.6833  0.1839
 2400TIP3    H128691   3.557   0.548  12.602  0.5172  0.4459  0.0055
 2400TIP3    H228692   3.565   0.540  12.451  0.5150 -0.7630  0.0625
 2401TIP3   OH228693   6.375   2.375  12.432  0.0793  0.8556  0.1544
 2401TIP3    H128694   6.438   2.392  12.502 -0.7400 -0.4873  1.2794
 2401TIP3    H228695   6.324   2.300  12.463 -0.7069  0.5836 -1.6364
 2402TIP3   OH228696   6.527   0.538  14.587 -0.3811 -0.0295  0.3179
 2402TIP3    H128697   6.565   0.451  14.599  1.1757  0.9341  3.6933
 2402TIP3    H228698   6.591   0.585  14.533 -0.5982 -0.5966 -0.4391
 2403TIP3   OH228699   6.079   5.367  12.187  0.3143 -0.5164 -0.6933
 2403TIP3    H128700   6.063   5.291  12.131 -0.1507 -0.8462 -0.1275
 2403TIP3    H228701   5.992   5.396  12.213  0.5341 -1.4211  1.2364
 2404TIP3   OH228702   0.277   2.032  12.885 -0.2087 -0.1229  0.6724
 2404TIP3    H128703   0.272   1.964  12.953  1.6522 -1.4707 -0.4696
 2404TIP3    H228704   0.349   2.088  12.913 -0.2485  0.0432  0.4407
 2405TIP3   OH228705   0.912   6.762  12.442  0.0355  0.2736  0.1068
 2405TIP3    H128706   0.980   6.829  12.436 -0.3122  0.5647 -0.6711
 2405TIP3    H228707   0.952   6.693  12.495  0.8133  0.5913 -0.0515
 2406TIP3   OH228708   4.141   0.607   5.204  0.1330 -0.1399 -0.7332
 2406TIP3    H128709   4.193   0.532   5.173  2.3042  1.0404 -0.1872
 2406TIP3    H228710   4.131   0.591   5.298  0.5396  0.1821 -0.6291
 2407TIP3   OH228711   2.127   2.593  11.800  0.0714  0.3487 -0.0506
 2407TIP3    H128712   2.136   2.671  11.745  0.5463  0.8681  0.7478
 2407TIP3    H228713   2.131   2.626  11.890  1.3307 -0.7080  0.3086
 2408TIP3   OH228714   3.191   0.631   2.600 -0.1832  0.8835  0.3589
 2408TIP3    H128715   3.125   0.633   2.670 -1.0941  1.0910 -0.4751
 2408TIP3    H228716   3.166   0.556   2.546  0.7014  0.5312  0.4383
 2409TIP3   OH228717   1.372   5.180  12.720 -0.1986  0.0462 -0.2379
 2409TIP3    H128718   1.379   5.113  12.788  0.5344 -1.3576 -1.6240
 2409TIP3    H228719   1.415   5.257  12.758  0.4884 -0.8002  0.7641
 2410TIP3   OH228720   5.088   2.392  14.487  0.2978  0.5534  0.5263
 2410TIP3    H128721   5.111   2.478  14.522 -0.6619  0.6603  0.9281
 2410TIP3    H228722   5.117   2.395  14.396  2.2458  0.5056  1.1035
 2411TIP3   OH228723   5.627   4.241  15.837  0.3379 -0.3842 -0.0945
 2411TIP3    H128724   5.603   4.325  15.877 -0.6961 -0.0537 -1.3463
 2411TIP3    H228725   5.723   4.243  15.833  0.2841  1.6378 -1.8988
 2412TIP3   OH228726   1.390   0.403  13.268 -0.5527 -0.4800 -0.1852
 2412TIP3    H128727   1.469   0.361  13.301 -0.7753 -0.3160  0.5797
 2412TIP3    H228728   1.325   0.391  13.338 -1.3179 -0.9504 -0.9611
 2413TIP3   OH228729   0.548   6.802   3.568  0.1439 -0.3926  0.3470
 2413TIP3    H128730   0.529   6.885   3.612 -0.5050  0.8341 -2.1229
 2413TIP3    H228731   0.641   6.786   3.587 -0.4308 -0.8408  3.4658
 2414TIP3   OH228732   0.103   2.324  10.017 -0.0189 -0.3668  0.2271
 2414TIP3    H128733   0.087   2.405  10.066 -1.2126 -1.1363  1.1544
 2414TIP3    H228734   0.164   2.275  10.073 -0.6108 -0.8170  0.4903
 2415TIP3   OH228735   5.215   1.264  15.216 -0.2602 -0.2484  0.1321
 2415TIP3    H128736   5.285   1.253  15.152 -1.2757  2.0772 -1.4916
 2415TIP3    H228737   5.260   1.256  15.301  1.5365 -1.0742 -0.8276
 2416TIP3   OH228738   5.893   3.286   0.585  0.0724 -0.5694  0.6179
 2416TIP3    H128739   5.831   3.347   0.545 -0.4007 -0.3593  1.6534
 2416TIP3    H228740   5.940   3.338   0.650  0.1799 -1.1348  0.9988
 2417TIP3   OH228741   1.394   1.052   3.046 -0.7951 -0.0950 -0.1069
 2417TIP3    H128742   1.436   1.058   2.960 -1.0330  1.4896 -0.1343
 2417TIP3    H228743   1.320   1.112   3.041 -1.6321 -1.0203  0.7669
 2418TIP3   OH228744   0.144   6.764   3.674  0.7437  0.3546 -0.6132
 2418TIP3    H128745   0.149   6.707   3.596 -0.0224 -0.0299 -0.3934
 2418TIP3    H228746   0.157   6.852   3.640 -0.4813  0.2816 -1.3242
 2419TIP3   OH228747   3.568   3.071  12.840 -0.0559  0.2408  0.0445
 2419TIP3    H128748   3.611   3.120  12.910 -0.3286 -0.9528  1.0812
 2419TIP3    H228749   3.548   3.137  12.773 -0.1452  1.4842  1.2525
 2420TIP3   OH228750   2.462   2.850  16.048  0.3076  0.0882  0.2605
 2420TIP3    H128751   2.502   2.766  16.070  2.4282  1.3307  1.5098
 2420TIP3    H228752   2.494   2.871  15.961  1.5499  0.5474  0.8033
 2421TIP3   OH228753   3.953   4.085   1.965 -0.1137  0.1742 -0.5261
 2421TIP3    H128754   4.027   4.085   2.025 -0.6148 -2.7289  0.2488
 2421TIP3    H228755   3.897   4.156   1.995  0.5399 -0.0308  1.2787
 2422TIP3   OH228756   0.057   6.186   1.046 -0.6298 -0.2764  0.1193
 2422TIP3    H128757   0.103   6.192   1.130  1.3887 -0.0487 -0.9572
 2422TIP3    H228758   0.083   6.265   0.999 -4.7581  1.6930  0.6266
 2423TIP3   OH228759   5.638   6.078   1.622 -0.4270  0.1013  0.2364
 2423TIP3    H128760   5.716   6.076   1.568 -1.0940  0.0944 -0.7506
 2423TIP3    H228761   5.664   6.124   1.702  0.6410 -0.1468  0.0360
 2424TIP3   OH228762   3.772   4.268  13.204  0.6035  0.3147  0.6128
 2424TIP3    H128763   3.844   4.251  13.264  0.2352 -0.3231  0.8798
 2424TIP3    H228764   3.707   4.315  13.257  0.6741  0.5816  0.4648
 2425TIP3   OH228765   2.678   5.070  15.217  0.1198 -0.5606 -0.5228
 2425TIP3    H128766   2.681   5.101  15.307  1.9759  1.5932 -1.2207
 2425TIP3    H228767   2.584   5.062  15.197 -0.3953  1.5078  0.8055
 2426TIP3   OH228768   3.219   2.404   5.784 -0.2978 -0.2637 -0.1857
 2426TIP3    H128769   3.184   2.385   5.871  0.2150  0.0691  0.1018
 2426TIP3    H228770   3.290   2.340   5.773 -2.0388 -2.1271 -1.4847
 2427TIP3   OH228771   4.633   6.307   1.826  0.7233 -0.7524  0.2417
 2427TIP3    H128772   4.698   6.347   1.767 -1.2005  0.3786 -1.2325
 2427TIP3    H228773   4.683   6.284   1.904  2.7924  0.6067 -0.5821
 2428TIP3   OH228774   3.400   6.778  11.342  0.2221 -0.0505  0.1195
 2428TIP3    H128775   3.314   6.801  11.306  0.3994 -0.7124 -0.7780
 2428TIP3    H228776   3.441   6.726  11.273  1.4869  0.5394  0.3935
 2429TIP3   OH228777   0.535   2.330   0.189  0.1318  1.1144 -0.0443
 2429TIP3    H128778   0.479   2.406   0.204 -0.3635  0.7929 -0.2434
 2429TIP3    H228779   0.567   2.341   0.099  0.7512  1.5286  0.2230
 2430TIP3   OH228780   4.206   1.042   2.226 -0.0304 -0.6815  0.3846
 2430TIP3    H128781   4.162   1.117   2.266 -1.1543 -1.6316  0.9576
 2430TIP3    H228782   4.148   1.015   2.155 -1.8517 -3.5867  2.7813
 2431TIP3   OH228783   0.364   1.981   6.200 -0.2564  0.1642  0.3372
 2431TIP3    H128784   0.295   2.036   6.162  0.2894  2.2418  2.1143
 2431TIP3    H228785   0.426   2.043   6.237  0.6380 -1.6558  2.1126
 2432TIP3   OH228786   4.748   4.840  12.918  0.7844 -0.1501  0.0722
 2432TIP3    H128787   4.736   4.770  12.853  0.3636 -0.7016  0.7218
 2432TIP3    H228788   4.838   4.829  12.948  0.1680 -1.6530  1.5324
 2433TIP3   OH228789   3.385   2.005  15.298  0.0726 -0.2914 -0.3688
 2433TIP3    H128790   3.293   2.012  15.273  0.0247 -0.4305 -0.2249
 2433TIP3    H228791   3.384   1.976  15.389  0.1969  2.3321  0.5722
 2434TIP3   OH228792   5.941   0.946   2.211  0.2690  0.0633  0.6010
 2434TIP3    H128793   5.878   0.886   2.249 -1.5988  1.3605 -0.3085
 2434TIP3    H228794   5.985   0.895   2.142 -0.5699 -0.5515  0.5135
 2435TIP3   OH228795   4.734   5.798   3.186  0.1641  0.4789 -0.1942
 2435TIP3    H128796   4.652   5.760   3.157  0.6096 -0.2509 -0.5256
 2435TIP3    H228797   4.744   5.769   3.277  1.0780 -1.2593 -0.7935
 2436TIP3   OH228798   1.670   1.179  13.160  0.2868 -0.0608  0.8054
 2436TIP3    H128799   1.625   1.182  13.245 -0.6280 -0.3483  0.3514
 2436TIP3    H228800   1.605   1.211  13.098  0.8986  0.0065  0.1894
 2437TIP3   OH228801   2.727   4.476  15.351  0.0270 -0.7173  0.3439
 2437TIP3    H128802   2.634   4.484  15.327 -0.2778 -1.9882  1.0076
 2437TIP3    H228803   2.736   4.386  15.383  2.0340 -1.4488 -1.9503
 2438TIP3   OH228804   2.467   0.101   5.144  0.0099  0.0481  0.2275
 2438TIP3    H128805   2.518   0.114   5.224 -1.2359  1.1262  0.8926
 2438TIP3    H228806   2.524   0.131   5.074  0.5379  0.5887  0.8787
 2439TIP3   OH228807   0.955   2.921   2.091  0.5881  0.5336  0.0766
 2439TIP3    H128808   0.901   2.901   2.015  0.7519 -0.5705  0.2291
 2439TIP3    H228809   0.917   3.000   2.129 -0.3013  0.3321 -0.3888
 2440TIP3   OH228810   1.884   6.577  15.226  0.2130 -0.0012 -0.2239
 2440TIP3    H128811   1.885   6.505  15.289 -1.3642 -0.2405 -0.4255
 2440TIP3    H228812   1.883   6.656  15.279  0.4939 -0.1652  0.0260
 2441TIP3   OH228813   4.653   3.855  11.404 -0.2774  0.0474  0.1016
 2441TIP3    H128814   4.623   3.936  11.363  0.5781  0.5692  0.4626
 2441TIP3    H228815   4.621   3.861  11.494  0.6685  0.4868  0.4176
 2442TIP3   OH228816   3.193   5.175  16.499  0.6968  0.2414 -0.6828
 2442TIP3    H128817   3.121   5.117  16.524  1.3712 -0.8333 -1.1419
 2442TIP3    H228818   3.156   5.232  16.431 -0.3024  1.1692  0.5975
 2443TIP3   OH228819   5.448   0.028   1.186  0.4714 -0.0590 -0.1642
 2443TIP3    H128820   5.460   0.122   1.203  0.5110  0.1032 -1.0584
 2443TIP3    H228821   5.458  -0.013   1.272 -1.3933  0.9163  0.5909
 2444TIP3   OH228822   4.131   2.550  11.708 -0.5090  0.0829  0.0486
 2444TIP3    H128823   4.038   2.572  11.695 -0.2213  0.5871 -1.2737
 2444TIP3    H228824   4.134   2.455  11.699 -0.8440  0.0987 -0.2749
 2445TIP3   OH228825   1.186   6.030   2.457 -0.3082 -0.3924 -0.2882
 2445TIP3    H128826   1.242   6.101   2.426  0.5183  0.2423  2.4036
 2445TIP3    H228827   1.246   5.960   2.479 -0.9027 -0.9850 -0.5256
 2446TIP3   OH228828   5.976   1.706  12.442 -0.5536  0.2386  0.1970
 2446TIP3    H128829   5.933   1.757  12.510  2.1379  4.0962 -0.6747
 2446TIP3    H228830   5.967   1.759  12.363  0.2286 -1.9717 -1.4836
 2447TIP3   OH228831   6.659   0.169   4.241 -0.0692 -0.7716 -0.5132
 2447TIP3    H128832   6.634   0.254   4.205  0.1212 -0.8430 -0.8251
 2447TIP3    H228833   6.666   0.183   4.335 -1.3294 -0.7630 -0.4061
 2448TIP3   OH228834   0.818   2.166  13.903  0.0123 -0.0382 -1.0132
 2448TIP3    H128835   0.728   2.151  13.874 -0.3657  0.0237  0.0808
 2448TIP3    H228836   0.810   2.187  13.996  1.1650 -0.0955 -0.8867
 2449TIP3   OH228837   1.092   2.069   3.912 -0.1001  0.4301  0.1391
 2449TIP3    H128838   1.047   2.111   3.985 -1.3710 -1.1700  0.3249
 2449TIP3    H228839   1.178   2.044   3.948 -0.5038  0.1529  0.9432
 2450TIP3   OH228840   5.726   3.884  14.592  0.5969  0.1873 -0.2337
 2450TIP3    H128841   5.664   3.956  14.589  2.0463  1.4376 -1.3310
 2450TIP3    H228842   5.771   3.895  14.676  0.3862  0.1700 -0.1162
 2451TIP3   OH228843   3.519   6.144   5.750  0.3901  0.6378  0.3267
 2451TIP3    H128844   3.499   6.216   5.810 -0.0806  2.0615 -1.4456
 2451TIP3    H228845   3.613   6.131   5.759  0.4455  1.3271  0.8471
 2452TIP3   OH228846   1.105   2.971   5.247  0.3316 -0.4523  0.2109
 2452TIP3    H128847   1.055   2.967   5.328 -0.4188  0.9647 -0.1494
 2452TIP3    H228848   1.045   3.011   5.184  0.6417 -2.1621 -1.2618
 2453TIP3   OH228849   2.068   3.779  13.010 -0.0032 -0.1413  0.0564
 2453TIP3    H128850   2.092   3.720  13.081  1.0622 -0.3564 -0.4635
 2453TIP3    H228851   1.979   3.753  12.986  0.1807 -1.0480  0.3145
 2454TIP3   OH228852   1.060   0.814   4.594 -0.4321 -0.1538 -0.3266
 2454TIP3    H128853   1.113   0.886   4.627  1.5858 -0.7995 -1.9504
 2454TIP3    H228854   0.987   0.857   4.549  0.3434  0.8591 -0.6486
 2455TIP3   OH228855   1.295   4.422  11.089 -0.0938 -0.0793  0.5191
 2455TIP3    H128856   1.339   4.437  11.173  0.6160 -0.3055  0.1964
 2455TIP3    H228857   1.253   4.337  11.098 -2.3304  1.0771  1.6018
 2456TIP3   OH228858   0.262   3.045  14.181  0.0584 -0.2989 -0.2455
 2456TIP3    H128859   0.312   3.057  14.100  0.5677  1.5183  0.2918
 2456TIP3    H228860   0.171   3.040  14.153 -0.0482  2.8416 -0.8516
 2457TIP3   OH228861   1.137   0.762   0.604  0.0974 -0.0685  0.1528
 2457TIP3    H128862   1.105   0.803   0.684  0.6374  0.1709  0.2494
 2457TIP3    H228863   1.227   0.792   0.595  1.1387 -2.6083  1.1703
 2458TIP3   OH228864   0.180   3.705   5.738 -0.5195  0.0097 -1.3400
 2458TIP3    H128865   0.220   3.772   5.682  0.0377  1.0551  0.2478
 2458TIP3    H228866   0.244   3.692   5.808 -1.8760 -0.0722 -0.0736
 2459TIP3   OH228867   1.954   5.723  13.702  0.1934  0.0939 -1.0255
 2459TIP3    H128868   1.936   5.773  13.622  2.0201 -0.2708 -1.6980
 2459TIP3    H228869   2.019   5.658  13.676  1.8377  0.8185  1.0580
 2460TIP3   OH228870   1.612   4.654   3.573 -0.5128  0.3105 -0.0298
 2460TIP3    H128871   1.596   4.560   3.582 -1.5976  0.4039 -0.8166
 2460TIP3    H228872   1.639   4.666   3.482 -2.5510  1.0147 -0.5847
 2461TIP3   OH228873   2.121   2.151  15.289  0.5463  0.4284  0.0305
 2461TIP3    H128874   2.173   2.227  15.316  0.9047 -0.1332  0.9734
 2461TIP3    H228875   2.164   2.077  15.331 -1.0990 -0.0420  0.9742
 2462TIP3   OH228876   5.720   5.655   2.249 -0.2492 -0.4124  0.4073
 2462TIP3    H128877   5.741   5.713   2.323 -0.5024 -0.2675  0.3659
 2462TIP3    H228878   5.735   5.709   2.171 -2.9049  0.4498  0.4005
 2463TIP3   OH228879   1.676   5.208   1.471 -0.3859 -0.2232 -0.1995
 2463TIP3    H128880   1.767   5.215   1.442 -0.5066  1.3387 -0.2561
 2463TIP3    H228881   1.667   5.275   1.538 -1.3683 -0.7119  0.1682
 2464TIP3   OH228882   0.195   0.695  14.903 -0.1686 -0.1707  0.7367
 2464TIP3    H128883   0.116   0.671  14.855 -0.0503  1.4081 -0.3275
 2464TIP3    H228884   0.262   0.634  14.871  0.1238  1.3399 -1.8992
 2465TIP3   OH228885   0.442   1.858  16.947  0.1520 -0.3781  0.5303
 2465TIP3    H128886   0.453   1.774  16.992  0.4910 -1.7639 -1.9651
 2465TIP3    H228887   0.350   1.860  16.922  0.0302  0.2467  0.9994
 2466TIP3   OH228888   0.486   1.662   5.631  0.4537  0.5803  0.4216
 2466TIP3    H128889   0.391   1.671   5.638  0.5624  1.7091  0.6932
 2466TIP3    H228890   0.499   1.578   5.586 -0.7153  1.0667 -0.9137
 2467TIP3   OH228891   3.331   3.686   1.319 -0.6339 -0.0897  0.3301
 2467TIP3    H128892   3.316   3.615   1.257 -1.3522 -0.7392  1.2267
 2467TIP3    H228893   3.420   3.673   1.349 -0.7140 -0.5262  0.3817
 2468TIP3   OH228894   0.326   1.248  16.827 -0.1543 -0.0059 -0.0525
 2468TIP3    H128895   0.263   1.273  16.759  0.5292 -1.3467 -1.2431
 2468TIP3    H228896   0.400   1.307  16.814  0.9790 -1.7266 -2.1110
 2469TIP3   OH228897   5.177   2.689  13.652 -0.0157 -0.0169  0.5060
 2469TIP3    H128898   5.239   2.759  13.675 -0.9153  1.4460 -1.2235
 2469TIP3    H228899   5.150   2.652  13.736  0.7825  1.4679  1.4623
 2470TIP3   OH228900   4.176   2.071  10.931 -0.6536  0.0382  0.4959
 2470TIP3    H128901   4.107   2.068  10.864 -1.5305 -1.1302  1.3876
 2470TIP3    H228902   4.184   1.980  10.960  2.8298 -0.2843 -1.0838
 2471TIP3   OH228903   3.681   4.037   4.162  0.0786 -0.3767  0.0251
 2471TIP3    H128904   3.590   4.011   4.155 -0.4462  0.3580  2.8923
 2471TIP3    H228905   3.730   3.963   4.126 -1.5904 -1.0477 -0.9845
 2472TIP3   OH228906   0.122   3.705   3.843 -0.1506  0.2893 -0.3551
 2472TIP3    H128907   0.108   3.729   3.751 -0.5365 -0.4961 -0.5123
 2472TIP3    H228908   0.156   3.615   3.839 -1.9264 -0.4603  0.3228
 2473TIP3   OH228909   4.809   6.814  13.845 -0.1281  0.2148 -0.2153
 2473TIP3    H128910   4.778   6.759  13.917 -0.5354 -0.2175 -0.7209
 2473TIP3    H228911   4.905   6.804  13.846 -0.1333  0.1857  0.2384
 2474TIP3   OH228912   1.943   3.795   3.940 -0.4447  0.5416  0.3084
 2474TIP3    H128913   1.862   3.846   3.931  0.9831  2.9521  0.0598
 2474TIP3    H228914   1.972   3.814   4.029  0.4908  0.7916 -0.0429
 2475TIP3   OH228915   2.381   4.198   3.389  0.0145  0.2292  0.1692
 2475TIP3    H128916   2.288   4.176   3.397 -0.5243  0.8239 -3.1403
 2475TIP3    H228917   2.395   4.265   3.456 -1.4918 -0.9632  1.7804
 2476TIP3   OH228918   5.343   1.726   2.277  0.5188 -0.6444  0.0640
 2476TIP3    H128919   5.425   1.709   2.323  0.9361  0.4939 -0.2242
 2476TIP3    H228920   5.369   1.740   2.186 -0.0648 -0.8364 -0.1394
 2477TIP3   OH228921   5.356   3.982   0.607  0.1792 -0.4256  0.5811
 2477TIP3    H128922   5.289   3.998   0.673 -0.0578  1.6889 -0.1126
 2477TIP3    H228923   5.439   3.998   0.653  0.1005 -0.6823  0.8144
 2478TIP3   OH228924   4.157   0.541   5.472 -0.3133 -0.3763  0.4267
 2478TIP3    H128925   4.208   0.621   5.490  0.7180 -0.9868  0.2954
 2478TIP3    H228926   4.105   0.528   5.552  0.0178  0.0538  0.7226
 2479TIP3   OH228927   3.790   3.980  12.978 -0.7117 -0.0726 -0.2537
 2479TIP3    H128928   3.714   4.036  12.961  0.3060  1.2450 -0.5559
 2479TIP3    H228929   3.829   3.966  12.891 -1.0783 -1.4711 -0.2204
 2480TIP3   OH228930   0.645   4.521   2.362 -0.0167  0.1464  0.8436
 2480TIP3    H128931   0.568   4.484   2.319 -0.4295  0.7222  1.0692
 2480TIP3    H228932   0.692   4.446   2.396 -0.8705 -0.1700  1.3498
 2481TIP3   OH228933   3.312   5.152  14.069  0.3422 -0.3893  0.4466
 2481TIP3    H128934   3.320   5.218  14.001  0.5331 -0.4719  0.3871
 2481TIP3    H228935   3.403   5.135  14.097  0.2476 -0.1544  0.9133
 2482TIP3   OH228936   5.208   5.653   5.402 -0.2298  0.4323  0.0309
 2482TIP3    H128937   5.245   5.574   5.362 -3.1964 -0.5918 -1.0256
 2482TIP3    H228938   5.130   5.671   5.349 -2.1901  1.3766  3.0130
 2483TIP3   OH228939   5.887   0.765  13.094 -0.1950  0.2296 -0.1310
 2483TIP3    H128940   5.922   0.688  13.048 -2.4063 -1.0137  0.1166
 2483TIP3    H228941   5.915   0.839  13.040  3.0513 -0.5510  0.2582
 2484TIP3   OH228942   3.743   2.046   1.942 -0.0339  1.3161  0.0457
 2484TIP3    H128943   3.774   1.957   1.924 -0.8254  1.0248  0.0573
 2484TIP3    H228944   3.706   2.076   1.859  1.2900  2.0987 -0.2821
 2485TIP3   OH228945   0.993   3.205   6.013 -0.5076  0.2512 -0.5983
 2485TIP3    H128946   1.086   3.196   5.989 -0.0755  2.1013  0.1762
 2485TIP3    H228947   0.996   3.244   6.101 -2.0329  0.2898 -0.5509
 2486TIP3   OH228948   1.363   5.935   5.125  0.7308 -0.2831  0.4526
 2486TIP3    H128949   1.294   5.870   5.131  1.4096 -1.1286 -0.5431
 2486TIP3    H228950   1.437   5.888   5.087  1.1512  1.1328 -0.5688
 2487TIP3   OH228951   3.920   3.778   2.335 -0.2561 -0.3371  0.2740
 2487TIP3    H128952   3.842   3.814   2.379  0.7203 -0.8133  2.5186
 2487TIP3    H228953   3.924   3.826   2.252 -1.0735  2.1440  1.5422
 2488TIP3   OH228954   2.931   3.329   3.944  0.2950  0.5371 -0.0297
 2488TIP3    H128955   2.895   3.387   3.877  0.1983  0.5170  0.0043
 2488TIP3    H228956   2.929   3.242   3.904 -1.2968  0.2586  0.5785
 2489TIP3   OH228957   3.174   6.619   4.175 -0.3697 -0.1731 -0.1584
 2489TIP3    H128958   3.131   6.555   4.119  0.5129 -1.2700  0.3825
 2489TIP3    H228959   3.208   6.685   4.115 -1.2857 -0.1909 -0.7201
 2490TIP3   OH228960   3.192   2.865   4.831 -0.2266  0.3764 -0.2127
 2490TIP3    H128961   3.133   2.931   4.867  1.7135  1.5992  0.9081
 2490TIP3    H228962   3.184   2.791   4.892 -1.0460  0.2859 -0.4238
 2491TIP3   OH228963   1.081   3.802  15.881 -0.4544  0.0262  0.0915
 2491TIP3    H128964   1.106   3.723  15.929 -0.4410  0.0402  0.1068
 2491TIP3    H228965   1.164   3.838  15.850 -0.5332 -0.6259 -0.9503
 2492TIP3   OH228966   2.446   5.527  12.598  0.3340 -0.2444  0.0767
 2492TIP3    H128967   2.359   5.544  12.561 -0.2552 -0.8272  1.1545
 2492TIP3    H228968   2.445   5.571  12.683  3.0382  4.5816 -1.9717
 2493TIP3   OH228969   6.803   1.174   1.863  0.0537  0.2932  0.0812
 2493TIP3    H128970   6.760   1.112   1.922 -0.1682 -0.5668 -0.9461
 2493TIP3    H228971   6.852   1.233   1.921  0.3262 -0.8836  1.0865
 2494TIP3   OH228972   4.138   1.012  10.835 -0.7848 -0.4689  0.6340
 2494TIP3    H128973   4.076   1.042  10.902  0.1551 -0.1819  1.4018
 2494TIP3    H228974   4.154   0.920  10.856 -1.0745 -0.5852  0.3423
 2495TIP3   OH228975   1.461   6.638   1.921 -0.0424 -0.2003  0.6083
 2495TIP3    H128976   1.428   6.679   1.841 -1.3636 -1.9277  0.2063
 2495TIP3    H228977   1.484   6.711   1.978 -1.6920  1.0929 -0.2997
 2496TIP3   OH228978   4.897   6.030   1.527  0.3355 -0.3817 -0.0202
 2496TIP3    H128979   4.865   6.053   1.440 -0.9842  1.8135  0.9847
 2496TIP3    H228980   4.989   6.057   1.527  0.2176  0.0225 -0.5930
 2497TIP3   OH228981   1.611   5.726   0.996  0.4371  0.2773  0.2277
 2497TIP3    H128982   1.582   5.802   1.046  0.5060 -0.3508  1.2514
 2497TIP3    H228983   1.639   5.662   1.062 -3.7572 -2.4257 -0.2067
 2498TIP3   OH228984   1.753   5.831   2.441  0.5798  0.0592  0.2465
 2498TIP3    H128985   1.848   5.839   2.448  0.7892 -1.0188 -0.9377
 2498TIP3    H228986   1.730   5.883   2.364  0.3565 -0.5353 -0.0922
 2499TIP3   OH228987   3.528   2.507  14.884  0.0789 -1.2685  0.1886
 2499TIP3    H128988   3.488   2.490  14.969  0.3159 -0.5366  0.4566
 2499TIP3    H228989   3.481   2.583  14.851  0.9328 -0.6782  0.3045
 2500TIP3   OH228990   5.344   0.267   5.299  0.0886 -0.7717  0.1222
 2500TIP3    H128991   5.279   0.217   5.249 -0.8182 -1.9609  2.3092
 2500TIP3    H228992   5.425   0.258   5.250 -0.6686 -2.1590 -0.9376
 2501TIP3   OH228993   0.829   6.044   0.092  0.2546  0.2162  0.0914
 2501TIP3    H128994   0.920   6.039   0.119  0.2040 -2.5955  0.0471
 2501TIP3    H228995   0.828   6.012   0.002 -0.9250 -1.6061  0.6861
 2502TIP3   OH228996   5.010   5.468  15.481 -0.4555  0.2482  0.2513
 2502TIP3    H128997   5.098   5.494  15.454 -0.4726 -1.3113 -1.5250
 2502TIP3    H228998   5.006   5.490  15.574  1.0989  2.1428 -0.0649
 2503TIP3   OH228999   3.413   5.753  13.714  0.3024 -0.3113 -0.2675
 2503TIP3    H129000   3.430   5.773  13.622 -0.9031 -1.2021 -0.7210
 2503TIP3    H229001   3.355   5.824  13.744 -1.6353 -1.4714 -1.0549
 2504TIP3   OH229002   6.040   1.388   3.299 -0.1584  0.3734  0.6321
 2504TIP3    H129003   6.084   1.344   3.227  0.4949 -0.3003  1.4185
 2504TIP3    H229004   5.953   1.350   3.302  0.2939 -0.6576  1.1008
 2505TIP3   OH229005   2.366   4.241  11.330  0.1600 -0.6825 -0.3475
 2505TIP3    H129006   2.346   4.157  11.370  0.0546 -0.0707  0.9128
 2505TIP3    H229007   2.451   4.265  11.365 -0.8932  0.8855  1.2980
 2506TIP3   OH229008   6.225   4.317   0.574  0.0977 -0.0206 -0.3893
 2506TIP3    H129009   6.270   4.236   0.596 -1.9757 -1.3209 -0.7285
 2506TIP3    H229010   6.133   4.293   0.567 -0.5616  2.3321 -0.6969
 2507TIP3   OH229011   4.365   3.097  12.039  0.0502 -0.8871 -0.5294
 2507TIP3    H129012   4.389   3.184  12.009 -1.7125 -0.3579 -0.4851
 2507TIP3    H229013   4.331   3.110  12.128 -1.7300 -1.3412 -1.0973
 2508TIP3   OH229014   0.202   4.186   5.483  0.1248  0.0991  0.1172
 2508TIP3    H129015   0.107   4.188   5.493  0.1637 -1.7005  1.3235
 2508TIP3    H229016   0.235   4.223   5.565  0.4521 -0.2142  0.1302
 2509TIP3   OH229017   4.627   3.279   2.130  0.4510 -0.3116 -0.8235
 2509TIP3    H129018   4.631   3.351   2.067 -0.3012 -0.0079 -0.5388
 2509TIP3    H229019   4.566   3.216   2.092  0.2088 -0.2553 -0.5367
 2510TIP3   OH229020   5.825   5.851   0.328 -0.4169 -0.3191  0.0148
 2510TIP3    H129021   5.872   5.908   0.267  0.9641 -0.2054  1.1215
 2510TIP3    H229022   5.846   5.886   0.415 -0.9740 -1.4529  0.6300
 2511TIP3   OH229023   0.304   2.641  16.087 -0.5564 -0.9557 -0.6615
 2511TIP3    H129024   0.336   2.725  16.120 -2.5377 -0.3714 -0.0749
 2511TIP3    H229025   0.374   2.579  16.108  0.2600  0.2567  0.3684
 2512TIP3   OH229026   3.208   3.528   5.139 -0.2597  0.1621 -0.0568
 2512TIP3    H129027   3.149   3.602   5.149  1.0591  1.2056  0.2988
 2512TIP3    H229028   3.293   3.560   5.169  0.1039 -1.8619  1.3185
 2513TIP3   OH229029   6.628   0.008   0.053 -0.1164  0.7432  0.4233
 2513TIP3    H129030   6.690   0.045   0.116  2.1561  0.6493 -1.6404
 2513TIP3    H229031   6.651  -0.084   0.047 -0.2949  0.7468 -0.5248
 2514TIP3   OH229032   4.565   4.187   0.127 -0.2595  0.5956 -0.0461
 2514TIP3    H129033   4.530   4.123   0.066  1.4622  1.1111 -1.6908
 2514TIP3    H229034   4.652   4.154   0.151  0.5525  2.0960 -0.7136
 2515TIP3   OH229035   4.001   0.323  14.224  0.1965  0.3695  0.2957
 2515TIP3    H129036   4.095   0.325  14.242  0.1390  0.6211  0.5902
 2515TIP3    H229037   3.994   0.343  14.131  0.5333 -1.4431 -0.1416
 2516TIP3   OH229038   4.419   6.218  15.256 -0.1381  0.3079  0.5445
 2516TIP3    H129039   4.493   6.194  15.200 -1.3386 -0.3974 -0.8316
 2516TIP3    H229040   4.353   6.252  15.195 -1.6581 -0.8508  1.4527
 2517TIP3   OH229041   5.475   1.711  15.886  0.2305  0.2629  0.1798
 2517TIP3    H129042   5.494   1.783  15.825 -0.2746  0.1626 -0.1024
 2517TIP3    H229043   5.452   1.638  15.829 -0.1473  0.1379  0.4917
 2518TIP3   OH229044   5.678   2.603   3.408 -0.0637 -0.3012 -0.2950
 2518TIP3    H129045   5.659   2.639   3.495 -0.1262  1.0708 -0.8531
 2518TIP3    H229046   5.613   2.534   3.396 -1.4806  0.9367 -0.1111
 2519TIP3   OH229047   0.260   5.491  12.942 -0.3435 -0.1059 -0.0373
 2519TIP3    H129048   0.169   5.485  12.915 -0.3807  0.5603 -0.0673
 2519TIP3    H229049   0.304   5.421  12.893 -0.6734  0.1480 -0.7033
 2520TIP3   OH229050   6.191   1.312  16.964  0.2833 -0.3245  0.2702
 2520TIP3    H129051   6.250   1.248  17.004 -0.9598 -1.9495 -0.3631
 2520TIP3    H229052   6.170   1.373  17.034  0.3887 -1.4484  1.3074
 2521TIP3   OH229053   6.401   2.100   1.200  0.3191 -0.0646  0.2254
 2521TIP3    H129054   6.392   2.182   1.248 -0.9085 -1.0900  1.8108
 2521TIP3    H229055   6.471   2.053   1.245 -1.2034 -1.2638  1.4249
 2522TIP3   OH229056   2.327   2.623   2.638  0.4102  0.3576 -0.2788
 2522TIP3    H129057   2.375   2.567   2.578 -0.6608 -1.3252  0.3833
 2522TIP3    H229058   2.371   2.708   2.632  2.5829 -0.7455 -0.6958
 2523TIP3   OH229059   4.083   1.570   0.541 -0.4007  0.0432 -0.6613
 2523TIP3    H129060   4.150   1.537   0.481  0.2752  0.8199 -0.3535
 2523TIP3    H229061   4.021   1.498   0.550  1.7614 -1.7414  1.1319
 2524TIP3   OH229062   3.775   5.965   0.192  0.2102  0.3000 -0.1273
 2524TIP3    H129063   3.746   6.055   0.182  0.5680  0.2122 -2.7958
 2524TIP3    H229064   3.818   5.962   0.278  1.4821  3.0418 -0.5898
 2525TIP3   OH229065   3.645   0.905   2.025 -0.2637  0.1691  0.1748
 2525TIP3    H129066   3.710   0.922   2.094 -0.5091  1.5608  0.0852
 2525TIP3    H229067   3.595   0.986   2.019  0.2496  0.3800 -2.1790
 2526TIP3   OH229068   0.727   5.384  13.991  0.0913 -0.2335 -0.1118
 2526TIP3    H129069   0.636   5.357  14.009  0.6229 -1.7812  0.4353
 2526TIP3    H229070   0.724   5.416  13.901 -0.8761 -0.9567 -0.3617
 2527TIP3   OH229071   3.031   3.484  15.144  0.0149 -0.1055  0.7064
 2527TIP3    H129072   3.062   3.473  15.055 -1.9731 -0.0292 -0.0500
 2527TIP3    H229073   3.085   3.426  15.196  1.7201  0.4231 -0.4065
 2528TIP3   OH229074   6.529   0.370   4.070  0.0869 -0.7594  0.1449
 2528TIP3    H129075   6.617   0.403   4.087  0.0562 -0.5437 -0.1117
 2528TIP3    H229076   6.541   0.302   4.004  0.0450 -0.6216 -0.0062
 2529TIP3   OH229077   4.045   6.490   4.497 -0.4012  0.2551  0.1607
 2529TIP3    H129078   4.133   6.500   4.461  1.3523 -1.9833  3.3315
 2529TIP3    H229079   4.011   6.412   4.454  0.2646 -0.3913  0.7804
 2530TIP3   OH229080   3.855   1.472   2.701  0.6817  0.7691  0.4349
 2530TIP3    H129081   3.805   1.451   2.622 -1.2780 -0.6419  1.9747
 2530TIP3    H229082   3.946   1.450   2.678  0.1923  0.5570 -1.4455
 2531TIP3   OH229083   6.588   5.772  12.187 -0.0556 -0.0423 -0.5278
 2531TIP3    H129084   6.520   5.810  12.243 -1.1204 -1.8437 -0.5428
 2531TIP3    H229085   6.546   5.760  12.102  0.4443 -0.6675 -0.6979
 2532TIP3   OH229086   4.944   0.614  16.564  0.0898  0.1784  0.0563
 2532TIP3    H129087   4.903   0.565  16.635 -0.5958 -2.7465 -2.1600
 2532TIP3    H229088   5.038   0.605  16.578  0.0071 -2.4532 -0.5773
 2533TIP3   OH229089   2.354   2.540   3.487  0.0828  0.0510 -0.5609
 2533TIP3    H129090   2.365   2.627   3.447  1.7115  1.1386  1.9937
 2533TIP3    H229091   2.263   2.538   3.514 -0.5456  0.0422 -2.5073
 2534TIP3   OH229092   6.555   1.859   4.385 -0.3038 -0.5981  0.5751
 2534TIP3    H129093   6.474   1.831   4.429  0.8734 -1.4344  2.3377
 2534TIP3    H229094   6.535   1.946   4.350 -2.1135 -1.0004  0.5328
 2535TIP3   OH229095   0.093   0.682  15.620 -0.0300 -0.5036  0.0844
 2535TIP3    H129096   0.021   0.634  15.662  1.6458 -0.3748  3.4072
 2535TIP3    H229097   0.157   0.614  15.597  1.7270 -0.2240  3.5307
 2536TIP3   OH229098   5.277   3.937  14.236 -0.2374 -0.1643 -0.0446
 2536TIP3    H129099   5.203   3.886  14.202 -0.6611 -0.8887  1.8376
 2536TIP3    H229100   5.314   3.882  14.305  0.8423  1.0462  0.3732
 2537TIP3   OH229101   4.663   2.573   1.520  0.4191  0.2236  0.8089
 2537TIP3    H129102   4.591   2.556   1.581  0.2791  0.4186  0.6999
 2537TIP3    H229103   4.730   2.508   1.543 -0.9667 -2.0499 -1.0691
 2538TIP3   OH229104   0.451   3.399  14.740  0.5675 -0.1405 -0.6975
 2538TIP3    H129105   0.517   3.383  14.808  0.6199 -0.8424 -0.9035
 2538TIP3    H229106   0.379   3.442  14.787  1.4109  1.2238 -0.5924
 2539TIP3   OH229107   1.177   4.755  11.928 -0.4292 -0.6340  0.0656
 2539TIP3    H129108   1.123   4.743  12.007 -2.0236  0.3526 -0.8221
 2539TIP3    H229109   1.229   4.834  11.946  0.0241 -1.0367  0.5475
 2540TIP3   OH229110   2.152   2.050   0.163 -0.1146 -0.2823  0.4760
 2540TIP3    H129111   2.124   1.976   0.108 -2.0662 -0.4017  1.5586
 2540TIP3    H229112   2.193   2.010   0.239  1.4577 -0.1424 -0.2609
 2541TIP3   OH229113   1.278   3.719  10.673 -0.4030 -0.2905 -0.6416
 2541TIP3    H129114   1.273   3.663  10.751  0.8017  0.1958 -0.1831
 2541TIP3    H229115   1.227   3.673  10.607 -0.0177 -1.5967 -0.0690
 2542TIP3   OH229116   4.857   3.645   1.436  0.0188  0.1077  0.2241
 2542TIP3    H129117   4.937   3.594   1.420  0.1819  0.7840 -1.2842
 2542TIP3    H229118   4.812   3.598   1.506  1.9390 -0.0458  1.4133
 2543TIP3   OH229119   1.887   5.811  11.031 -0.3775  0.3408 -0.4498
 2543TIP3    H129120   1.974   5.803  10.994  0.7263 -0.9216  2.1617
 2543TIP3    H229121   1.834   5.747  10.982  1.1738 -1.7580  0.4902
 2544TIP3   OH229122   4.872   0.842   4.876 -0.1105 -0.0345  0.3974
 2544TIP3    H129123   4.909   0.927   4.853 -1.2585  0.4090  0.1038
 2544TIP3    H229124   4.836   0.808   4.793  1.7595 -1.5841  0.1361
 2545TIP3   OH229125   5.951   0.177   3.175  0.0380 -0.0139 -0.2180
 2545TIP3    H129126   6.010   0.211   3.108 -0.7055  0.3275 -0.7051
 2545TIP3    H229127   5.980   0.086   3.189  2.1621  0.8194  1.2302
 2546TIP3   OH229128   0.437   4.341  13.529 -0.1079 -0.5099  0.4301
 2546TIP3    H129129   0.365   4.305  13.477  0.0573  0.7847 -0.7591
 2546TIP3    H229130   0.516   4.319  13.480 -0.0850  2.6179 -1.2065
 2547TIP3   OH229131   1.510   3.960  10.846 -0.4933 -0.1388  0.1578
 2547TIP3    H129132   1.532   3.870  10.820 -0.8492 -0.6891  1.6556
 2547TIP3    H229133   1.421   3.972  10.814 -1.2368 -1.1064  1.7355
 2548TIP3   OH229134   4.475   0.733  11.700 -0.1952  0.1341 -0.6273
 2548TIP3    H129135   4.432   0.651  11.675  2.5732 -2.1527  1.4218
 2548TIP3    H229136   4.548   0.741  11.639  0.2083  0.4359 -0.1157
 2549TIP3   OH229137   1.180   4.219  10.888  0.5716 -0.0291  0.5509
 2549TIP3    H129138   1.107   4.247  10.833  0.2816  0.2040  1.0493
 2549TIP3    H229139   1.217   4.144  10.842 -1.1758 -1.3653  1.2264
 2550TIP3   OH229140   0.101   5.023   3.694  0.0974 -0.0870  0.0512
 2550TIP3    H129141   0.175   4.999   3.750  1.3695  0.6945 -1.2081
 2550TIP3    H229142   0.092   5.117   3.708  0.4430  0.1193 -1.0257
 2551TIP3   OH229143   4.469   0.020   3.124 -0.2012 -0.2087  1.0490
 2551TIP3    H129144   4.430  -0.062   3.154 -0.6488 -0.3383  0.1561
 2551TIP3    H229145   4.433   0.032   3.036  2.7561 -1.0166 -0.4010
 2552TIP3   OH229146   4.796   5.121  13.227 -0.1968 -0.3750 -0.1568
 2552TIP3    H129147   4.877   5.081  13.260  1.0577  2.0277 -0.0874
 2552TIP3    H229148   4.810   5.131  13.133 -0.2569  0.3188 -0.1019
 2553TIP3   OH229149   4.383   4.915  15.363 -0.1677 -0.4172 -0.5472
 2553TIP3    H129150   4.354   4.919  15.272 -1.4447 -1.6034 -0.2255
 2553TIP3    H229151   4.476   4.892  15.358 -0.0778  0.1287 -1.5522
 2554TIP3   OH229152   1.914   3.284   2.779  0.0832  0.0107  0.2668
 2554TIP3    H129153   1.985   3.343   2.804  0.6924 -1.5029  2.2711
 2554TIP3    H229154   1.946   3.241   2.700 -0.0155  1.6631 -0.7341
 2555TIP3   OH229155   5.359   2.427  13.211  0.1262  0.3867 -0.2544
 2555TIP3    H129156   5.452   2.451  13.215  0.3962 -0.7377  0.7630
 2555TIP3    H229157   5.326   2.475  13.135  1.4531  1.0764 -0.4385
 2556TIP3   OH229158   3.998   2.496   5.245 -0.0607  0.2852  0.3891
 2556TIP3    H129159   4.063   2.487   5.314  2.6326  0.3987 -1.9759
 2556TIP3    H229160   4.029   2.569   5.192 -0.1876 -1.7894 -2.7608
 2557TIP3   OH229161   6.683   3.424  13.178 -0.0806 -0.0681  0.0877
 2557TIP3    H129162   6.764   3.475  13.174 -1.0403  1.5080 -0.0297
 2557TIP3    H229163   6.671   3.391  13.089  1.1241 -1.4624  0.4205
 2558TIP3   OH229164   4.672   2.265   6.034 -0.1305  0.1018  0.0828
 2558TIP3    H129165   4.736   2.327   6.069 -2.0154  1.5487  1.2089
 2558TIP3    H229166   4.674   2.191   6.094 -0.7102  0.9299  1.1601
 2559TIP3   OH229167   4.217   4.923  14.890 -0.1752 -0.1307 -0.0943
 2559TIP3    H129168   4.144   4.984  14.876  0.1805 -0.0818 -1.9170
 2559TIP3    H229169   4.181   4.837  14.872  0.6392  0.0551 -3.0237
 2560TIP3   OH229170   6.060   1.031   1.543  0.8360  0.1566 -0.2359
 2560TIP3    H129171   6.069   1.087   1.620 -0.2230  0.6357 -0.4377
 2560TIP3    H229172   6.133   1.056   1.486  1.8662 -0.4790  0.7578
 2561TIP3   OH229173   3.095   1.233  12.055  0.3962  0.2356  0.1968
 2561TIP3    H129174   3.002   1.218  12.072  0.3859  0.1610  0.0689
 2561TIP3    H229175   3.137   1.221  12.140  0.6573 -2.4699 -0.2297
 2562TIP3   OH229176   3.355   2.800   6.518  0.5007 -0.1886  0.0082
 2562TIP3    H129177   3.380   2.862   6.586  0.0492 -0.6771  0.6275
 2562TIP3    H229178   3.297   2.849   6.460 -0.3593 -0.2001  0.8404
 2563TIP3   OH229179   3.192   3.126   3.898 -0.1876  0.1355  0.0196
 2563TIP3    H129180   3.134   3.190   3.939  2.1884  2.3911  0.1385
 2563TIP3    H229181   3.185   3.048   3.953 -1.7671  0.9356  1.0114
 2564TIP3   OH229182   1.761   2.993   1.593  0.0102 -0.5253  0.0221
 2564TIP3    H129183   1.740   3.011   1.685  0.1553  1.3098 -0.2857
 2564TIP3    H229184   1.839   2.937   1.597 -0.0231 -0.5135  1.0184
 2565TIP3   OH229185   2.106   6.073  13.260 -1.4423  0.1667 -0.2581
 2565TIP3    H129186   2.108   6.156  13.308 -0.3312  0.0944 -0.1593
 2565TIP3    H229187   2.083   6.098  13.170  0.9956  0.8805 -0.7451
 2566TIP3   OH229188   3.206   5.106   0.009  0.4605  0.0380  0.1118
 2566TIP3    H129189   3.273   5.042   0.033  0.3893  0.7656  2.5652
 2566TIP3    H229190   3.125   5.055   0.006  0.8643 -0.5630 -1.3346
 2567TIP3   OH229191   3.094   4.668   5.184 -0.1190 -0.1714 -0.6401
 2567TIP3    H129192   3.165   4.706   5.131  0.3691 -1.0440 -0.6380
 2567TIP3    H229193   3.082   4.731   5.256 -0.0171  0.4678 -1.1716
 2568TIP3   OH229194   2.143   4.180  14.576 -0.1726 -0.2932 -0.0549
 2568TIP3    H129195   2.056   4.141  14.569  0.5333 -1.9590 -0.0033
 2568TIP3    H229196   2.150   4.208  14.667 -1.0353  0.8604 -0.3183
 2569TIP3   OH229197   2.832   6.102  16.811 -0.4845 -0.2321  0.3441
 2569TIP3    H129198   2.787   6.019  16.827 -0.5380 -0.4710 -0.9227
 2569TIP3    H229199   2.896   6.081  16.743 -0.1109  0.6464  0.4191
 2570TIP3   OH229200   1.584   4.529   0.006 -0.2737  1.2543  0.5455
 2570TIP3    H129201   1.662   4.522  -0.050 -0.2865 -0.6202  0.7158
 2570TIP3    H229202   1.542   4.611  -0.022 -0.1983  0.4663 -2.1025
 2571TIP3   OH229203   1.498   4.222  13.996 -0.6506  0.5999  0.0065
 2571TIP3    H129204   1.502   4.304  13.947 -0.5086  0.6019  0.0194
 2571TIP3    H229205   1.405   4.210  14.015 -0.6447  0.8918  0.2317
 2572TIP3   OH229206   4.471   0.130   5.987 -0.1078  0.6854 -0.1982
 2572TIP3    H129207   4.414   0.148   6.061  0.7746 -0.3287  0.7515
 2572TIP3    H229208   4.411   0.100   5.918 -0.8973  1.3125  0.2018
 2573TIP3   OH229209   6.268   2.284  13.549 -0.4721  0.2622 -0.7541
 2573TIP3    H129210   6.205   2.234  13.496 -1.0177 -0.2535  0.3509
 2573TIP3    H229211   6.312   2.341  13.486 -0.9883 -0.4460 -1.7896
 2574TIP3   OH229212   0.348   2.437   1.185  0.1677 -0.0889  0.0724
 2574TIP3    H129213   0.253   2.442   1.195 -0.2230  0.0203 -2.8470
 2574TIP3    H229214   0.364   2.348   1.154  1.2769 -0.6851  2.1811
 2575TIP3   OH229215   2.344   2.257   2.700 -0.0163  0.4813 -0.3619
 2575TIP3    H129216   2.298   2.322   2.753 -0.7207  0.4739 -0.9541
 2575TIP3    H229217   2.389   2.202   2.764 -2.0694 -0.4732  0.3538
 2576TIP3   OH229218   4.771   4.872  12.222 -0.3159 -0.2839 -0.2701
 2576TIP3    H129219   4.824   4.792  12.226 -0.3737 -0.2842  0.8476
 2576TIP3    H229220   4.734   4.880  12.310  1.7603  2.3900  0.4842
 2577TIP3   OH229221   4.016   6.382  11.672  0.7270  0.2104 -0.0401
 2577TIP3    H129222   3.968   6.361  11.592 -1.3809 -1.1227  1.4610
 2577TIP3    H229223   4.095   6.327  11.667 -0.0982 -0.9778 -0.5540
 2578TIP3   OH229224   2.852   0.363   4.386  0.2388 -0.6628 -0.7339
 2578TIP3    H129225   2.789   0.298   4.416 -0.1944 -0.5929 -1.4697
 2578TIP3    H229226   2.810   0.406   4.312  0.6653  0.2074 -0.4974
 2579TIP3   OH229227   2.200   2.634  14.991  0.8075 -0.0550  0.2704
 2579TIP3    H129228   2.233   2.724  14.995 -0.5938  0.5467 -0.7872
 2579TIP3    H229229   2.172   2.624  14.900  1.8491 -1.9176  0.1187
 2580TIP3   OH229230   1.650   1.789  11.586  0.9040  0.7917  0.0075
 2580TIP3    H129231   1.628   1.881  11.601 -1.1112  0.1789  1.2533
 2580TIP3    H229232   1.570   1.741  11.610  1.3034 -1.1779 -2.2341
 2581TIP3   OH229233   3.428   2.914  12.245  0.5360  0.1845 -0.1866
 2581TIP3    H129234   3.474   2.845  12.198 -0.5572  0.0963 -1.1765
 2581TIP3    H229235   3.388   2.968  12.176  1.8719  2.2012  0.5068
 2582TIP3   OH229236   2.958   4.644   2.291 -0.2657 -0.1003  0.4684
 2582TIP3    H129237   2.949   4.584   2.365 -0.9169 -0.4856  0.0826
 2582TIP3    H229238   2.874   4.688   2.286  0.0574  0.5210  0.4620
 2583TIP3   OH229239   2.422   3.991   6.058  0.6992 -0.0900 -0.1466
 2583TIP3    H129240   2.410   3.912   6.112 -1.7469 -0.2371 -0.7552
 2583TIP3    H229241   2.413   4.063   6.120 -2.4702 -0.2449 -0.2681
 2584TIP3   OH229242   6.696   6.120  16.289 -0.0423 -0.0162 -0.0302
 2584TIP3    H129243   6.666   6.058  16.223  1.1799 -1.4031  0.6338
 2584TIP3    H229244   6.627   6.121  16.355 -0.0380 -0.7797 -0.0028
 2585TIP3   OH229245   6.842   0.695   1.430 -0.1787 -0.5190 -0.1937
 2585TIP3    H129246   6.769   0.681   1.491 -0.5034  1.7145  0.0178
 2585TIP3    H229247   6.800   0.712   1.346  0.1475 -0.3979 -0.3341
 2586TIP3   OH229248   1.967   1.130  16.522 -0.0289 -0.0854  0.0340
 2586TIP3    H129249   2.012   1.103  16.442  1.1396 -0.4894  0.7985
 2586TIP3    H229250   1.888   1.174  16.492 -0.7662 -2.1971 -1.3278
 2587TIP3   OH229251   3.894   1.646  12.607 -0.4957  0.1381  0.2066
 2587TIP3    H129252   3.824   1.616  12.548  0.6956  1.8595 -2.2665
 2587TIP3    H229253   3.861   1.727  12.644  0.5916  1.7553 -2.1055
 2588TIP3   OH229254   6.381   2.575  10.831 -0.2341  0.0014 -0.0959
 2588TIP3    H129255   6.394   2.487  10.866  1.0902 -0.0791 -0.7318
 2588TIP3    H229256   6.312   2.564  10.765  1.1314 -0.9422 -1.4350
 2589TIP3   OH229257   2.051   3.321  12.364 -0.2068 -0.2689 -0.0236
 2589TIP3    H129258   2.043   3.400  12.311 -0.6248 -0.1959  0.1476
 2589TIP3    H229259   2.140   3.289  12.346 -0.2098 -0.0337 -0.4711
 2590TIP3   OH229260   1.149   1.457   3.881 -0.7901 -0.0189 -0.2666
 2590TIP3    H129261   1.217   1.496   3.937 -0.0515  0.6405 -1.5743
 2590TIP3    H229262   1.116   1.383   3.932  0.0655  0.3738  0.9084
 2591TIP3   OH229263   3.268   3.951   2.007  0.0755 -0.0208 -0.2589
 2591TIP3    H129264   3.196   3.909   1.960 -1.6385  0.1845  1.9872
 2591TIP3    H229265   3.268   4.041   1.974 -0.4172 -0.1381 -0.5915
 2592TIP3   OH229266   1.161   3.767  12.479  0.3226  0.3384  0.2568
 2592TIP3    H129267   1.161   3.858  12.450 -1.4228  0.2139 -0.2039
 2592TIP3    H229268   1.084   3.759  12.534  0.9824 -0.6389  1.0788
 2593TIP3   OH229269   2.906   5.249   3.053 -0.6610 -0.4797 -0.2684
 2593TIP3    H129270   2.835   5.304   3.017  0.0863  1.7001  1.3888
 2593TIP3    H229271   2.974   5.252   2.986 -0.7560  0.3843 -0.3379
 2594TIP3   OH229272   2.069   0.238   3.731  0.0437 -0.0629 -0.5480
 2594TIP3    H129273   2.077   0.143   3.717  2.4337 -0.1726  0.9213
 2594TIP3    H229274   2.102   0.277   3.650  0.1370 -0.5128 -0.7308
 2595TIP3   OH229275   1.088   4.593   2.810  0.4624 -0.3772  0.0014
 2595TIP3    H129276   1.034   4.670   2.832 -2.0484 -2.7249  2.8975
 2595TIP3    H229277   1.057   4.567   2.723  0.0196  0.7577 -0.2108
 2596TIP3   OH229278   1.627   6.474   5.660  0.2401 -0.0082  0.0725
 2596TIP3    H129279   1.676   6.402   5.699 -1.5705 -0.7159  1.1865
 2596TIP3    H229280   1.570   6.505   5.731 -0.9116  0.7407 -1.1371
 2597TIP3   OH229281   6.504   2.021  16.996 -0.2784 -0.1999  0.1919
 2597TIP3    H129282   6.600   2.018  16.993 -0.2188  1.2841  0.1358
 2597TIP3    H229283   6.483   2.109  17.027 -1.6509  0.3839 -2.1478
 2598TIP3   OH229284   0.580   5.221   1.313 -0.1108  0.3502  0.1250
 2598TIP3    H129285   0.603   5.213   1.220  1.1801  1.3884  0.3272
 2598TIP3    H229286   0.647   5.171   1.359 -0.2421  0.5468  0.5374
 2599TIP3   OH229287   4.052   2.322  15.180  0.0452 -0.5794 -0.3928
 2599TIP3    H129288   4.056   2.306  15.085 -1.4261  1.8462 -0.9467
 2599TIP3    H229289   4.003   2.247  15.214 -0.5360 -0.8616 -1.7667
 2600TIP3   OH229290   2.754   6.618  14.292 -0.5669  0.2208  0.4121
 2600TIP3    H129291   2.842   6.642  14.320 -1.0030  1.9302  0.4466
 2600TIP3    H229292   2.696   6.662  14.354 -1.4923  1.6074 -1.3482
 2601TIP3   OH229293   3.734   2.672  14.476 -0.3029  0.2779 -0.1053
 2601TIP3    H129294   3.822   2.635  14.487 -0.2803  0.5671  0.7897
 2601TIP3    H229295   3.675   2.598  14.493 -0.2438  0.3774  0.5523
 2602TIP3   OH229296   5.282   1.250  15.688 -0.3093 -0.4975 -0.4653
 2602TIP3    H129297   5.318   1.187  15.751 -1.4873 -1.8936 -1.1377
 2602TIP3    H229298   5.299   1.211  15.603  1.6764  1.5858 -1.1268
 2603TIP3   OH229299   3.592   0.330  12.891 -0.1528  0.2813  0.0619
 2603TIP3    H129300   3.610   0.244  12.852 -1.0306  0.0622  0.1122
 2603TIP3    H229301   3.652   0.390  12.847 -0.0973 -0.2219 -0.5559
 2604TIP3   OH229302   4.486   5.660  17.043 -0.1568  0.1007  0.0376
 2604TIP3    H129303   4.522   5.578  17.077  0.1898  0.1676 -0.1662
 2604TIP3    H229304   4.519   5.727  17.102 -1.3702 -0.0188  0.8948
 2605TIP3   OH229305   0.509   5.827   4.070 -0.0316 -0.6998 -0.5358
 2605TIP3    H129306   0.483   5.856   3.982 -0.6054 -1.8265 -0.7513
 2605TIP3    H229307   0.480   5.897   4.128  0.3476  0.0562 -1.2345
 2606TIP3   OH229308   5.213   2.322  16.846  0.7993 -0.7736  0.1769
 2606TIP3    H129309   5.268   2.244  16.849  0.7359 -0.8976 -1.2186
 2606TIP3    H229310   5.181   2.325  16.755 -0.5698 -0.0750  0.6535
 2607TIP3   OH229311   2.961   3.422  13.406  0.4233 -0.4977  0.0004
 2607TIP3    H129312   2.967   3.354  13.338 -0.0426 -1.1429  0.5851
 2607TIP3    H229313   3.050   3.429  13.440  0.3160 -1.4615  0.5280
 2608TIP3   OH229314   0.628   6.239  12.091 -0.3081 -0.1214 -0.1831
 2608TIP3    H129315   0.596   6.289  12.016 -0.2768  0.4905  0.2024
 2608TIP3    H229316   0.551   6.196  12.127 -0.4544  0.2009 -0.1096
 2609TIP3   OH229317   3.522   0.522   2.648 -0.3501 -1.0157  0.0397
 2609TIP3    H129318   3.526   0.615   2.626  0.2915 -1.3218 -1.2653
 2609TIP3    H229319   3.596   0.509   2.708 -1.1819 -0.4684  1.2241
 2610TIP3   OH229320   0.305   5.966  10.827 -0.1779  0.1192 -0.1222
 2610TIP3    H129321   0.352   6.004  10.752 -0.5259  0.0932 -0.3548
 2610TIP3    H229322   0.214   5.992  10.814 -0.2613  0.0019  0.2236
 2611TIP3   OH229323   0.145   2.135  11.804  0.1589  0.2093  0.0980
 2611TIP3    H129324   0.219   2.192  11.780 -0.1493 -0.5494 -3.2520
 2611TIP3    H229325   0.069   2.179  11.766 -0.2476 -1.7046 -1.4551
 2612TIP3   OH229326   4.065   1.419   5.283  0.2130 -0.1589 -0.3882
 2612TIP3    H129327   4.075   1.336   5.330  0.1754  1.2760  2.3589
 2612TIP3    H229328   4.006   1.470   5.338  2.5730  2.7992 -0.3643
 2613TIP3   OH229329   3.526   6.693  13.926 -0.1867 -0.4912  0.0282
 2613TIP3    H129330   3.474   6.761  13.969 -0.0451  1.7088 -2.9659
 2613TIP3    H229331   3.465   6.620  13.916 -1.0278 -0.0127  1.4191
 2614TIP3   OH229332   0.202   0.022  12.324 -0.2721  0.0799  0.6812
 2614TIP3    H129333   0.253  -0.010  12.398  0.6138  1.5456  0.7459
 2614TIP3    H229334   0.265   0.070  12.270 -1.6406  2.5103  1.0910
 2615TIP3   OH229335   5.779   0.619   1.118 -0.0381 -0.4051  0.1578
 2615TIP3    H129336   5.806   0.538   1.161 -3.0537 -2.0429 -0.7312
 2615TIP3    H229337   5.684   0.611   1.110 -0.1611  2.0580 -2.3196
 2616TIP3   OH229338   0.889   2.737   4.367 -0.0874 -0.0753  0.5216
 2616TIP3    H129339   0.812   2.736   4.310  0.6960 -0.3274 -0.5467
 2616TIP3    H229340   0.944   2.666   4.336 -0.2556 -1.1440  2.4992
 2617TIP3   OH229341   6.602   0.644  16.556  0.6203  0.0415  0.0813
 2617TIP3    H129342   6.584   0.719  16.499 -0.4596 -1.0303 -1.0525
 2617TIP3    H229343   6.697   0.643  16.565  0.9238 -0.1576 -2.3272
 2618TIP3   OH229344   3.831   1.085  14.524  0.0236 -0.4345  0.2741
 2618TIP3    H129345   3.836   1.172  14.484  2.5822 -1.1502 -1.2418
 2618TIP3    H229346   3.779   1.034  14.462  0.8854 -0.6388 -0.2979
 2619TIP3   OH229347   1.703   0.256  15.116  0.1251 -0.4773 -0.3576
 2619TIP3    H129348   1.610   0.276  15.127  0.3357  0.4291 -0.0868
 2619TIP3    H229349   1.707   0.161  15.111 -0.8070 -0.5326 -0.2569
 2620TIP3   OH229350   6.349   3.848   0.975  0.2356  0.1625  0.7218
 2620TIP3    H129351   6.430   3.811   1.007  0.3917  1.0460  1.3844
 2620TIP3    H229352   6.290   3.846   1.050  0.9794  3.3551  1.5479
 2621TIP3   OH229353   2.780   4.705  15.837  0.7768  0.6875  0.2949
 2621TIP3    H129354   2.747   4.691  15.749 -0.8649  0.9463  0.8336
 2621TIP3    H229355   2.802   4.798  15.840 -1.1078  1.1673  0.7234
 2622TIP3   OH229356   2.237   2.407  15.317  0.0191 -0.1043 -0.4891
 2622TIP3    H129357   2.293   2.477  15.284  0.9483 -0.3854  0.4231
 2622TIP3    H229358   2.292   2.360  15.379 -0.9833 -0.8982 -0.1713
 2623TIP3   OH229359   2.852   4.188   6.206 -0.7449  0.3254 -0.0819
 2623TIP3    H129360   2.814   4.133   6.274  0.0256 -0.3189 -0.1571
 2623TIP3    H229361   2.943   4.159   6.200 -1.3585 -1.4168 -3.1226
 2624TIP3   OH229362   1.895   0.875  10.562 -0.1337 -0.1387  0.0658
 2624TIP3    H129363   1.817   0.853  10.613 -0.1785  0.6091  0.3268
 2624TIP3    H229364   1.924   0.791  10.526 -0.2830 -0.6374  1.0713
 2625TIP3   OH229365   4.689   5.432  11.406 -0.0474 -0.1935 -0.0256
 2625TIP3    H129366   4.713   5.344  11.377  0.7170 -0.5818  1.6444
 2625TIP3    H229367   4.598   5.423  11.434 -0.3261 -0.1672 -0.9032
 2626TIP3   OH229368   1.313   2.138   5.356  0.5350 -0.2668 -0.3901
 2626TIP3    H129369   1.404   2.112   5.342  0.3791 -1.1574  0.1470
 2626TIP3    H229370   1.305   2.148   5.451  0.9414  3.2502 -0.6124
 2627TIP3   OH229371   6.465   1.472  13.583  0.5811  0.3712 -0.2058
 2627TIP3    H129372   6.528   1.480  13.655 -0.0031 -2.6919  0.7818
 2627TIP3    H229373   6.397   1.536  13.605 -0.1705 -1.2254  2.7077
 2628TIP3   OH229374   6.828   2.877   5.132  0.1718  0.3507 -0.1576
 2628TIP3    H129375   6.840   2.962   5.174  2.8984 -0.3759  0.7800
 2628TIP3    H229376   6.881   2.817   5.184  2.2246 -1.0168 -3.4681
 2629TIP3   OH229377   3.408   4.256   2.826  0.7014 -0.0667 -0.0329
 2629TIP3    H129378   3.360   4.179   2.855  2.3560 -0.8106  0.9136
 2629TIP3    H229379   3.341   4.316   2.794 -0.6299 -1.9375 -0.9600
 2630TIP3   OH229380   0.276   1.384   1.251  0.1615  0.2592  0.0836
 2630TIP3    H129381   0.309   1.447   1.186 -1.1336  0.6940 -0.1988
 2630TIP3    H229382   0.351   1.366   1.308  0.4120  2.6025  0.5920
 2631TIP3   OH229383   6.168   1.065   0.227 -0.3972  0.4352  0.1213
 2631TIP3    H129384   6.190   1.028   0.141  0.4498  0.2379  0.4116
 2631TIP3    H229385   6.250   1.061   0.276 -1.1391 -0.5380  1.3377
 2632TIP3   OH229386   6.327   1.978  11.390  0.2300 -0.7523  0.2576
 2632TIP3    H129387   6.330   1.882  11.382 -1.5378 -0.9631  1.5630
 2632TIP3    H229388   6.262   2.006  11.325 -1.7777 -0.8305  2.1351
 2633TIP3   OH229389   5.053   6.836  16.518  0.0512  0.2452 -0.1722
 2633TIP3    H129390   5.077   6.799  16.603  0.4589  1.6520  0.3486
 2633TIP3    H229391   4.957   6.843  16.522 -0.0203 -0.5208 -0.2055
 2634TIP3   OH229392   1.919   2.980  14.597  0.6989 -0.5919 -0.1441
 2634TIP3    H129393   1.881   3.053  14.547  0.4593 -1.4716 -1.2809
 2634TIP3    H229394   1.972   3.023  14.664 -1.5031  0.6722  0.9049
 2635TIP3   OH229395   0.544   3.229  12.277  0.1296 -0.3698  0.6677
 2635TIP3    H129396   0.600   3.274  12.214  0.2860  0.2624  1.2433
 2635TIP3    H229397   0.590   3.146  12.295  0.8709  0.1252  1.1067
 2636TIP3   OH229398   1.577   1.896   1.800  0.0798  0.4722  0.4136
 2636TIP3    H129399   1.523   1.839   1.855 -2.9903 -0.0927 -2.8575
 2636TIP3    H229400   1.630   1.835   1.749 -1.5208  0.5586 -1.4423
 2637TIP3   OH229401   2.024   3.375   1.787  0.0071  0.0107 -0.2327
 2637TIP3    H129402   2.039   3.466   1.812  0.4095 -0.5085  1.5681
 2637TIP3    H229403   1.928   3.367   1.784 -0.0422  0.3319  0.2659
 2638TIP3   OH229404   2.101   3.078   5.042 -0.2371 -0.0932  0.2054
 2638TIP3    H129405   2.060   3.163   5.054 -1.4314 -0.5279 -0.5662
 2638TIP3    H229406   2.193   3.097   5.022 -0.9143  1.1570 -2.0728
 2639TIP3   OH229407   6.588   5.550  16.548 -0.2983  0.0371  0.2652
 2639TIP3    H129408   6.621   5.465  16.518 -0.4547  0.1174 -0.1386
 2639TIP3    H229409   6.513   5.528  16.604 -1.8048 -0.0244 -1.6853
 2640TIP3   OH229410   5.066   5.584  14.497  0.1626 -0.1389  0.3517
 2640TIP3    H129411   5.074   5.590  14.402 -0.6103 -2.3228  0.0843
 2640TIP3    H229412   4.980   5.622  14.516  0.0870 -0.1776  0.0939
 2641TIP3   OH229413   3.344   2.887  15.035 -0.0780 -0.1505  0.0465
 2641TIP3    H129414   3.259   2.928  15.052 -0.7069 -0.7324 -1.5097
 2641TIP3    H229415   3.371   2.851  15.120 -1.3676  0.0894  0.5798
 2642TIP3   OH229416   1.575   3.681   3.139 -0.2791 -0.0190 -0.2052
 2642TIP3    H129417   1.572   3.626   3.061 -3.7174 -0.4957  0.1190
 2642TIP3    H229418   1.601   3.767   3.106  3.2280 -1.1944 -0.9989
 2643TIP3   OH229419   5.980   6.347  13.347 -0.5920  0.2281 -0.1544
 2643TIP3    H129420   5.964   6.364  13.440 -0.7827 -0.3480 -0.0775
 2643TIP3    H229421   6.035   6.420  13.318 -0.3499  0.2960  0.4662
 2644TIP3   OH229422   3.017   5.932  15.250  0.7006  0.2944 -0.0011
 2644TIP3    H129423   3.102   5.906  15.285  1.1175  0.2277 -1.0351
 2644TIP3    H229424   2.954   5.882  15.303  1.3983 -1.3902 -0.6752
 2645TIP3   OH229425   5.343   2.052   4.411 -1.0020  0.5068  0.2132
 2645TIP3    H129426   5.268   2.020   4.461 -0.6862  0.6267  0.7760
 2645TIP3    H229427   5.385   2.116   4.468  0.4383 -0.6975  0.6025
 2646TIP3   OH229428   0.722   5.506   5.317 -0.1666  0.1172  0.4878
 2646TIP3    H129429   0.812   5.479   5.335  0.1925 -0.0074 -1.3550
 2646TIP3    H229430   0.671   5.426   5.324  0.0273 -0.0073  0.4871
 2647TIP3   OH229431   0.214   0.018   2.067 -0.2737 -0.2390 -0.1125
 2647TIP3    H129432   0.288  -0.011   2.120  0.3174  0.4767 -0.5275
 2647TIP3    H229433   0.195  -0.057   2.010  0.3342 -0.3165 -0.2178
 2648TIP3   OH229434   1.038   0.954   3.196 -0.6693 -0.1541  0.7293
 2648TIP3    H129435   1.010   1.041   3.166 -0.5298 -0.1762  0.5294
 2648TIP3    H229436   1.118   0.971   3.246  1.0689 -0.4216 -1.7405
 2649TIP3   OH229437   0.422   2.746  16.822 -0.1734  0.1842 -0.5647
 2649TIP3    H129438   0.428   2.664  16.772  3.2689  0.3948 -0.7604
 2649TIP3    H229439   0.371   2.804  16.767 -0.2841 -0.9862 -1.7503
 2650TIP3   OH229440   2.186   4.244   0.600 -0.1745 -0.2838  0.4855
 2650TIP3    H129441   2.120   4.246   0.531  1.2845  1.5142 -0.9896
 2650TIP3    H229442   2.265   4.212   0.556  0.5289 -0.0909  1.5794
 2651TIP3   OH229443   3.024   2.180   5.075 -0.3432  0.1523 -0.1707
 2651TIP3    H129444   3.111   2.183   5.115 -0.4199  1.6865 -0.0742
 2651TIP3    H229445   2.965   2.208   5.144 -1.2439 -2.8741  0.4391
 2652TIP3   OH229446   4.090   3.209   3.189 -0.3038  0.1046 -0.1611
 2652TIP3    H129447   4.091   3.148   3.116 -1.8854  0.8802 -0.8955
 2652TIP3    H229448   3.997   3.220   3.209 -0.2538  3.3534 -1.0457
 2653TIP3   OH229449   1.699   5.661  10.641  0.1327  0.4986 -0.1228
 2653TIP3    H129450   1.639   5.659  10.715  0.6758 -2.1909  0.3389
 2653TIP3    H229451   1.782   5.630  10.676  0.0116 -2.4014 -2.0551
 2654TIP3   OH229452   6.152   0.041  12.275 -0.1702 -0.0533 -0.6087
 2654TIP3    H129453   6.124   0.066  12.187  1.4992  0.4495 -1.0386
 2654TIP3    H229454   6.090   0.085  12.333  0.0544  1.5070 -1.4935
 2655TIP3   OH229455   3.500   3.931   4.825  0.1948 -0.2742 -0.1436
 2655TIP3    H129456   3.447   3.972   4.893  0.6130 -1.9611  1.2855
 2655TIP3    H229457   3.579   3.902   4.871  0.6790 -1.1010 -1.4455
 2656TIP3   OH229458   0.294   3.877  12.643 -0.1000 -0.5909  0.3506
 2656TIP3    H129459   0.297   3.822  12.564  1.9979 -0.2916  0.1739
 2656TIP3    H229460   0.291   3.966  12.609  0.4806 -0.4715  0.6083
 2657TIP3   OH229461   1.605   0.996  10.066 -0.3779  0.3829 -0.4022
 2657TIP3    H129462   1.684   1.038  10.101  1.0883 -1.2590 -1.5217
 2657TIP3    H229463   1.623   0.902  10.074 -3.4021 -0.1505  1.8050
 2658TIP3   OH229464   1.339   3.452   5.333  0.0039 -0.1651  0.1626
 2658TIP3    H129465   1.254   3.411   5.352 -0.8492  1.6842  0.6107
 2658TIP3    H229466   1.324   3.499   5.251 -0.1112  1.8987  1.2985
 2659TIP3   OH229467   2.080   6.522   1.405 -0.0190 -0.4693  0.4864
 2659TIP3    H129468   2.142   6.495   1.337 -1.2452 -1.3626 -0.3327
 2659TIP3    H229469   2.027   6.590   1.363 -1.4359 -1.7286  0.1770
 2660TIP3   OH229470   0.011   1.738  15.526 -0.4364  0.0081 -0.0652
 2660TIP3    H129471  -0.047   1.666  15.501 -1.4890  0.3227  1.3123
 2660TIP3    H229472   0.062   1.704  15.600 -1.5849  0.8854  1.2015
 2661TIP3   OH229473   5.492   1.285  15.898  0.2641 -0.1352 -0.3495
 2661TIP3    H129474   5.458   1.203  15.934 -0.7492 -0.1038 -1.2086
 2661TIP3    H229475   5.570   1.303  15.951  0.0941 -1.2674  0.3275
 2662TIP3   OH229476   6.238   3.123  16.802  0.1831 -0.1514  0.5153
 2662TIP3    H129477   6.153   3.165  16.813  0.2505 -0.0426  0.6305
 2662TIP3    H229478   6.249   3.070  16.880  0.7627  0.7951  1.1007
 2663TIP3   OH229479   3.986   3.383   5.639  0.5828 -0.3122 -0.0677
 2663TIP3    H129480   3.928   3.336   5.579  0.0810 -0.6144  0.6418
 2663TIP3    H229481   4.005   3.465   5.594 -0.8920  0.0658 -0.0691
 2664TIP3   OH229482   0.785   5.714  15.010 -0.4067 -0.4837 -0.1086
 2664TIP3    H129483   0.784   5.765  15.092  2.3051 -0.8000  0.1871
 2664TIP3    H229484   0.778   5.779  14.941 -0.1672  0.0191  0.3351
 2665TIP3   OH229485   1.904   4.252  15.105  0.0013  0.5238 -0.3759
 2665TIP3    H129486   1.891   4.193  15.030 -0.6761  1.8263 -1.3197
 2665TIP3    H229487   1.953   4.325  15.068  1.4279  0.2752  0.9312
 2666TIP3   OH229488   4.427   4.629   0.713  0.1794 -0.0120  0.5285
 2666TIP3    H129489   4.512   4.668   0.691  0.7589 -1.6142 -0.2393
 2666TIP3    H229490   4.425   4.546   0.665  0.4277 -2.5719  4.4419
 2667TIP3   OH229491   1.856   2.346  14.671 -0.2027  0.4627 -0.4035
 2667TIP3    H129492   1.809   2.346  14.589 -0.0497 -0.1215 -0.5013
 2667TIP3    H229493   1.937   2.297  14.652 -1.1750 -1.6735  0.6335
 2668TIP3   OH229494   0.547   1.250  15.561 -0.1966  0.1620 -0.8209
 2668TIP3    H129495   0.577   1.339  15.580 -0.6572 -0.0543  1.0664
 2668TIP3    H229496   0.627   1.203  15.538  0.3923  0.5494  0.3391
 2669TIP3   OH229497   0.264   0.535   2.285 -0.0380  0.1213  0.4039
 2669TIP3    H129498   0.237   0.453   2.243 -0.6038  0.8052 -0.5876
 2669TIP3    H229499   0.185   0.564   2.331 -0.4447  1.1060 -0.8687
 2670TIP3   OH229500   1.153   0.861   5.590  0.8146  0.0937  0.1390
 2670TIP3    H129501   1.127   0.914   5.666  0.0651  1.5020 -1.0430
 2670TIP3    H229502   1.113   0.776   5.606 -0.5884  0.8016  0.6520
 2671TIP3   OH229503   1.761   5.032  13.320  0.2838  0.1777 -0.1597
 2671TIP3    H129504   1.724   4.962  13.266 -0.0034 -1.0658  1.5583
 2671TIP3    H229505   1.695   5.102  13.316  0.1880  0.0495 -1.2349
 2672TIP3   OH229506   1.890   2.249  11.603 -0.6426 -1.4025  0.0799
 2672TIP3    H129507   1.965   2.253  11.544 -2.5777  2.9609 -2.5491
 2672TIP3    H229508   1.925   2.278  11.688  1.0163 -1.7306 -0.4597
 2673TIP3   OH229509   6.551   2.584  12.847  0.4565 -0.0989  0.2180
 2673TIP3    H129510   6.625   2.618  12.897 -0.2276  1.2651  0.3510
 2673TIP3    H229511   6.474   2.626  12.886 -0.5122 -2.1793  0.6947
 2674TIP3   OH229512   5.717   2.118   4.257 -0.5612 -0.2939  0.1315
 2674TIP3    H129513   5.700   2.041   4.203 -0.1235 -0.3452  0.0658
 2674TIP3    H229514   5.809   2.139   4.242  0.1476 -1.4970  2.3435
 2675TIP3   OH229515   0.631   6.008  13.404 -0.4121 -0.5185  0.3774
 2675TIP3    H129516   0.724   6.022  13.420 -0.0796 -0.2601 -1.5768
 2675TIP3    H229517   0.602   6.085  13.356 -1.8601 -0.2061  1.6780
 2676TIP3   OH229518   2.114   3.656  12.645 -0.3232  0.3580  0.1137
 2676TIP3    H129519   2.050   3.727  12.645 -1.2317 -0.4159 -0.4829
 2676TIP3    H229520   2.144   3.651  12.554  1.4144  1.4116  0.6124
 2677TIP3   OH229521   6.464   6.840   1.768 -0.1368  0.1860 -0.0355
 2677TIP3    H129522   6.537   6.901   1.780  1.0666 -1.3309  0.7458
 2677TIP3    H229523   6.473   6.777   1.840 -1.7428 -0.5265 -0.4050
 2678TIP3   OH229524   6.744   3.347   3.822  0.0165  0.2964  0.2365
 2678TIP3    H129525   6.683   3.333   3.750 -0.3884 -2.1428  0.9445
 2678TIP3    H229526   6.688   3.368   3.897  0.0983 -0.8633  0.6408
 2679TIP3   OH229527   4.174   4.101  16.422  0.0842 -0.6388 -0.4481
 2679TIP3    H129528   4.254   4.150  16.443 -0.6244  0.3652 -0.0413
 2679TIP3    H229529   4.138   4.144  16.345 -1.9001  1.1899  1.3732
 2680TIP3   OH229530   1.360   2.489  14.192  0.0838  0.4103  0.5607
 2680TIP3    H129531   1.403   2.523  14.115 -0.5387  2.3425  1.0136
 2680TIP3    H229532   1.274   2.460  14.161 -0.3490  1.6179  0.5646
 2681TIP3   OH229533   3.276   5.802  11.303 -0.2744  0.1614  0.3602
 2681TIP3    H129534   3.284   5.706  11.297  0.3644  0.2867 -0.9681
 2681TIP3    H229535   3.366   5.833  11.308 -0.4922  0.6921  1.2246
 2682TIP3   OH229536   5.135   4.418   5.612 -0.1912 -0.1260  0.3014
 2682TIP3    H129537   5.190   4.384   5.682 -2.0274  0.8520  2.3290
 2682TIP3    H229538   5.193   4.478   5.563  1.4153 -1.6463  0.2358
 2683TIP3   OH229539   0.616   6.263   0.494  0.0216 -1.1059  0.2354
 2683TIP3    H129540   0.536   6.282   0.445  0.3999  0.5884  0.1951
 2683TIP3    H229541   0.614   6.324   0.568  1.5701 -0.5366 -0.1357
 2684TIP3   OH229542   6.143   4.094  14.506 -0.1987  0.0763 -0.1528
 2684TIP3    H129543   6.120   4.177  14.547 -0.5567 -0.6977  1.2954
 2684TIP3    H229544   6.209   4.056  14.564  0.7436 -0.1929 -1.3588
 2685TIP3   OH229545   1.271   3.197   5.159  0.0308 -0.0881 -0.2318
 2685TIP3    H129546   1.238   3.120   5.206 -2.2243  1.6281  1.1860
 2685TIP3    H229547   1.215   3.202   5.081  0.7438 -0.3084 -0.7767
 2686TIP3   OH229548   3.029   3.541   0.873  0.6537 -1.0901 -0.1284
 2686TIP3    H129549   3.112   3.541   0.825  1.3980  1.4901  0.9301
 2686TIP3    H229550   3.042   3.606   0.942 -2.1220 -0.9220  0.3609
 2687TIP3   OH229551   1.107   1.713  14.789  0.8024  0.1350 -0.3201
 2687TIP3    H129552   1.051   1.726  14.712 -0.3575 -0.8039  0.3260
 2687TIP3    H229553   1.123   1.618  14.791  1.3866  0.2383  0.2115
 2688TIP3   OH229554   4.881   4.053  13.500 -0.0001 -0.3521 -0.0711
 2688TIP3    H129555   4.792   4.069  13.466  0.3843 -0.4748 -1.1727
 2688TIP3    H229556   4.866   4.006  13.582 -0.9674 -0.0457 -0.0496
 2689TIP3   OH229557   3.698   5.188   1.893 -0.5163  1.0593  0.1137
 2689TIP3    H129558   3.656   5.175   1.978  0.0964  1.4202  0.4757
 2689TIP3    H229559   3.625   5.202   1.833 -1.0183 -0.2945  0.3636
 2690TIP3   OH229560   2.986   5.427  12.678 -0.3943  0.4826 -0.0397
 2690TIP3    H129561   3.007   5.512  12.717  0.7958  1.0080 -1.6927
 2690TIP3    H229562   2.926   5.386  12.740 -0.8003  2.4173  0.9241
 2691TIP3   OH229563   5.955   2.288  14.261  0.2517  0.0072  0.7423
 2691TIP3    H129564   5.964   2.318  14.170  0.6018  0.5906  0.9640
 2691TIP3    H229565   6.011   2.211  14.267 -0.3994 -0.5202  0.2536
 2692TIP3   OH229566   1.114   4.352  13.655  0.5190  0.1462 -0.1711
 2692TIP3    H129567   1.155   4.266  13.670  0.9140  0.5228  1.0212
 2692TIP3    H229568   1.187   4.411  13.637  0.3010  0.3709 -0.3328
 2693TIP3   OH229569   5.458   3.660  16.810  0.0812 -0.0843  0.0823
 2693TIP3    H129570   5.425   3.598  16.875  1.4661 -1.1545 -0.1700
 2693TIP3    H229571   5.537   3.697  16.849  0.5529 -0.2277 -0.7020
 2694TIP3   OH229572   5.279   2.534   3.588  0.5189  0.2791  0.3765
 2694TIP3    H129573   5.264   2.585   3.509  0.0372  0.9791  0.9058
 2694TIP3    H229574   5.193   2.528   3.629  0.7600 -0.1072  0.8346
 2695TIP3   OH229575   3.971   1.911  15.705 -0.1623 -0.2838  1.0403
 2695TIP3    H129576   3.906   1.953  15.648 -0.2041  0.6688  1.7672
 2695TIP3    H229577   3.975   1.821  15.674 -0.8132 -0.0026  0.0842
 2696TIP3   OH229578   1.195   5.415   2.318 -0.2132  0.4614  0.2654
 2696TIP3    H129579   1.115   5.362   2.319  0.5932 -0.9407 -2.1415
 2696TIP3    H229580   1.196   5.455   2.231  1.8050  0.2175  0.1262
 2697TIP3   OH229581   1.292   6.088  15.379  0.2776 -0.5842 -0.1138
 2697TIP3    H129582   1.373   6.041  15.399 -0.7883 -2.3922  0.2595
 2697TIP3    H229583   1.302   6.173  15.422  1.9926 -0.7296 -0.1575
 2698TIP3   OH229584   2.378   2.481  17.046  0.3789 -0.2041  0.0003
 2698TIP3    H129585   2.334   2.417  17.101  1.1019 -0.4193  0.3416
 2698TIP3    H229586   2.307   2.527  17.001 -0.1639 -1.0104  0.0061
 2699TIP3   OH229587   5.230   5.683   2.068 -0.4204 -0.1200  0.3661
 2699TIP3    H129588   5.182   5.748   2.120 -3.2259 -1.4286 -0.3971
 2699TIP3    H229589   5.169   5.610   2.058  1.2013 -1.2842 -2.0175
 2700TIP3   OH229590   2.182   3.854   4.672 -0.0263  0.1890 -0.1119
 2700TIP3    H129591   2.223   3.769   4.657  0.6714  0.4876  0.0709
 2700TIP3    H229592   2.253   3.910   4.703 -1.0864 -0.0717  3.1609
 2701TIP3   OH229593   6.220   5.749  16.043 -0.1896 -0.4157  0.3937
 2701TIP3    H129594   6.290   5.693  16.010 -0.1295 -0.0852 -0.0456
 2701TIP3    H229595   6.243   5.837  16.014 -1.5388 -0.4850 -1.0706
 2702TIP3   OH229596   6.504   1.854  14.647  0.1539 -0.1079 -0.0191
 2702TIP3    H129597   6.566   1.897  14.705  0.7636  1.1634 -1.5356
 2702TIP3    H229598   6.420   1.897  14.664  0.0227 -0.6708  0.8350
 2703TIP3   OH229599   0.421   4.795  15.294  0.8736  0.1401 -0.1778
 2703TIP3    H129600   0.417   4.883  15.256 -0.5673  1.7368  3.1982
 2703TIP3    H229601   0.492   4.801  15.359 -0.8522 -0.3077  1.8433
 2704TIP3   OH229602   2.751   3.896  12.368  0.2531  0.1640 -0.2712
 2704TIP3    H129603   2.766   3.801  12.367  3.1021  0.5304  0.7913
 2704TIP3    H229604   2.773   3.925  12.279  0.6578 -0.0105 -0.2293
 2705TIP3   OH229605   2.692   6.773  16.310  0.3608  0.5163  0.0979
 2705TIP3    H129606   2.770   6.807  16.268  1.8692  0.0407  2.3365
 2705TIP3    H229607   2.661   6.845  16.365  2.6547 -0.9222  3.6275
 2706TIP3   OH229608   2.512   5.068  14.529  0.1950  0.4244 -0.4933
 2706TIP3    H129609   2.581   5.026  14.477  0.0639  0.9439 -1.0912
 2706TIP3    H229610   2.551   5.150  14.559  0.0543  0.4195 -0.2947
 2707TIP3   OH229611   6.162   0.710   1.106 -0.3572 -0.0923  0.4034
 2707TIP3    H129612   6.115   0.638   1.064  3.6608 -2.5664 -0.3913
 2707TIP3    H229613   6.176   0.774   1.035 -1.5190  0.1662  0.3933
 2708TIP3   OH229614   1.037   4.593   0.717 -0.1244  0.1307 -0.5423
 2708TIP3    H129615   1.094   4.554   0.783  0.2169 -1.6007 -1.8012
 2708TIP3    H229616   0.950   4.593   0.757 -0.0942 -1.7656 -0.4149
 2709TIP3   OH229617   2.775   0.951   4.198 -0.0615  0.0159 -0.6111
 2709TIP3    H129618   2.789   0.862   4.231 -0.5984  0.0391 -0.3175
 2709TIP3    H229619   2.732   0.939   4.113  0.9559 -0.0311 -1.1428
 2710TIP3   OH229620   5.046   3.403   4.374  0.1394 -0.3363  0.2902
 2710TIP3    H129621   5.119   3.454   4.340  0.1846  0.2884  1.2615
 2710TIP3    H229622   5.064   3.397   4.468 -0.3593 -1.3467  0.3313
 2711TIP3   OH229623   4.381   3.277  10.599 -0.3260 -0.0075  0.4502
 2711TIP3    H129624   4.342   3.344  10.543 -2.7715 -1.4216  0.3234
 2711TIP3    H229625   4.417   3.213  10.538  0.6385  0.4199  0.5588
 2712TIP3   OH229626   2.514   6.117  15.935  0.1152  0.2968  0.2463
 2712TIP3    H129627   2.462   6.106  16.015 -1.4454 -0.4980 -0.8166
 2712TIP3    H229628   2.587   6.056  15.946  0.1645  0.5163  1.2429
 2713TIP3   OH229629   4.616   2.488  16.633  0.0656  0.6033  0.2829
 2713TIP3    H129630   4.702   2.475  16.674 -0.0106 -0.8938  0.0096
 2713TIP3    H229631   4.622   2.574  16.591  1.3791  0.5814  0.3927
 2714TIP3   OH229632   6.140   1.543   2.293 -0.2016 -0.4942 -0.0626
 2714TIP3    H129633   6.182   1.603   2.354 -0.0307 -1.0088  0.3308
 2714TIP3    H229634   6.178   1.564   2.208  1.8721 -1.8070  0.4520
 2715TIP3   OH229635   6.367   2.646   3.991 -0.4494 -0.3100 -0.4911
 2715TIP3    H129636   6.437   2.710   3.995  0.8879 -1.6563 -1.2552
 2715TIP3    H229637   6.333   2.642   4.081  1.0029 -0.1970  0.0938
 2716TIP3   OH229638   4.057   4.725   2.154  0.0194 -0.0918  0.6518
 2716TIP3    H129639   4.056   4.723   2.250  0.0745 -0.0698  0.6526
 2716TIP3    H229640   4.144   4.757   2.131  0.1570 -0.4978  0.5878
 2717TIP3   OH229641   1.801   2.060   4.850  0.3536  0.2882  0.0969
 2717TIP3    H129642   1.842   1.974   4.839 -0.9737 -0.2443 -0.9544
 2717TIP3    H229643   1.750   2.051   4.931  0.1661  0.0619 -0.0457
 2718TIP3   OH229644   0.900   2.815  14.659 -0.0080  0.0483  0.5065
 2718TIP3    H129645   0.859   2.808  14.746 -0.2261 -1.4133  0.3030
 2718TIP3    H229646   0.971   2.752  14.661 -0.4518 -0.5085 -0.6070
 2719TIP3   OH229647   3.715   2.149   5.123  0.4757 -0.1324  0.3695
 2719TIP3    H129648   3.636   2.182   5.164  0.4635 -0.8185  0.9141
 2719TIP3    H229649   3.740   2.217   5.061 -0.7841 -0.1047 -0.1335
 2720TIP3   OH229650   3.024   5.170  11.327  0.2822 -0.7519 -0.3201
 2720TIP3    H129651   2.957   5.232  11.354 -0.6296 -2.3593  1.3538
 2720TIP3    H229652   2.996   5.140  11.240  0.6388  0.9534 -1.0719
 2721TIP3   OH229653   2.561   4.468   2.836 -0.9856 -0.1348 -0.3672
 2721TIP3    H129654   2.650   4.480   2.870 -1.3134 -0.6612  0.7282
 2721TIP3    H229655   2.568   4.392   2.778 -1.2673 -2.1173  2.0464
 2722TIP3   OH229656   5.109   1.241   0.558 -0.1211  0.0144  0.6307
 2722TIP3    H129657   5.194   1.210   0.588 -0.1891  0.3483  1.1816
 2722TIP3    H229658   5.057   1.161   0.546  0.6150 -0.2642 -0.8130
 2723TIP3   OH229659   5.124   0.668   4.240 -0.2315  0.3282 -0.6991
 2723TIP3    H129660   5.097   0.641   4.328  0.0145  2.5657  0.1374
 2723TIP3    H229661   5.060   0.735   4.215  1.2085  1.6300 -1.0766
 2724TIP3   OH229662   2.441   5.864  11.756 -0.3481 -0.2999  0.4274
 2724TIP3    H129663   2.409   5.891  11.669  2.5139 -2.0917 -1.3281
 2724TIP3    H229664   2.380   5.795  11.783  0.0801 -1.4658 -1.3683
 2725TIP3   OH229665   5.350   6.614  15.597  0.4369  0.0345  0.1585
 2725TIP3    H129666   5.437   6.618  15.557  0.6714  2.4785  0.7543
 2725TIP3    H229667   5.299   6.679  15.549 -0.7354 -0.5138  0.6161
 2726TIP3   OH229668   5.496   5.479   2.295  0.3384  0.0381  0.0913
 2726TIP3    H129669   5.582   5.514   2.269  1.2966 -0.0332  2.8139
 2726TIP3    H229670   5.462   5.544   2.357 -0.9596 -0.6076  0.0743
 2727TIP3   OH229671   2.798   0.891   3.200 -0.3759  0.1722  0.2511
 2727TIP3    H129672   2.882   0.873   3.242  0.1709  0.0411 -0.8663
 2727TIP3    H229673   2.736   0.898   3.273  0.3059 -1.2605  1.0035
 2728TIP3   OH229674   6.777   4.067   4.351 -0.3399 -0.3903  0.2802
 2728TIP3    H129675   6.703   4.080   4.411 -0.2922  1.3484  0.0231
 2728TIP3    H229676   6.780   4.147   4.299  1.9265 -0.2479  0.5028
 2729TIP3   OH229677   5.436   1.740  13.292  0.3532  0.2674  0.9599
 2729TIP3    H129678   5.517   1.705  13.327  0.4039  0.3884  0.9646
 2729TIP3    H229679   5.368   1.681  13.323  0.3867  0.4221  1.3304
 2730TIP3   OH229680   4.539   0.280   1.008 -0.4837 -0.9497 -0.2985
 2730TIP3    H129681   4.530   0.262   0.914 -0.4079 -3.0392  0.0478
 2730TIP3    H229682   4.630   0.308   1.018 -0.7461  0.2055 -0.9554
 2731TIP3   OH229683   1.868   1.180  10.477  0.3244 -0.5025  0.3822
 2731TIP3    H129684   1.809   1.149  10.546 -2.1862 -0.3879 -1.5534
 2731TIP3    H229685   1.821   1.254  10.438  0.2191 -2.2710 -3.2303
 2732TIP3   OH229686   4.923   1.734   2.462  0.2890 -0.1636  0.8441
 2732TIP3    H129687   4.986   1.794   2.501  1.7139  0.2343 -1.8343
 2732TIP3    H229688   4.965   1.703   2.382 -2.4293 -0.8575 -0.4492
 2733TIP3   OH229689   5.590   1.250   4.333 -0.7122  0.7550  0.4391
 2733TIP3    H129690   5.572   1.241   4.427 -0.8598  0.9272  0.4281
 2733TIP3    H229691   5.582   1.344   4.316 -0.9261  0.6933  0.2041
 2734TIP3   OH229692   5.516   0.457   1.937 -0.0431 -0.6076  0.5113
 2734TIP3    H129693   5.460   0.383   1.962 -0.5859 -0.0115  1.1071
 2734TIP3    H229694   5.455   0.529   1.922  0.4891 -0.2553  0.0111
 2735TIP3   OH229695   5.056   0.140  10.919  0.4170  0.1262 -0.2059
 2735TIP3    H129696   5.128   0.145  10.857 -0.4712  1.8933 -1.2009
 2735TIP3    H229697   4.994   0.079  10.879 -1.0872  2.7682 -2.2573
 2736TIP3   OH229698   0.145   2.519  16.257  0.0753 -0.2273 -0.0426
 2736TIP3    H129699   0.086   2.450  16.227 -1.2731  1.1720 -0.7538
 2736TIP3    H229700   0.179   2.558  16.177  0.7979 -0.0352  0.3489
 2737TIP3   OH229701   3.605   3.431  13.446 -0.0684  0.0826 -0.4563
 2737TIP3    H129702   3.642   3.415  13.533 -1.3307 -1.4782 -0.1448
 2737TIP3    H229703   3.659   3.500  13.409  1.4288 -0.2487  0.9868
 2738TIP3   OH229704   3.524   0.679   2.225 -0.2453  0.0792 -0.7818
 2738TIP3    H129705   3.514   0.605   2.285  1.8349  1.3801  1.3404
 2738TIP3    H229706   3.597   0.654   2.168  0.2875  0.3508 -0.2327
 2739TIP3   OH229707   0.403   6.748   3.281  0.3090  0.4233 -0.4841
 2739TIP3    H129708   0.453   6.768   3.360 -0.2798 -2.8160  0.8265
 2739TIP3    H229709   0.312   6.745   3.310  0.1376 -1.3466 -1.1237
 2740TIP3   OH229710   2.956   6.203  15.418 -0.1383  0.2430  0.1575
 2740TIP3    H129711   2.930   6.160  15.499 -0.8859 -0.1086 -0.2505
 2740TIP3    H229712   2.948   6.134  15.351  1.4937  0.2357 -0.0608
 2741TIP3   OH229713   4.830   3.223   1.639 -0.4384 -0.2232 -0.3420
 2741TIP3    H129714   4.854   3.233   1.546 -1.0867  0.3969 -0.4523
 2741TIP3    H229715   4.861   3.305   1.679 -0.3876 -0.3827 -0.0562
 2742TIP3   OH229716   3.041   1.324   2.126  0.2606 -0.4271  0.0126
 2742TIP3    H129717   2.951   1.356   2.121 -0.2663 -1.4298  2.1420
 2742TIP3    H229718   3.035   1.232   2.101  0.5814 -0.6637  0.7971
 2743TIP3   OH229719   6.248   4.315   0.085 -0.3531  0.1306  0.1540
 2743TIP3    H129720   6.324   4.268   0.049 -2.0056 -1.4659 -1.4970
 2743TIP3    H229721   6.192   4.330   0.009 -0.2624  4.3316  0.7143
 2744TIP3   OH229722   2.150   2.256  11.447  0.4637 -1.5560  0.3108
 2744TIP3    H129723   2.215   2.234  11.381  0.3828  3.1008 -1.7162
 2744TIP3    H229724   2.200   2.298  11.518 -0.0244  1.7457 -1.1110
 2745TIP3   OH229725   2.986   3.030   4.900 -0.3518  0.0790  0.9229
 2745TIP3    H129726   2.915   3.071   4.949 -0.0825  1.2779  0.3368
 2745TIP3    H229727   2.945   2.954   4.858 -0.9580 -0.0325  1.6805
 2746TIP3   OH229728   3.156   1.958  13.257  0.2216 -0.3731  0.0015
 2746TIP3    H129729   3.130   2.049  13.272  1.8203 -0.1058  1.2969
 2746TIP3    H229730   3.124   1.910  13.333 -1.0797 -1.0432 -0.9161
 2747TIP3   OH229731   6.047   5.914   3.037  0.8207  0.0204  0.1906
 2747TIP3    H129732   6.059   5.944   3.127 -1.5855  1.6949  0.0259
 2747TIP3    H229733   6.136   5.907   3.003  1.7501  0.5001  2.3187
 2748TIP3   OH229734   6.849   5.533   3.144  0.1521 -0.0777  0.3089
 2748TIP3    H129735   6.791   5.602   3.177 -0.6648  0.5397 -2.2162
 2748TIP3    H229736   6.925   5.536   3.202 -1.0890  0.9789  2.0079
 2749TIP3   OH229737   2.558   2.764   3.538  0.2315  0.3283  0.0653
 2749TIP3    H129738   2.502   2.792   3.466 -1.2215  0.8171  1.3347
 2749TIP3    H229739   2.513   2.795   3.617  2.2949  0.7287  1.1504
 2750TIP3   OH229740   4.542   0.718   1.604 -0.2486 -0.2147  0.4728
 2750TIP3    H129741   4.520   0.702   1.512 -0.4969 -0.2630  0.5396
 2750TIP3    H229742   4.581   0.805   1.604  0.2358 -0.4253  0.2455
 2751TIP3   OH229743   1.165   3.223  13.034  0.1071 -0.4900 -0.9542
 2751TIP3    H129744   1.114   3.142  13.043  0.2640 -0.5900 -0.9627
 2751TIP3    H229745   1.100   3.293  13.041 -0.0421 -0.6191 -1.0363
 2752TIP3   OH229746   1.971   3.189  14.285  0.6597  0.4229  0.0552
 2752TIP3    H129747   2.000   3.105  14.319 -0.6289  0.3411  1.0395
 2752TIP3    H229748   2.051   3.243  14.283  1.1013 -0.1369  1.5337
 2753TIP3   OH229749   5.349   2.928  11.645 -0.1984  0.4576 -0.0163
 2753TIP3    H129750   5.404   2.887  11.579 -0.4325  0.0567  0.0362
 2753TIP3    H229751   5.389   3.014  11.660 -0.3758  0.7139 -0.9729
 2754TIP3   OH229752   3.707   6.246  16.743 -0.7090 -0.0840 -0.2448
 2754TIP3    H129753   3.755   6.164  16.730  0.1603  0.2717  0.6332
 2754TIP3    H229754   3.617   6.224  16.719 -0.6099 -1.4460  0.4925
 2755TIP3   OH229755   3.230   0.916  16.922  0.4282 -0.0430  0.3021
 2755TIP3    H129756   3.290   0.856  16.966  0.7562 -0.2567 -0.4104
 2755TIP3    H229757   3.260   0.916  16.831 -0.3505  0.2325  0.0410
 2756TIP3   OH229758   1.577   1.493   5.774 -0.1183  0.6355 -0.5581
 2756TIP3    H129759   1.484   1.478   5.793  0.3278 -1.4722  0.2151
 2756TIP3    H229760   1.593   1.447   5.692  0.5856 -0.4748  0.1774
 2757TIP3   OH229761   1.012   5.949   5.044 -0.3741 -0.1281  0.5198
 2757TIP3    H129762   0.935   5.983   5.090  1.1080 -1.7866  4.7144
 2757TIP3    H229763   1.081   6.012   5.062 -0.0884  0.0675 -1.0776
 2758TIP3   OH229764   0.834   5.012  11.130  0.9516 -0.2687 -0.2315
 2758TIP3    H129765   0.923   5.018  11.094  0.8791  2.8283 -0.1927
 2758TIP3    H229766   0.779   5.056  11.065 -0.3604 -0.9442  0.3841
 2759TIP3   OH229767   5.657   5.289   0.427  0.1150  0.1272 -0.0845
 2759TIP3    H129768   5.677   5.199   0.453  3.5818  1.8474  4.4502
 2759TIP3    H229769   5.719   5.308   0.356 -0.8778 -1.0405 -1.3131
 2760TIP3   OH229770   0.545   4.345   4.558 -0.1282 -1.0284 -0.4965
 2760TIP3    H129771   0.584   4.277   4.502 -0.2938 -1.1108 -0.5135
 2760TIP3    H229772   0.488   4.296   4.618  0.3688 -0.9773  0.0207
 2761TIP3   OH229773   4.190   6.744   2.334 -0.1565  0.2885  0.1745
 2761TIP3    H129774   4.179   6.661   2.380  1.6671 -1.0208 -1.6161
 2761TIP3    H229775   4.276   6.775   2.361 -0.2878  0.9728 -0.1750
 2762TIP3   OH229776   1.655   1.680   0.850 -0.4330 -0.4296  0.4072
 2762TIP3    H129777   1.605   1.612   0.805 -1.1511  0.2891  0.0897
 2762TIP3    H229778   1.638   1.664   0.943 -0.1309 -1.0260  0.3637
 2763TIP3   OH229779   5.884   0.305   0.071  0.6229 -0.3478  0.0193
 2763TIP3    H129780   5.897   0.356   0.151  2.8760 -0.5009 -0.1922
 2763TIP3    H229781   5.806   0.253   0.089  1.8178 -1.4122  2.6942
 2764TIP3   OH229782   2.183   3.263   4.315  0.1748  0.4843 -0.0016
 2764TIP3    H129783   2.100   3.306   4.299  0.6645  1.6398  0.4648
 2764TIP3    H229784   2.203   3.218   4.232 -0.6822  0.5723 -0.2633
 2765TIP3   OH229785   2.353   0.393  15.319  0.4688  0.0924  0.0360
 2765TIP3    H129786   2.377   0.337  15.244 -0.0156 -0.7022  0.4573
 2765TIP3    H229787   2.354   0.482  15.284  3.8849  0.1714 -0.0534
 2766TIP3   OH229788   4.666   6.726  13.069 -0.0834 -0.1732 -0.1992
 2766TIP3    H129789   4.617   6.792  13.117  0.8498  0.6166 -0.2951
 2766TIP3    H229790   4.718   6.681  13.136 -0.6766 -0.7935 -0.1414
 2767TIP3   OH229791   3.748   2.995   3.879  0.1163  0.0400 -0.0193
 2767TIP3    H129792   3.656   2.984   3.902  0.7432 -2.0563  1.8695
 2767TIP3    H229793   3.781   3.058   3.943  0.5673 -1.3327  1.1414
 2768TIP3   OH229794   4.468   0.010  15.885  0.1277 -0.1503  0.1311
 2768TIP3    H129795   4.378   0.043  15.879  1.1538  2.9215 -0.1715
 2768TIP3    H229796   4.476  -0.023  15.974 -2.0522 -3.2900 -0.6513
 2769TIP3   OH229797   0.136   5.749   5.424  0.8352 -0.4285 -0.5786
 2769TIP3    H129798   0.135   5.791   5.338 -0.9186  0.2868 -0.2517
 2769TIP3    H229799   0.142   5.821   5.486 -1.2463 -0.6419 -0.0377
 2770TIP3   OH229800   5.956   4.308   3.982 -0.2391  0.4010  0.7104
 2770TIP3    H129801   5.978   4.350   4.065 -0.5005  1.3150  0.3297
 2770TIP3    H229802   6.037   4.266   3.954 -0.1721  0.0151  1.4670
 2771TIP3   OH229803   0.235   3.234  16.176 -0.0341  0.2331 -0.4649
 2771TIP3    H129804   0.207   3.143  16.164 -1.1407  0.7098 -1.7564
 2771TIP3    H229805   0.155   3.281  16.201  0.8629  0.5728  2.0501
 2772TIP3   OH229806   3.707   6.633  11.452  0.1875 -0.1888 -0.3113
 2772TIP3    H129807   3.676   6.723  11.447  0.6020  0.0405  0.8402
 2772TIP3    H229808   3.802   6.640  11.441  0.1907 -0.5193 -0.5111
 2773TIP3   OH229809   5.298   0.002  12.810  0.2935 -0.0836 -0.2473
 2773TIP3    H129810   5.211   0.043  12.808  0.1185 -0.4627 -0.9295
 2773TIP3    H229811   5.347   0.047  12.741  0.4296 -0.3049 -0.2954
 2774TIP3   OH229812   4.567   1.774  16.086 -0.3409  0.0366  0.2785
 2774TIP3    H129813   4.516   1.714  16.140 -1.1336  0.5804  0.1594
 2774TIP3    H229814   4.567   1.856  16.136  1.4418 -0.2639  0.8489
 2775TIP3   OH229815   0.853   0.105   3.498 -0.0704 -0.2750 -0.4322
 2775TIP3    H129816   0.769   0.073   3.463  0.2284 -0.5498 -0.9193
 2775TIP3    H229817   0.903   0.025   3.517  0.7041 -0.1194 -1.7023
 2776TIP3   OH229818   2.223   3.919   5.868  0.2003 -0.1800 -0.4101
 2776TIP3    H129819   2.264   3.952   5.948 -1.0809  1.2298 -0.2857
 2776TIP3    H229820   2.168   3.847   5.897  2.0850 -1.7612 -0.5103
 2777TIP3   OH229821   0.517   1.623   3.112  0.3210 -0.3419  0.1059
 2777TIP3    H129822   0.539   1.535   3.081  1.1335  0.5123 -1.9532
 2777TIP3    H229823   0.458   1.658   3.046 -0.6527  0.3847  1.3278
 2778TIP3   OH229824   4.964   2.456   2.752  0.5385 -0.2622 -0.2777
 2778TIP3    H129825   5.008   2.489   2.674  2.0720 -0.9843  0.2384
 2778TIP3    H229826   5.020   2.482   2.825  0.6301 -2.0018  0.3259
 2779TIP3   OH229827   2.391   5.319   2.262 -0.0383  0.2282  0.1098
 2779TIP3    H129828   2.479   5.319   2.224  0.2040 -0.6030  0.6234
 2779TIP3    H229829   2.366   5.227   2.262 -1.0098  0.4825 -0.2318
 2780TIP3   OH229830   4.611   3.973   5.380 -0.1216 -0.6942 -0.0530
 2780TIP3    H129831   4.692   3.944   5.423 -0.4560 -1.1116  0.3047
 2780TIP3    H229832   4.625   3.951   5.287 -0.5242 -2.4350  0.2596
 2781TIP3   OH229833   0.017   3.523  13.797  0.7751 -0.0488 -0.1445
 2781TIP3    H129834   0.103   3.538  13.836  0.5263 -0.2375  0.4822
 2781TIP3    H229835   0.025   3.557  13.708  1.2966  0.5267  0.1181
 2782TIP3   OH229836   4.528   3.528   5.472 -0.2503  0.0206  0.0054
 2782TIP3    H129837   4.438   3.541   5.442  0.4983  0.8358 -2.0560
 2782TIP3    H229838   4.524   3.450   5.526 -2.1606 -0.0900 -0.2299
 2783TIP3   OH229839   4.093   2.926  13.142 -0.0955  0.0155 -0.1591
 2783TIP3    H129840   4.145   2.853  13.175  2.5129  1.2113 -1.3317
 2783TIP3    H229841   4.084   2.984  13.217  0.8876  0.1047 -0.0995
 2784TIP3   OH229842   1.960   5.017  11.207  0.3630  0.0432 -0.2994
 2784TIP3    H129843   1.978   5.041  11.116  0.7853 -0.7236 -0.4205
 2784TIP3    H229844   2.043   5.032  11.252 -0.4556  2.7930  0.4993
 2785TIP3   OH229845   5.864   5.146  12.927  0.8705 -0.5052  0.0014
 2785TIP3    H129846   5.806   5.077  12.961 -0.5609  0.7837  0.2550
 2785TIP3    H229847   5.930   5.157  12.995 -0.1345 -0.1603  0.9467
 2786TIP3   OH229848   1.321   2.742   5.714 -0.2285 -0.1916  0.1202
 2786TIP3    H129849   1.389   2.687   5.753  0.6661 -0.2141 -1.3727
 2786TIP3    H229850   1.369   2.811   5.669 -1.1504 -0.3715 -1.2206
 2787TIP3   OH229851   1.240   0.340   6.514  0.8459  0.0770  0.0313
 2787TIP3    H129852   1.217   0.430   6.534  1.7000  0.1593  0.6841
 2787TIP3    H229853   1.156   0.298   6.492  0.7055  1.6002 -2.7584
 2788TIP3   OH229854   6.816   2.572  14.684 -0.4043 -0.2123 -0.6579
 2788TIP3    H129855   6.903   2.609  14.668 -0.0524 -1.4093 -1.6016
 2788TIP3    H229856   6.773   2.575  14.599 -1.7507  1.4602  0.0337
 2789TIP3   OH229857   2.965   5.601   3.658  0.1801 -0.2513  0.0693
 2789TIP3    H129858   2.994   5.634   3.744 -0.4628  1.5947 -0.3711
 2789TIP3    H229859   2.872   5.620   3.655  0.2402 -0.0552 -1.1264
 2790TIP3   OH229860   1.164   0.748  13.973  0.2289 -0.1493  0.2394
 2790TIP3    H129861   1.104   0.705  14.034 -4.0126  3.2003 -1.0570
 2790TIP3    H229862   1.205   0.818  14.025  0.3080 -0.2591  0.3254
 2791TIP3   OH229863   3.045   1.980  14.163  0.1964 -0.2881  0.6233
 2791TIP3    H129864   3.137   1.979  14.188  0.5640  0.6855 -0.6124
 2791TIP3    H229865   3.039   2.043  14.091 -0.9487 -2.2328 -1.1064
 2792TIP3   OH229866   1.197   3.006  14.798  0.1173  0.3515 -0.0754
 2792TIP3    H129867   1.251   3.012  14.876  0.6141  0.5454 -0.4275
 2792TIP3    H229868   1.118   2.959  14.826 -0.1338  1.2614  0.7635
 2793TIP3   OH229869   5.593   3.355  11.275 -0.2549  0.2127 -0.3150
 2793TIP3    H129870   5.564   3.385  11.361  0.9326 -0.0850  0.2057
 2793TIP3    H229871   5.682   3.388  11.267 -1.4751  3.5168 -3.0366
 2794TIP3   OH229872   5.141   4.911   2.439 -0.0537  0.0541 -0.2534
 2794TIP3    H129873   5.194   4.937   2.363  0.8364 -1.4597 -0.1955
 2794TIP3    H229874   5.205   4.887   2.506 -0.7512 -2.2193 -0.3094
 2795TIP3   OH229875   6.378   6.322   4.884  0.0508 -0.0757 -0.7981
 2795TIP3    H129876   6.471   6.336   4.867 -0.1606 -0.0997 -2.0742
 2795TIP3    H229877   6.343   6.408   4.905  0.5752 -0.2475  0.8742
 2796TIP3   OH229878   5.984   0.996  15.593 -0.0119  0.2089 -0.2093
 2796TIP3    H129879   5.984   1.077  15.644 -1.1610 -0.7507  1.4120
 2796TIP3    H229880   6.049   0.941  15.637 -0.3659 -0.3091 -0.3325
 2797TIP3   OH229881   2.724   3.836   1.125 -0.0700  0.8137  0.1766
 2797TIP3    H129882   2.706   3.924   1.094 -1.6934  0.0655 -1.1407
 2797TIP3    H229883   2.658   3.781   1.083  1.5457 -1.2060  0.0924
 2798TIP3   OH229884   1.060   6.115  12.493  0.0853  0.8363 -0.0579
 2798TIP3    H129885   1.098   6.038  12.451  0.2791 -0.0952  1.7084
 2798TIP3    H229886   0.975   6.126  12.451 -0.7217 -1.4550  0.8345
 2799TIP3   OH229887   6.376   0.460  13.310  0.4311  0.3940  0.1279
 2799TIP3    H129888   6.423   0.543  13.298  1.0136 -0.0003 -0.3798
 2799TIP3    H229889   6.346   0.436  13.222 -3.2680  2.0584  0.7544
 2800TIP3   OH229890   0.915   5.180  16.892 -0.5650  0.0986 -0.6806
 2800TIP3    H129891   0.988   5.173  16.954 -0.6069 -0.2506 -0.6703
 2800TIP3    H229892   0.877   5.267  16.909 -0.3208  0.1711 -0.5023
 2801TIP3   OH229893   2.832   0.697  15.683 -0.1659  0.1029  0.2101
 2801TIP3    H129894   2.849   0.710  15.776 -0.6717 -0.2171  0.3518
 2801TIP3    H229895   2.861   0.778  15.641  3.4394 -1.0395  0.1721
 2802TIP3   OH229896   4.247   2.346  15.410  0.1122  0.2456 -0.2295
 2802TIP3    H129897   4.177   2.345  15.345  0.1385  0.2810 -0.2585
 2802TIP3    H229898   4.249   2.437  15.441  0.5019  0.3742 -0.6169
 2803TIP3   OH229899   2.200   2.275   3.695  0.3479 -0.3640 -0.1785
 2803TIP3    H129900   2.220   2.221   3.772  0.1396  0.0606  0.1777
 2803TIP3    H229901   2.195   2.213   3.623  0.5627 -0.7665  0.1491
 2804TIP3   OH229902   6.177   5.807  10.831 -0.4147 -0.1119 -0.1535
 2804TIP3    H129903   6.250   5.776  10.883  1.2138  1.4929 -1.3819
 2804TIP3    H229904   6.213   5.822  10.744 -2.4304 -0.1636 -1.0736
 2805TIP3   OH229905   6.498   4.128  10.951 -0.2956 -0.1062  0.1298
 2805TIP3    H129906   6.554   4.148  10.876  0.7631 -4.8419 -0.6738
 2805TIP3    H229907   6.416   4.099  10.912 -1.0493  0.7453  1.0359
 2806TIP3   OH229908   2.436   4.581  11.510  0.0703 -0.1359 -0.2843
 2806TIP3    H129909   2.497   4.551  11.578 -2.5600 -1.1770  1.7763
 2806TIP3    H229910   2.412   4.501  11.463  0.4294  0.3131 -1.2574
 2807TIP3   OH229911   3.465   5.825   5.149 -1.1002  0.4884 -0.3765
 2807TIP3    H129912   3.468   5.837   5.054 -1.8513  0.2967 -0.4344
 2807TIP3    H229913   3.514   5.898   5.185  0.2195 -0.0900 -0.9558
 2808TIP3   OH229914   0.829   4.610   1.458  1.0410  0.3150  0.0147
 2808TIP3    H129915   0.885   4.589   1.383  1.9219  0.9460  0.4810
 2808TIP3    H229916   0.852   4.546   1.525 -0.1242 -0.5849 -0.4114
 2809TIP3   OH229917   1.450   6.612   5.813  0.0442 -0.0013  0.0651
 2809TIP3    H129918   1.437   6.580   5.902 -0.2300 -0.1774 -0.0350
 2809TIP3    H229919   1.448   6.707   5.820  1.5965  0.0255  0.4790
 2810TIP3   OH229920   6.333   4.488  13.178  0.0752 -0.6139 -0.1208
 2810TIP3    H129921   6.358   4.408  13.132  0.4978  0.3758 -1.6861
 2810TIP3    H229922   6.334   4.556  13.110  1.7179  1.1271  1.5379
 2811TIP3   OH229923   5.245   2.559  15.926  0.1749  0.2535  0.2714
 2811TIP3    H129924   5.198   2.483  15.960  1.8079 -0.8104  0.2614
 2811TIP3    H229925   5.176   2.623  15.906 -1.1189 -0.6102  1.7454
 2812TIP3   OH229926   2.143   0.098   2.926  0.5287 -0.4094  0.3104
 2812TIP3    H129927   2.146   0.191   2.907 -1.5379  0.0291  1.7650
 2812TIP3    H229928   2.060   0.085   2.972  1.5735 -2.6536  1.7944
 2813TIP3   OH229929   6.683   2.418   0.333 -0.1288 -0.1489  0.2688
 2813TIP3    H129930   6.744   2.491   0.338  1.5831 -1.5133  0.1830
 2813TIP3    H229931   6.649   2.421   0.243 -0.7006  0.9794  0.4997
 2814TIP3   OH229932   2.811   2.514  14.390  0.0335  0.3267 -0.0728
 2814TIP3    H129933   2.816   2.579  14.320  0.5696  1.2299  0.7760
 2814TIP3    H229934   2.845   2.434  14.350 -0.2656  0.6626 -1.0255
 2815TIP3   OH229935   0.317   1.206  11.849 -0.8072 -0.1469 -0.5419
 2815TIP3    H129936   0.412   1.199  11.842 -0.9367 -1.1043 -1.6767
 2815TIP3    H229937   0.288   1.225  11.760 -1.5978  1.5177  0.0319
 2816TIP3   OH229938   5.368   5.035  13.556 -0.0891 -0.3225  0.1144
 2816TIP3    H129939   5.416   5.097  13.610  1.8712 -0.0128 -1.8649
 2816TIP3    H229940   5.343   5.084  13.478 -0.9034 -1.3227 -0.2904
 2817TIP3   OH229941   2.421   4.766  15.151  0.0008 -0.0582  0.0518
 2817TIP3    H129942   2.335   4.750  15.189 -0.1682 -0.7107 -0.6029
 2817TIP3    H229943   2.435   4.860  15.164 -2.0503  0.6800 -2.3526
 2818TIP3   OH229944   4.671   0.562  15.310 -0.1221  0.4928 -0.7965
 2818TIP3    H129945   4.613   0.607  15.249  0.3557 -1.4805 -2.8361
 2818TIP3    H229946   4.629   0.478  15.327  0.9964 -0.0241 -0.4513
 2819TIP3   OH229947   5.237   4.203  13.233  0.1953 -0.5743 -0.0395
 2819TIP3    H129948   5.309   4.155  13.190  1.0670 -1.6571  2.4636
 2819TIP3    H229949   5.183   4.135  13.272 -2.8634  0.1568 -2.6093
 2820TIP3   OH229950   3.027   2.500   4.348  0.1722 -0.1889 -0.9336
 2820TIP3    H129951   3.069   2.423   4.389 -0.1330 -0.1315 -0.5112
 2820TIP3    H229952   3.042   2.571   4.410 -2.2988 -0.5911  0.2307
 2821TIP3   OH229953   5.142   2.682  14.078  0.0113 -0.7697  0.1094
 2821TIP3    H129954   5.104   2.637  14.002 -0.9711  0.1443  0.0321
 2821TIP3    H229955   5.220   2.726  14.043 -0.2739 -0.5873 -0.3099
 2822TIP3   OH229956   5.715   3.814   4.379 -0.2215  0.7838 -0.6037
 2822TIP3    H129957   5.748   3.816   4.469  1.3339  1.6296 -1.1666
 2822TIP3    H229958   5.733   3.725   4.349 -0.6405  0.5326 -0.1280
 2823TIP3   OH229959   4.517   5.401   2.036 -0.4141  0.5981  0.0651
 2823TIP3    H129960   4.476   5.488   2.030 -0.9052  0.4838  1.4321
 2823TIP3    H229961   4.453   5.348   2.084 -0.3270 -0.6731 -1.1759
 2824TIP3   OH229962   5.026   2.836  11.925  0.1054 -0.1511 -0.0289
 2824TIP3    H129963   4.935   2.829  11.895 -0.0082  1.6123 -0.1951
 2824TIP3    H229964   5.024   2.799  12.013 -0.0919 -3.0075 -1.1434
 2825TIP3   OH229965   5.839   0.421   3.403  0.6825 -0.2551 -0.0555
 2825TIP3    H129966   5.885   0.350   3.447  0.7907  0.4706  1.0391
 2825TIP3    H229967   5.785   0.461   3.471 -0.1185  0.1082 -0.8742
 2826TIP3   OH229968   3.771   3.785   4.066  0.3592  0.1372  0.0897
 2826TIP3    H129969   3.702   3.725   4.037  0.7368  0.0646 -0.6987
 2826TIP3    H229970   3.836   3.728   4.109  1.4166 -0.2892 -1.9155
 2827TIP3   OH229971   4.117   6.398  14.459  0.2647  0.7090  0.1050
 2827TIP3    H129972   4.108   6.365  14.548  1.0024 -1.8292 -0.6635
 2827TIP3    H229973   4.029   6.391  14.422  0.2819  0.2019  0.1555
 2828TIP3   OH229974   3.901   0.750   3.294 -0.2111 -0.6959 -0.0060
 2828TIP3    H129975   3.996   0.739   3.288 -0.0544  0.6726 -0.4954
 2828TIP3    H229976   3.877   0.795   3.213 -1.7301 -3.4558 -1.2052
 2829TIP3   OH229977   0.134   0.125  12.794  0.0341 -0.2207  0.0207
 2829TIP3    H129978   0.197   0.156  12.859  1.3843  0.3249 -1.5014
 2829TIP3    H229979   0.048   0.142  12.835  0.7649  2.2891  0.7285
 2830TIP3   OH229980   5.452   5.520  14.918 -0.0069 -0.0714  0.4279
 2830TIP3    H129981   5.463   5.502  15.011  1.2985 -0.6602  0.1809
 2830TIP3    H229982   5.365   5.487  14.897 -0.8788  1.3238  1.7192
 2831TIP3   OH229983   0.853   5.885  15.890  0.5456 -0.0008 -0.4974
 2831TIP3    H129984   0.842   5.980  15.894 -0.7578 -0.1545  0.2664
 2831TIP3    H229985   0.914   5.870  15.818  3.2612  1.5892  1.3194
 2832TIP3   OH229986   6.417   2.156  15.133 -0.1682  0.0046 -0.5460
 2832TIP3    H129987   6.347   2.190  15.078 -0.0187  0.2784 -0.5684
 2832TIP3    H229988   6.380   2.154  15.221  0.0697  0.9555 -0.4168
 2833TIP3   OH229989   5.335   3.906  12.300 -0.1573 -0.5657  0.0642
 2833TIP3    H129990   5.388   3.967  12.352 -1.2108 -1.1515  1.9068
 2833TIP3    H229991   5.399   3.860  12.244  1.2863 -1.0242  1.9871
 2834TIP3   OH229992   1.170   0.153  14.368  0.0939 -0.8796  0.5321
 2834TIP3    H129993   1.162   0.230  14.424  1.6213 -0.3532  0.0920
 2834TIP3    H229994   1.080   0.122  14.356 -0.7421  1.6146 -0.3322
 2835TIP3   OH229995   5.728   0.021   5.320 -0.1931 -0.9441  0.2197
 2835TIP3    H129996   5.786   0.073   5.376  0.5575  0.3923 -1.6898
 2835TIP3    H229997   5.680  -0.035   5.381  0.4205  0.5621  2.1976
 2836TIP3   OH229998   3.380   3.659  13.916  0.0067  0.1747 -0.0611
 2836TIP3    H129999   3.471   3.656  13.945 -0.3066 -1.5452  0.9288
 2836TIP3    H230000   3.362   3.751  13.903  1.6277  0.6314  0.6201
 2837TIP3   OH230001   3.060   4.926   1.738 -0.4092 -0.1704 -0.3286
 2837TIP3    H130002   3.142   4.928   1.787  0.2188  0.0080 -1.3621
 2837TIP3    H230003   3.056   4.837   1.703 -1.1478 -0.4830  0.4986
 2838TIP3   OH230004   5.865   4.796  11.390  0.4475 -0.1814 -0.9774
 2838TIP3    H130005   5.824   4.711  11.375  1.2988 -0.3450 -2.5849
 2838TIP3    H230006   5.874   4.834  11.303  0.9015  1.1707 -0.3659
 2839TIP3   OH230007   6.773   1.518  14.791 -0.1461  0.5023  0.4217
 2839TIP3    H130008   6.811   1.448  14.844 -0.7343  1.0149  1.5370
 2839TIP3    H230009   6.693   1.543  14.837 -0.1034  1.7073 -0.1268
 2840TIP3   OH230010   2.662   5.353   1.741 -0.7462 -0.1380 -0.3316
 2840TIP3    H130011   2.629   5.355   1.651 -1.0006  1.8116 -0.2450
 2840TIP3    H230012   2.697   5.442   1.755  1.2868 -1.0359  0.7785
 2841TIP3   OH230013   1.329   1.803   4.668  0.2194  0.6547 -0.6183
 2841TIP3    H130014   1.338   1.750   4.589  2.1825 -2.4299  1.4094
 2841TIP3    H230015   1.242   1.781   4.702  0.3267  0.0678 -0.7115
 2842TIP3   OH230016   1.756   4.493   2.837  0.3203  0.2319 -0.5828
 2842TIP3    H130017   1.821   4.510   2.906 -0.9912  0.4083  0.6443
 2842TIP3    H230018   1.678   4.464   2.883 -1.2162  2.1271 -1.8230
 2843TIP3   OH230019   1.039   1.819  15.285  0.5642  0.1610 -0.6528
 2843TIP3    H130020   1.127   1.786  15.272  0.4357 -0.0480 -0.9978
 2843TIP3    H230021   1.009   1.844  15.198  0.0529 -0.3577 -0.6307
 2844TIP3   OH230022   3.416   0.110   6.257 -0.2735  0.1297 -0.8728
 2844TIP3    H130023   3.363   0.189   6.247  0.7986  0.9438 -0.3888
 2844TIP3    H230024   3.359   0.039   6.230 -1.7596  0.9216  0.0552
 2845TIP3   OH230025   3.816   0.622  13.986  0.0287 -0.0176 -0.7099
 2845TIP3    H130026   3.806   0.706  14.032  1.7123 -0.3942  0.4115
 2845TIP3    H230027   3.895   0.634  13.932  0.2451 -0.8668 -0.5869
 2846TIP3   OH230028   3.202   0.095   0.457  0.3907 -0.4219 -0.7026
 2846TIP3    H130029   3.175   0.029   0.392  0.1073 -1.2001  0.1735
 2846TIP3    H230030   3.211   0.176   0.407 -1.4941 -0.6109 -1.4419
 2847TIP3   OH230031   0.562   2.347  13.280 -0.3039  0.4359  0.1257
 2847TIP3    H130032   0.637   2.307  13.323  0.1697  1.5847  0.3869
 2847TIP3    H230033   0.538   2.421  13.336 -1.5901  0.1290  0.0129
 2848TIP3   OH230034   1.246   2.119   3.658 -0.3559 -0.0506  0.0916
 2848TIP3    H130035   1.197   2.133   3.577 -0.6151  3.1879  0.6544
 2848TIP3    H230036   1.179   2.105   3.725 -0.3334  0.4753  0.2304
 2849TIP3   OH230037   3.250   1.229   1.644  0.6524  0.0401 -0.4119
 2849TIP3    H130038   3.296   1.246   1.726  1.1451  0.6263 -0.7951
 2849TIP3    H230039   3.247   1.134   1.637 -0.0892 -0.0256  0.6642
 2850TIP3   OH230040   4.712   3.201   6.215 -0.8422 -0.0151  0.1489
 2850TIP3    H130041   4.704   3.296   6.203  0.0227  0.0166 -0.2647
 2850TIP3    H230042   4.622   3.170   6.219 -1.1350  0.8525  0.5247
 2851TIP3   OH230043   5.758   4.359  12.841 -0.3680 -0.8961  0.1624
 2851TIP3    H130044   5.810   4.386  12.765  0.3199 -1.7472  0.3212
 2851TIP3    H230045   5.814   4.380  12.916 -0.7180 -0.7996  0.3993
 2852TIP3   OH230046   0.571   0.774  12.716 -0.5457 -0.3346 -0.3794
 2852TIP3    H130047   0.606   0.787  12.627 -0.9008 -1.2724 -0.6691
 2852TIP3    H230048   0.481   0.745  12.702 -1.0549  0.8451  0.3370
 2853TIP3   OH230049   1.456   2.966   2.429  0.0680 -0.1728 -0.9048
 2853TIP3    H130050   1.468   2.893   2.490  0.4896 -0.1612 -0.9725
 2853TIP3    H230051   1.458   2.925   2.342  0.4108 -0.0719 -0.9477
 2854TIP3   OH230052   1.372   4.181   2.935  0.1519 -0.1857 -0.1777
 2854TIP3    H130053   1.319   4.144   2.864  0.2322  0.0357 -0.3543
 2854TIP3    H230054   1.313   4.183   3.010 -0.4985  1.1912 -0.6772
 2855TIP3   OH230055   1.892   0.538  13.983 -0.2124  0.1875 -0.6470
 2855TIP3    H130056   1.870   0.486  14.060 -0.3462 -0.9249 -1.4154
 2855TIP3    H230057   1.884   0.629  14.013  2.4711 -0.1264  1.4361
 2856TIP3   OH230058   0.371   1.130  12.837 -0.4042  0.0132  0.3529
 2856TIP3    H130059   0.465   1.120  12.847 -0.3781 -2.4350 -1.4468
 2856TIP3    H230060   0.355   1.223  12.853  2.3512  0.5889  0.2540
 2857TIP3   OH230061   2.162   4.813  11.069 -0.1826  0.0788 -0.8920
 2857TIP3    H130062   2.104   4.806  10.993 -1.0604 -0.7866 -0.1490
 2857TIP3    H230063   2.109   4.787  11.144  1.2714 -1.1578 -0.2339
 2858TIP3   OH230064   3.607   1.541  11.411 -0.3755 -0.1793 -0.3450
 2858TIP3    H130065   3.662   1.559  11.487 -1.5119  1.4097  0.1460
 2858TIP3    H230066   3.640   1.599  11.343 -0.4698 -0.3350 -0.5241
 2859TIP3   OH230067   0.835   4.057   1.651 -0.6272 -0.1855  0.1278
 2859TIP3    H130068   0.897   4.012   1.593  1.1485  0.3526  1.5208
 2859TIP3    H230069   0.777   4.105   1.591  0.9164  0.0794 -1.2441
 2860TIP3   OH230070   4.720   6.372   3.619  0.4407 -0.0098 -0.4086
 2860TIP3    H130071   4.751   6.281   3.619 -0.9827 -0.7374  4.1332
 2860TIP3    H230072   4.650   6.373   3.554  0.7391 -2.0297 -0.8471
 2861TIP3   OH230073   2.204   3.071   2.520  0.0807 -0.6225  0.4376
 2861TIP3    H130074   2.186   3.165   2.508 -1.7020 -0.8901  0.7074
 2861TIP3    H230075   2.295   3.068   2.550  0.0959  1.0482  0.6790
 2862TIP3   OH230076   3.807   4.705   1.071 -0.3318 -0.5244  0.5400
 2862TIP3    H130077   3.812   4.798   1.049 -1.9046 -0.1299  1.6940
 2862TIP3    H230078   3.718   4.693   1.104 -0.4289 -2.6184 -0.3288
 2863TIP3   OH230079   1.612   4.071  11.783  0.0554 -0.2663 -1.0510
 2863TIP3    H130080   1.627   4.106  11.695  0.8277 -0.5168 -1.0200
 2863TIP3    H230081   1.563   3.991  11.769 -0.8033  0.2684 -1.1837
 2864TIP3   OH230082   4.326   2.444   5.158  0.1366  0.2917 -0.0708
 2864TIP3    H130083   4.366   2.357   5.154  0.0258  0.2476 -0.2197
 2864TIP3    H230084   4.284   2.447   5.244  0.5996  0.4001  0.1521
 2865TIP3   OH230085   3.849   6.310  11.196  0.3478  0.7019 -0.2902
 2865TIP3    H130086   3.905   6.291  11.122 -0.4787 -1.1901 -0.4822
 2865TIP3    H230087   3.886   6.259  11.268  1.4136  2.8709  0.7827
 2866TIP3   OH230088   2.640   3.413  16.953  0.0530 -0.0792 -0.1492
 2866TIP3    H130089   2.592   3.376  16.879 -1.2600  0.6326  0.3106
 2866TIP3    H230090   2.720   3.449  16.915 -0.6482  0.3655 -1.2412
 2867TIP3   OH230091   4.315   0.771   0.952  0.9132  0.5533 -0.3470
 2867TIP3    H130092   4.274   0.741   0.871  2.2415 -1.5222 -0.3103
 2867TIP3    H230093   4.241   0.788   1.011 -0.0252 -2.7464 -0.3780
 2868TIP3   OH230094   5.803   2.742   6.121  0.4547 -0.1495  0.1712
 2868TIP3    H130095   5.863   2.726   6.194  0.3843 -0.1846  0.2229
 2868TIP3    H230096   5.734   2.797   6.159  0.6852  0.2597  0.0002
 2869TIP3   OH230097   1.475   6.508   5.028 -0.5351 -0.4069 -0.6837
 2869TIP3    H130098   1.530   6.554   5.092  0.8877 -1.4632 -1.1037
 2869TIP3    H230099   1.468   6.568   4.954  0.8815 -0.6267 -1.0202
 2870TIP3   OH230100   6.380   2.453  15.276  0.3845 -0.0514  0.0709
 2870TIP3    H130101   6.415   2.436  15.188 -0.6983 -1.6415 -0.1069
 2870TIP3    H230102   6.290   2.422  15.271  0.4399 -0.5710  1.8738
 2871TIP3   OH230103   1.558   4.313  11.125 -0.3975 -0.1235  0.3311
 2871TIP3    H130104   1.478   4.260  11.133 -0.0344 -0.6186  0.6993
 2871TIP3    H230105   1.544   4.387  11.185 -1.3183  0.7443 -0.8925
 2872TIP3   OH230106   0.744   6.372   5.626 -0.0021 -0.1546 -0.0289
 2872TIP3    H130107   0.650   6.361   5.609 -0.1289  0.1612  0.4202
 2872TIP3    H230108   0.769   6.448   5.574  0.3165 -1.0433 -1.2041
 2873TIP3   OH230109   6.312   0.343  13.068 -0.1971 -0.1598  0.5920
 2873TIP3    H130110   6.305   0.247  13.069 -1.1707 -0.0881  0.8934
 2873TIP3    H230111   6.254   0.370  12.997 -0.3961  0.2473  0.9091
 2874TIP3   OH230112   3.067   4.481   0.071 -0.7142 -1.0122  0.3491
 2874TIP3    H130113   3.076   4.566   0.114  0.2858 -1.2466  0.6255
 2874TIP3    H230114   3.086   4.498  -0.021 -0.9876 -0.8551  0.3200
 2875TIP3   OH230115   1.086   3.030  15.619 -0.3491 -0.2587  0.0420
 2875TIP3    H130116   1.009   3.085  15.634 -0.6061 -0.8859  1.1534
 2875TIP3    H230117   1.106   3.041  15.526  0.5203  2.9102  0.4627
 2876TIP3   OH230118   3.505   1.251  11.674 -0.2201 -0.1820  0.4850
 2876TIP3    H130119   3.514   1.211  11.588 -0.1642  1.1818 -0.1598
 2876TIP3    H230120   3.454   1.331  11.660  2.2003  1.6313  1.1581
 2877TIP3   OH230121   0.796   5.851   3.271 -0.1306 -0.8101 -0.2480
 2877TIP3    H130122   0.823   5.790   3.202 -1.9756 -2.3730  0.3353
 2877TIP3    H230123   0.772   5.796   3.345  1.1552  0.8043  1.4816
 2878TIP3   OH230124   6.585   4.289  10.709  0.1104 -0.5678  0.0608
 2878TIP3    H130125   6.662   4.237  10.685  0.2508 -0.5258  0.4193
 2878TIP3    H230126   6.572   4.348  10.634 -0.1255 -1.1977 -0.4066
 2879TIP3   OH230127   5.037   5.427  13.660 -0.4431 -0.2367  0.0117
 2879TIP3    H130128   5.095   5.360  13.697 -0.5795 -1.2530 -1.5083
 2879TIP3    H230129   5.044   5.501  13.720  2.3218 -0.3697 -0.0059
 2880TIP3   OH230130   5.555   5.235   2.195  0.4811  0.3823  0.2284
 2880TIP3    H130131   5.566   5.254   2.101  0.7919 -0.7535  0.0256
 2880TIP3    H230132   5.513   5.314   2.230 -1.6661 -0.0059 -1.2769
 2881TIP3   OH230133   5.013   6.618   1.030  0.1326 -0.1077  0.0090
 2881TIP3    H130134   5.101   6.580   1.038  0.2753 -0.1864 -1.6144
 2881TIP3    H230135   5.014   6.663   0.946 -1.7770 -1.1518 -0.6213
 2882TIP3   OH230136   1.037   6.551  12.949  0.1721 -0.5910 -0.0481
 2882TIP3    H130137   1.104   6.573  12.884 -0.6220 -0.2208 -0.7634
 2882TIP3    H230138   1.086   6.534  13.029  1.3579 -3.1358 -1.2167
 2883TIP3   OH230139   3.868   1.729  14.197 -0.2787  0.0634  0.6332
 2883TIP3    H130140   3.894   1.656  14.253 -1.6550 -0.6389  0.4018
 2883TIP3    H230141   3.774   1.738  14.210 -0.2990  1.2001 -0.0594
 2884TIP3   OH230142   2.042   5.303   2.252  0.0094 -0.3700 -0.0559
 2884TIP3    H130143   2.045   5.302   2.156 -0.9788 -0.4584 -0.0900
 2884TIP3    H230144   2.016   5.392   2.274 -1.6719 -0.8573  0.0532
 2885TIP3   OH230145   0.889   5.113   3.413  0.6419 -0.0669  0.2996
 2885TIP3    H130146   0.824   5.048   3.388  0.6117  0.4589 -1.0756
 2885TIP3    H230147   0.939   5.071   3.483 -0.3545 -0.9573  0.5101
 2886TIP3   OH230148   6.501   5.098   3.313 -0.6693 -0.2952  0.2074
 2886TIP3    H130149   6.534   5.120   3.400 -0.4364 -1.6744  0.5014
 2886TIP3    H230150   6.554   5.150   3.253 -1.9669  1.9959  0.9183
 2887TIP3   OH230151   1.591   0.340  14.352  0.5775  0.5778  0.2841
 2887TIP3    H130152   1.673   0.359  14.398  1.5585 -0.3115 -1.0354
 2887TIP3    H230153   1.573   0.248  14.373  0.4728  0.4721 -0.2659
 2888TIP3   OH230154   6.498   2.260   3.324 -0.0588 -0.4360 -0.1151
 2888TIP3    H130155   6.486   2.188   3.263  1.2525  0.4843 -1.5452
 2888TIP3    H230156   6.427   2.321   3.305 -1.7777 -1.7061  1.7813
 2889TIP3   OH230157   3.190   6.447   3.047  0.0440 -0.0815  0.6343
 2889TIP3    H130158   3.101   6.483   3.038  0.4254  0.5510 -0.9048
 2889TIP3    H230159   3.181   6.356   3.019 -0.1761 -0.1194  0.8184
 2890TIP3   OH230160   0.069   2.042   1.995 -0.0022  0.0911 -0.0382
 2890TIP3    H130161   0.048   2.117   1.940 -0.4006 -0.8024 -1.1442
 2890TIP3    H230162   0.093   1.973   1.934 -0.1633 -0.8452  0.9167
 2891TIP3   OH230163   4.439   0.690  16.756  0.9368  0.5422  0.0351
 2891TIP3    H130164   4.423   0.764  16.814 -0.2475  0.4581 -0.1644
 2891TIP3    H230165   4.489   0.726  16.683  0.1505  1.2108 -0.1860
 2892TIP3   OH230166   4.808   2.895  13.921 -0.3659 -0.0169 -0.4943
 2892TIP3    H130167   4.855   2.936  13.994 -0.3494  1.6390 -1.3748
 2892TIP3    H230168   4.730   2.856  13.962 -0.2050  0.6110  0.4513
 2893TIP3   OH230169   5.892   6.768  15.593 -0.1320  0.1426 -0.2534
 2893TIP3    H130170   5.948   6.803  15.663  0.6850 -0.5397 -0.5468
 2893TIP3    H230171   5.832   6.709  15.639 -0.8857  1.1707  0.1149
 2894TIP3   OH230172   5.920   0.065   6.159 -0.9855 -0.3527  0.5543
 2894TIP3    H130173   5.970  -0.013   6.134 -0.2030 -0.2987  1.8420
 2894TIP3    H230174   5.986   0.134   6.167 -1.4002 -0.0213  1.2480
 2895TIP3   OH230175   1.286   2.207  10.497  0.3246 -0.1992 -0.4977
 2895TIP3    H130176   1.349   2.272  10.468  0.2780  1.0398  1.9524
 2895TIP3    H230177   1.217   2.209  10.430  0.7388  1.6707 -0.9188
 2896TIP3   OH230178   5.794   2.707   0.591 -0.3554 -0.5105 -0.0123
 2896TIP3    H130179   5.735   2.729   0.663 -0.6358  1.7593 -0.8527
 2896TIP3    H230180   5.754   2.746   0.514  2.2897  1.3313 -0.5790
 2897TIP3   OH230181   0.474   5.424   0.150  0.1731  0.2183  1.0618
 2897TIP3    H130182   0.506   5.463   0.231  1.0013 -0.7968  1.2374
 2897TIP3    H230183   0.486   5.330   0.161  2.2729  0.1373 -1.0148
 2898TIP3   OH230184   0.255   1.333   2.668 -0.3395  0.0572  0.1818
 2898TIP3    H130185   0.324   1.396   2.686 -0.4975  0.6023 -1.0085
 2898TIP3    H230186   0.178   1.367   2.714  0.0427 -0.2860  1.0928
 2899TIP3   OH230187   4.579   0.479  16.454  0.3725 -0.2576  0.7041
 2899TIP3    H130188   4.606   0.562  16.493 -1.3599  1.2160 -1.0050
 2899TIP3    H230189   4.508   0.503  16.394  1.0894 -2.7146 -1.3122
 2900TIP3   OH230190   6.832   5.122   1.686 -0.2206  0.0237 -0.0201
 2900TIP3    H130191   6.896   5.056   1.657  0.8471  0.8844  0.3061
 2900TIP3    H230192   6.758   5.071   1.718 -0.6419 -1.0022 -2.3974
 2901TIP3   OH230193   1.215   0.949   4.985 -0.1008 -0.0316  0.9459
 2901TIP3    H130194   1.181   0.859   4.982 -0.8515  0.2782 -1.1644
 2901TIP3    H230195   1.250   0.965   4.897 -2.3699  2.6177  0.3965
 2902TIP3   OH230196   6.539   6.571  11.955  0.0760 -0.0346  0.2408
 2902TIP3    H130197   6.616   6.514  11.951  0.6662  0.7682 -0.1828
 2902TIP3    H230198   6.464   6.511  11.950  0.6525 -0.9004  1.4975
 2903TIP3   OH230199   0.370   6.243   0.999  0.8970 -0.1117 -0.3277
 2903TIP3    H130200   0.440   6.277   0.943  0.5057 -0.0441 -0.7810
 2903TIP3    H230201   0.291   6.287   0.968  0.7686  0.3938  0.6848
 2904TIP3   OH230202   6.784   3.088  11.999  0.1331  0.0870 -0.0472
 2904TIP3    H130203   6.860   3.135  11.965 -0.0476  0.2017 -0.2971
 2904TIP3    H230204   6.811   3.057  12.085  0.1578  0.8967  0.2445
 2905TIP3   OH230205   2.607   3.426  11.469 -0.0575  0.3126  0.1957
 2905TIP3    H130206   2.541   3.357  11.478 -1.2000  0.9582 -2.3658
 2905TIP3    H230207   2.673   3.389  11.411  1.4939 -0.0128  2.0719
 2906TIP3   OH230208   4.324   0.340  16.316 -0.4614 -0.0350  0.6370
 2906TIP3    H130209   4.291   0.281  16.384 -0.4808 -0.4547  0.2639
 2906TIP3    H230210   4.340   0.284  16.241  0.0574  0.3451  0.4588
 2907TIP3   OH230211   0.330   5.388   1.416  0.8057 -0.0058 -0.4064
 2907TIP3    H130212   0.270   5.372   1.343 -0.1279 -0.6716  0.4869
 2907TIP3    H230213   0.415   5.404   1.374  0.6892 -2.1273 -1.5987
 2908TIP3   OH230214   2.191   2.325  14.344 -0.3864 -0.0963 -0.0753
 2908TIP3    H130215   2.122   2.259  14.346 -0.3587 -0.1320 -0.3757
 2908TIP3    H230216   2.264   2.283  14.300 -0.0921 -0.1332  0.4433
 2909TIP3   OH230217   1.954   5.602  11.616  0.2142  0.0870  0.1509
 2909TIP3    H130218   1.899   5.526  11.596  1.2687 -1.3690  2.3869
 2909TIP3    H230219   2.010   5.612  11.539 -1.2036 -0.1608 -0.9740
 2910TIP3   OH230220   0.997   1.652  13.525  0.1742 -0.1029  0.8419
 2910TIP3    H130221   0.911   1.667  13.487 -0.6578 -0.7147  2.3860
 2910TIP3    H230222   1.057   1.654  13.450 -0.7673  3.0310  0.0203
 2911TIP3   OH230223   4.058   2.646   2.416  0.1146  0.0472 -0.1657
 2911TIP3    H130224   3.963   2.632   2.426  0.2081 -0.9789 -0.5144
 2911TIP3    H230225   4.097   2.564   2.447  0.8073 -0.0342 -1.2076
 2912TIP3   OH230226   6.129   4.212   4.329  0.6132 -0.0472  0.7612
 2912TIP3    H130227   6.081   4.212   4.412 -0.3462 -0.0193  0.2185
 2912TIP3    H230228   6.102   4.293   4.285  2.0174  0.5470  0.9091
 2913TIP3   OH230229   4.460   4.572  16.958 -0.2617  0.0251  0.3425
 2913TIP3    H130230   4.364   4.567  16.963 -0.3851  0.5641 -0.8991
 2913TIP3    H230231   4.489   4.566  17.048 -1.4378 -0.7172  0.7032
 2914TIP3   OH230232   3.569   2.646  11.572  0.2571 -0.2237  0.1420
 2914TIP3    H130233   3.631   2.640  11.498  0.6870  0.0906  0.4705
 2914TIP3    H230234   3.615   2.699  11.637 -0.2823 -0.1626  0.4774
 2915TIP3   OH230235   1.384   4.951  13.278  0.4511 -0.0022 -0.1321
 2915TIP3    H130236   1.432   5.009  13.219  1.0022  0.6382  0.9107
 2915TIP3    H230237   1.340   5.010  13.340 -1.8961 -0.5441 -1.1610
 2916TIP3   OH230238   2.528   1.554   1.565 -0.4069 -0.5029  0.4468
 2916TIP3    H130239   2.522   1.572   1.659 -1.3577  0.2778  0.2445
 2916TIP3    H230240   2.611   1.506   1.556  1.1572  1.8735  1.2896
 2917TIP3   OH230241   1.127   0.220   5.614 -0.0453  0.0864 -0.0663
 2917TIP3    H130242   1.066   0.232   5.687  0.2524 -1.7352  0.5362
 2917TIP3    H230243   1.133   0.125   5.603  1.0943  0.2806 -1.4840
 2918TIP3   OH230244   2.945   1.943   2.626 -0.6116  0.2184 -0.1455
 2918TIP3    H130245   3.012   1.949   2.558  0.0935 -1.5159  0.3440
 2918TIP3    H230246   2.971   2.009   2.691  0.7873 -0.5595  0.1382
 2919TIP3   OH230247   6.471   3.731  16.986  0.0411  0.8798  0.1601
 2919TIP3    H130248   6.405   3.795  16.960 -2.4199 -1.7343 -0.5266
 2919TIP3    H230249   6.461   3.659  16.924  1.3738 -1.0023  1.9764
 2920TIP3   OH230250   1.876   5.936  14.346 -0.2396 -0.8718  0.4922
 2920TIP3    H130251   1.796   5.981  14.376 -0.1160 -0.6127  0.4399
 2920TIP3    H230252   1.872   5.943  14.251 -1.0556 -2.4265  0.3866
 2921TIP3   OH230253   1.990   6.000   3.253 -0.5698 -0.0141 -0.3476
 2921TIP3    H130254   1.907   6.003   3.206  0.1276  1.4481 -1.5730
 2921TIP3    H230255   2.049   5.953   3.194 -0.7305 -1.9578  0.9480
 2922TIP3   OH230256   0.220   5.847   2.905  0.5528  0.0798 -0.0280
 2922TIP3    H130257   0.155   5.781   2.885  0.7829  0.1761 -1.1316
 2922TIP3    H230258   0.290   5.833   2.841  1.2398  0.5032  0.6078
 2923TIP3   OH230259   4.274   5.065  13.006 -0.1004 -0.0877 -0.1446
 2923TIP3    H130260   4.235   4.978  13.018 -0.7566  0.4100  1.8133
 2923TIP3    H230261   4.368   5.048  12.996  0.2327 -0.9842  3.1579
 2924TIP3   OH230262   0.960   5.579   1.677 -0.3469  0.0480  0.5058
 2924TIP3    H130263   1.038   5.635   1.681 -0.2660  0.0632 -0.7882
 2924TIP3    H230264   0.989   5.494   1.708  0.4008 -0.1401 -0.6287
 2925TIP3   OH230265   1.027   1.466   4.259  0.1624 -0.3482 -0.0135
 2925TIP3    H130266   0.999   1.550   4.295  2.3481  0.9804 -1.1701
 2925TIP3    H230267   1.097   1.437   4.317  2.3716  0.8537 -1.9038
 2926TIP3   OH230268   0.120   5.464  15.249  0.5398 -0.0331 -0.4330
 2926TIP3    H130269   0.139   5.372  15.229  0.2421 -0.1864 -0.0381
 2926TIP3    H230270   0.051   5.459  15.316  2.3538  0.4372  1.5585
 2927TIP3   OH230271   1.603   3.624   6.242 -0.5357  0.9093  0.0009
 2927TIP3    H130272   1.696   3.607   6.227 -0.7859  0.6922 -1.5346
 2927TIP3    H230273   1.601   3.703   6.296  0.5402  0.7872  0.2410
 2928TIP3   OH230274   0.006   2.951  14.057 -0.1423 -0.2652  0.1943
 2928TIP3    H130275  -0.078   2.921  14.092  0.6598 -3.0761 -0.0588
 2928TIP3    H230276   0.011   2.911  13.970  2.8124 -3.0847  1.4621
 2929TIP3   OH230277   3.726   5.475  10.496  0.7276  0.5079  0.5083
 2929TIP3    H130278   3.809   5.506  10.459  0.9363  1.2588  1.5609
 2929TIP3    H230279   3.726   5.509  10.585  0.7129 -2.0634  1.5903
 2930TIP3   OH230280   3.254   5.657   5.744 -0.1470 -1.2524  0.3033
 2930TIP3    H130281   3.252   5.651   5.649 -1.0215  0.4610  0.1643
 2930TIP3    H230282   3.341   5.690   5.765 -0.5732  0.2005 -0.0900
 2931TIP3   OH230283   4.315   0.693   0.498 -0.0006 -0.7271  0.3348
 2931TIP3    H130284   4.356   0.607   0.484  1.1284 -0.0631 -0.5233
 2931TIP3    H230285   4.254   0.678   0.570 -0.4239 -2.4501 -0.3150
 2932TIP3   OH230286   5.766   0.997   5.815  0.2866  0.4968 -0.3329
 2932TIP3    H130287   5.684   0.951   5.835 -0.2809  0.8856 -1.6776
 2932TIP3    H230288   5.813   0.937   5.756  0.6778  0.5558 -0.0833
 2933TIP3   OH230289   3.733   0.535   3.407  0.3669  0.3637 -0.0269
 2933TIP3    H130290   3.801   0.597   3.381 -0.3642  1.6190  0.9598
 2933TIP3    H230291   3.697   0.504   3.324 -1.3885  3.6839 -0.6522
 2934TIP3   OH230292   6.537   0.654   3.758  0.1888  0.1494  0.0496
 2934TIP3    H130293   6.601   0.584   3.750  0.8998  0.7349  0.4663
 2934TIP3    H230294   6.503   0.666   3.670  1.7795  0.8532 -0.5003
 2935TIP3   OH230295   4.749   5.959  15.094 -0.8070  0.1368  0.5223
 2935TIP3    H130296   4.678   5.896  15.082 -2.1420  1.9519 -1.9671
 2935TIP3    H230297   4.706   6.044  15.091  1.3810  1.2910 -0.3669
 2936TIP3   OH230298   5.905   4.543  15.365 -0.2689  0.3283 -0.1620
 2936TIP3    H130299   5.946   4.606  15.306 -0.0456  0.2493 -0.0916
 2936TIP3    H230300   5.845   4.494  15.310 -0.5709  0.7169 -0.1853
 2937TIP3   OH230301   1.992   2.981  12.548  0.2665 -0.2741  0.0059
 2937TIP3    H130302   2.056   2.979  12.478 -0.8608 -1.1080 -1.0519
 2937TIP3    H230303   1.911   3.009  12.506 -0.3119 -0.2354  1.0929
 2938TIP3   OH230304   5.228   0.578   1.544 -0.1349 -0.2411 -0.0408
 2938TIP3    H130305   5.319   0.605   1.535  0.7811 -2.4440  1.5220
 2938TIP3    H230306   5.203   0.547   1.458  0.5174  0.5655 -0.5355
 2939TIP3   OH230307   4.234   0.955   4.194 -0.0976 -0.2985 -0.3082
 2939TIP3    H130308   4.297   0.886   4.215 -1.1542 -0.7869  1.4518
 2939TIP3    H230309   4.277   1.036   4.222  0.2853 -0.4873 -0.3482
 2940TIP3   OH230310   1.291   6.407   3.321 -0.4512  0.3146  0.5529
 2940TIP3    H130311   1.200   6.385   3.302  0.0994  0.2070 -2.3476
 2940TIP3    H230312   1.328   6.327   3.357 -1.2606  0.0590  0.8346
 2941TIP3   OH230313   1.473   1.766   5.673  0.9186 -0.2504  0.4785
 2941TIP3    H130314   1.532   1.797   5.742 -0.1297 -0.1111  1.3297
 2941TIP3    H230315   1.451   1.677   5.699 -1.7026  0.7167  1.9006
 2942TIP3   OH230316   2.826   3.743   3.371  0.2579 -0.1931 -0.4006
 2942TIP3    H130317   2.788   3.661   3.404 -0.0352  0.2493  0.3623
 2942TIP3    H230318   2.762   3.775   3.308 -0.6658  0.5458  0.8739
 2943TIP3   OH230319   5.358   0.417   3.844  0.3545  0.5252 -0.1916
 2943TIP3    H130320   5.331   0.329   3.817  0.2956 -0.2214  2.0682
 2943TIP3    H230321   5.277   0.467   3.847 -0.4946 -0.7715  3.2381
 2944TIP3   OH230322   6.651   5.230   3.743 -0.0995 -0.6167  0.2465
 2944TIP3    H130323   6.693   5.253   3.827 -1.5828  1.8914  0.4116
 2944TIP3    H230324   6.558   5.225   3.764 -0.4656 -0.1915 -1.1927
 2945TIP3   OH230325   2.181   1.713  12.238 -0.1250  0.2134 -0.3251
 2945TIP3    H130326   2.144   1.701  12.150 -1.7887  1.7344  0.1180
 2945TIP3    H230327   2.105   1.719  12.295  0.8865  0.9703  0.9882
 2946TIP3   OH230328   4.469   6.618   5.506 -0.3971 -0.7006  0.2026
 2946TIP3    H130329   4.435   6.556   5.441 -0.2506 -0.5731  0.0037
 2946TIP3    H230330   4.556   6.642   5.473  0.7379 -2.4890  1.6508
 2947TIP3   OH230331   3.440   6.350  16.021  0.8819 -0.0710  0.2402
 2947TIP3    H130332   3.522   6.364  15.973  0.3848  0.9168 -0.3493
 2947TIP3    H230333   3.382   6.419  15.991 -0.5117 -1.3182 -0.0633
 2948TIP3   OH230334   6.620   1.967  13.600 -0.2771 -0.1102  0.4640
 2948TIP3    H130335   6.655   1.905  13.536  0.2992  0.8195 -0.1420
 2948TIP3    H230336   6.600   2.046  13.550 -0.9155  0.2411  1.2356
 2949TIP3   OH230337   0.802   6.568  15.098 -0.2282 -0.2941 -0.1206
 2949TIP3    H130338   0.859   6.619  15.041  1.1211 -0.7038  0.8108
 2949TIP3    H230339   0.841   6.480  15.100 -2.0711 -1.1878 -1.0807
 2950TIP3   OH230340   4.898   5.431   3.970  0.0941 -0.3066  0.1108
 2950TIP3    H130341   4.869   5.516   4.004  2.7271 -0.4620  3.2515
 2950TIP3    H230342   4.932   5.451   3.883 -0.4771  1.5966  0.2674
 2951TIP3   OH230343   1.193   1.035   4.234  0.1695  0.2325  0.0543
 2951TIP3    H130344   1.198   1.027   4.139 -0.1843 -2.4449  0.2001
 2951TIP3    H230345   1.275   1.077   4.259  0.6943  0.0890 -1.3658
 2952TIP3   OH230346   5.088   4.024  12.976  0.2738  0.1693 -0.6214
 2952TIP3    H130347   5.150   4.063  13.037  0.8386  1.0415 -1.7267
 2952TIP3    H230348   5.060   4.097  12.921 -1.6607 -0.2227 -0.2311
 2953TIP3   OH230349   6.809   6.288  11.729 -0.1133 -0.3135 -0.6705
 2953TIP3    H130350   6.806   6.381  11.754 -1.0955 -0.3629 -0.5668
 2953TIP3    H230351   6.720   6.268  11.699  0.3693 -0.9432 -1.7402
 2954TIP3   OH230352   0.459   0.206  15.878 -0.0167  0.1596  0.3574
 2954TIP3    H130353   0.443   0.136  15.815 -1.9992  1.0851 -0.2404
 2954TIP3    H230354   0.501   0.163  15.952 -3.0108 -2.1258  0.9032
 2955TIP3   OH230355   0.023   0.500  12.366  0.2777  0.4173  0.2792
 2955TIP3    H130356   0.075   0.579  12.357  1.9396 -0.8836 -4.8570
 2955TIP3    H230357   0.082   0.438  12.410  1.0772  0.5311 -0.5935
 2956TIP3   OH230358   3.825   3.269   3.334  0.0198 -0.2603  0.3779
 2956TIP3    H130359   3.880   3.308   3.402  0.7321 -0.8987  0.1896
 2956TIP3    H230360   3.828   3.175   3.352 -1.6443 -0.2590  0.8150
 2957TIP3   OH230361   1.756   2.409  16.300  0.2152 -0.2820  0.2688
 2957TIP3    H130362   1.769   2.424  16.394 -0.6687 -2.0165  0.7081
 2957TIP3    H230363   1.835   2.363  16.272 -1.3735 -3.9821  1.2731
 2958TIP3   OH230364   4.572   6.792   4.164  0.1639 -0.1992  0.1049
 2958TIP3    H130365   4.632   6.867   4.170 -1.3301  1.1368 -0.8653
 2958TIP3    H230366   4.555   6.782   4.071 -0.5758 -1.0245  0.3137
 2959TIP3   OH230367   2.749   2.189   4.720 -0.3557  0.1479 -0.1306
 2959TIP3    H130368   2.690   2.122   4.685 -0.6727  1.0775 -1.4483
 2959TIP3    H230369   2.725   2.196   4.812 -0.6572 -1.1858 -0.0904
 2960TIP3   OH230370   4.553   1.310  13.661  0.6775  0.4521 -0.1427
 2960TIP3    H130371   4.582   1.261  13.584 -1.5804  1.0201 -1.4524
 2960TIP3    H230372   4.475   1.263  13.691 -1.0127  2.6123 -0.8920
 2961TIP3   OH230373   0.976   2.872  10.623 -0.3103 -0.4105 -1.1609
 2961TIP3    H130374   0.995   2.835  10.537  0.6160 -1.9389 -0.3504
 2961TIP3    H230375   0.941   2.798  10.673  1.9529 -0.3601  0.6473
 2962TIP3   OH230376   4.078   4.043  13.761  0.4194 -0.0613  0.7852
 2962TIP3    H130377   4.147   3.983  13.733  0.8350  0.7868 -0.0645
 2962TIP3    H230378   4.074   4.109  13.692 -0.7630  0.2962  1.1713
 2963TIP3   OH230379   6.594   5.083   0.124  0.0504  0.5475 -0.2449
 2963TIP3    H130380   6.511   5.097   0.170 -0.6614 -1.5179 -0.8200
 2963TIP3    H230381   6.635   5.170   0.123  0.1087  0.8154  4.1782
 2964TIP3   OH230382   4.296   1.185   4.889  0.2965 -0.8050  0.6109
 2964TIP3    H130383   4.376   1.198   4.837 -0.2439 -0.5173 -0.1759
 2964TIP3    H230384   4.316   1.223   4.974  1.1013 -1.0041  0.5176
 2965TIP3   OH230385   0.352   1.783  16.323  0.3998  0.0981  0.1840
 2965TIP3    H130386   0.369   1.699  16.280  0.1985  0.5356 -0.7910
 2965TIP3    H230387   0.336   1.761  16.415  1.9928 -0.7471  0.2897
 2966TIP3   OH230388   1.279   5.166   1.109  0.2630 -0.3543 -0.2499
 2966TIP3    H130389   1.318   5.118   1.035  2.1288 -1.8888  1.6148
 2966TIP3    H230390   1.232   5.099   1.159 -1.0588  0.6832 -0.0526
 2967TIP3   OH230391   3.638   2.788  14.707 -0.1044  0.0808  0.3629
 2967TIP3    H130392   3.714   2.781  14.648 -1.4376 -0.0983 -1.4260
 2967TIP3    H230393   3.562   2.787  14.648 -1.6134 -1.7198  2.2065
 2968TIP3   OH230394   1.123   3.967  14.642 -0.2899  0.2284 -0.0828
 2968TIP3    H130395   1.088   4.056  14.645 -1.1320 -0.1001  0.0960
 2968TIP3    H230396   1.194   3.967  14.705 -0.9289  0.5121  0.6460
 2969TIP3   OH230397   4.231   5.040   0.500  0.6134  0.3920  0.5739
 2969TIP3    H130398   4.284   5.098   0.445 -0.1461 -0.4737 -1.1673
 2969TIP3    H230399   4.232   4.956   0.454 -1.4486  0.0946  0.9789
 2970TIP3   OH230400   4.161   6.796  15.431  0.0643 -0.4347 -0.0217
 2970TIP3    H130401   4.076   6.780  15.389  1.0664 -0.7910 -2.0887
 2970TIP3    H230402   4.146   6.870  15.489 -1.6162 -0.3491 -0.5103
 2971TIP3   OH230403   6.780   4.575  10.946  0.2220  0.0369  0.0570
 2971TIP3    H130404   6.744   4.623  10.872  1.1306 -0.0367 -0.4429
 2971TIP3    H230405   6.771   4.636  11.020  0.9662  0.8257 -0.4841
 2972TIP3   OH230406   2.159   4.773   2.655  0.2530 -0.6701  0.1946
 2972TIP3    H130407   2.222   4.844   2.640  0.9060 -1.3680 -0.4625
 2972TIP3    H230408   2.128   4.751   2.567  0.9964 -2.0325  0.2422
 2973TIP3   OH230409   1.683   4.919  13.803  0.1359 -0.2062  0.2694
 2973TIP3    H130410   1.658   4.983  13.737  0.9046 -1.4354 -1.2855
 2973TIP3    H230411   1.775   4.939  13.822 -0.1512  0.2981  1.1832
 2974TIP3   OH230412   2.432   3.496   4.963  0.7075  0.0696  0.5587
 2974TIP3    H130413   2.512   3.446   4.950  1.6444  1.0278  2.2432
 2974TIP3    H230414   2.370   3.459   4.900  2.5503 -0.4447 -1.0493
 2975TIP3   OH230415   4.479   2.878  12.923  0.2302  0.5957  0.9370
 2975TIP3    H130416   4.468   2.858  12.830  0.4071  0.1055  1.0183
 2975TIP3    H230417   4.504   2.970  12.925 -3.3867  1.7699  0.7030
 2976TIP3   OH230418   0.578   2.028   2.756  0.5430  0.1592 -0.2501
 2976TIP3    H130419   0.510   2.071   2.704  1.0134 -0.6418 -1.5763
 2976TIP3    H230420   0.651   2.017   2.695  0.5158 -2.3237  0.0739
 2977TIP3   OH230421   3.363   3.939   2.289 -0.2784  0.2810  0.1981
 2977TIP3    H130422   3.287   3.935   2.230  1.7542  0.0833 -2.6356
 2977TIP3    H230423   3.405   3.854   2.279  1.4018  1.0902  0.0547
 2978TIP3   OH230424   4.380   6.838   4.941 -1.1806  0.0901 -0.2627
 2978TIP3    H130425   4.452   6.799   4.891 -1.7620 -0.0210 -1.0380
 2978TIP3    H230426   4.395   6.932   4.935  0.1642  0.0361  1.5198
 2979TIP3   OH230427   1.517   0.891   6.157 -0.0663  0.1190 -0.0233
 2979TIP3    H130428   1.526   0.985   6.140  2.7208 -0.1286 -0.4394
 2979TIP3    H230429   1.452   0.885   6.227  0.9824  2.5328  1.2736
 2980TIP3   OH230430   0.855   4.417  16.805 -0.2613  0.6282 -0.1668
 2980TIP3    H130431   0.946   4.390  16.817 -0.6499 -0.5804  0.2186
 2980TIP3    H230432   0.845   4.493  16.862 -0.3450 -1.1932  2.4161
 2981TIP3   OH230433   6.475   6.437   6.589  0.6250 -0.1908  0.1664
 2981TIP3    H130434   6.472   6.498   6.662 -0.0918 -0.4534  0.3702
 2981TIP3    H230435   6.568   6.425   6.571  0.7700  0.9106  0.1555
 2982TIP3   OH230436   4.535   0.926  13.710  0.1528  0.1273 -0.1014
 2982TIP3    H130437   4.500   0.937  13.799 -0.0889  1.3963 -0.3393
 2982TIP3    H230438   4.460   0.937  13.653  0.3025 -0.7360 -0.4754
 2983TIP3   OH230439   3.965   4.219   0.378 -0.6776  0.4448  0.0124
 2983TIP3    H130440   3.971   4.213   0.473  3.6609 -0.7921 -0.1386
 2983TIP3    H230441   3.928   4.136   0.351 -0.7331  0.2796  0.5763
 2984TIP3   OH230442   2.575   0.105  13.201 -0.3818 -0.0731 -0.0097
 2984TIP3    H130443   2.603   0.190  13.237 -1.6243 -0.1529  1.2091
 2984TIP3    H230444   2.569   0.121  13.107  0.6549  0.8152  0.0451
 2985TIP3   OH230445   3.056   4.493  16.440  0.2071  0.0741  0.0578
 2985TIP3    H130446   3.082   4.403  16.421  0.1991  0.1704 -0.4277
 2985TIP3    H230447   3.018   4.490  16.528 -0.7622 -0.5977 -0.3716
 2986TIP3   OH230448   5.510   0.462  15.823 -0.1362  0.9940 -0.4015
 2986TIP3    H130449   5.464   0.513  15.756 -0.2173  0.8753 -0.4362
 2986TIP3    H230450   5.496   0.371  15.798 -1.9988  0.8477  0.9545
 2987TIP3   OH230451   2.345   2.762   2.107  0.3895 -0.8221 -0.2592
 2987TIP3    H130452   2.346   2.668   2.086  0.6582 -0.4925 -1.8842
 2987TIP3    H230453   2.426   2.776   2.155 -0.4061 -1.6931  1.4074
 2988TIP3   OH230454   4.116   1.292   4.003 -0.3540 -0.1323  0.4149
 2988TIP3    H130455   4.028   1.265   4.030 -0.1301 -0.3244  0.9827
 2988TIP3    H230456   4.102   1.354   3.932 -0.8977 -1.8238 -1.0437
 2989TIP3   OH230457   4.417   2.842  12.327  0.2056  0.0767 -0.2466
 2989TIP3    H130458   4.325   2.870  12.328  0.2519  0.3087  1.4675
 2989TIP3    H230459   4.413   2.750  12.299 -0.4873  0.2714 -0.8098
 2990TIP3   OH230460   5.888   1.316   4.897  0.1542 -0.6198 -0.0070
 2990TIP3    H130461   5.840   1.316   4.979 -0.6149 -1.7093 -0.4402
 2990TIP3    H230462   5.933   1.401   4.896 -0.8036 -0.0691  0.9625
 2991TIP3   OH230463   4.561   3.971  16.028 -0.8075 -0.1642 -0.5438
 2991TIP3    H130464   4.539   3.915  16.102  1.2145 -1.4694 -0.8657
 2991TIP3    H230465   4.631   4.027  16.060  0.2782 -0.9297 -1.5140
 2992TIP3   OH230466   1.013   0.519   5.646 -0.4591  0.3731 -0.4176
 2992TIP3    H130467   1.031   0.531   5.740  1.8506  0.2378 -0.7763
 2992TIP3    H230468   0.986   0.427   5.639 -1.1378  0.5200  0.1712
 2993TIP3   OH230469   2.825   5.991   3.726 -0.3921  0.1758 -0.7652
 2993TIP3    H130470   2.905   5.939   3.730 -0.9094 -0.9667 -3.1223
 2993TIP3    H230471   2.771   5.959   3.798  0.3691 -0.6639 -0.5497
 2994TIP3   OH230472   2.623   0.943  12.876 -0.0130 -0.2828  0.5449
 2994TIP3    H130473   2.588   0.854  12.866 -0.2793 -0.0503 -0.7805
 2994TIP3    H230474   2.551   0.993  12.915 -0.4368 -0.2895 -0.2129
 2995TIP3   OH230475   1.917   2.887   3.217  0.1582 -0.0723  0.1111
 2995TIP3    H130476   1.944   2.904   3.126  0.4620  0.7264  0.3414
 2995TIP3    H230477   1.845   2.825   3.209  0.4774 -0.3608 -0.6571
 2996TIP3   OH230478   4.872   4.722  10.975  0.1991  0.3123 -0.0237
 2996TIP3    H130479   4.922   4.640  10.976 -0.4064 -0.0779 -0.6844
 2996TIP3    H230480   4.933   4.787  10.942  1.1201  0.4457  1.7905
 2997TIP3   OH230481   0.111   4.267  14.894  0.2319  0.0698  0.1555
 2997TIP3    H130482   0.029   4.225  14.918 -0.8107  0.4689 -2.4120
 2997TIP3    H230483   0.171   4.246  14.966 -2.1571  0.0186  2.2454
 2998TIP3   OH230484   0.261   4.768  16.886 -0.3668  0.4756  0.4985
 2998TIP3    H130485   0.337   4.819  16.858 -2.1858  2.3471 -1.4148
 2998TIP3    H230486   0.194   4.833  16.906 -1.3375 -1.0768  2.7797
 2999TIP3   OH230487   6.169   3.097  11.297 -0.6723 -0.1461  0.0659
 2999TIP3    H130488   6.169   3.108  11.393  1.8251  1.9000 -0.0395
 2999TIP3    H230489   6.077   3.102  11.273 -1.3557 -0.4211  2.3343
 3000TIP3   OH230490   1.154   0.886   2.210  0.2435 -0.6706 -0.2188
 3000TIP3    H130491   1.187   0.802   2.177 -0.5015 -0.8451 -0.5334
 3000TIP3    H230492   1.078   0.862   2.263 -0.7326 -0.1062 -1.3192
 3001TIP3   OH230493   1.625   4.463   0.857  0.0247 -0.1283  0.3013
 3001TIP3    H130494   1.677   4.386   0.834  0.0087 -0.1465  0.3249
 3001TIP3    H230495   1.690   4.533   0.871 -0.0358  0.1973 -0.9768
 3002TIP3   OH230496   3.205   0.694  12.064 -0.2829 -0.4899 -0.5625
 3002TIP3    H130497   3.208   0.781  12.024  0.3475 -0.4979 -0.5430
 3002TIP3    H230498   3.118   0.660  12.042 -0.2824 -0.1267 -1.1348
 3003TIP3   OH230499   5.794   0.028   2.481  0.2982  0.1522  0.0718
 3003TIP3    H130500   5.771  -0.055   2.522 -1.5677 -0.1236 -1.4182
 3003TIP3    H230501   5.750   0.094   2.535  1.4440  0.1910  1.0106
 3004TIP3   OH230502   6.248   5.803   3.243 -0.2222 -0.1985  0.1609
 3004TIP3    H130503   6.314   5.823   3.178  0.5431 -1.7502  0.4029
 3004TIP3    H230504   6.175   5.860   3.222  0.6386  0.5057 -1.0230
 3005TIP3   OH230505   0.354   6.097  16.556 -0.0977 -0.3977  0.6648
 3005TIP3    H130506   0.423   6.105  16.490  0.3453 -2.6931  0.7684
 3005TIP3    H230507   0.274   6.084  16.505 -0.3060  1.0589  0.5694
 3006TIP3   OH230508   6.106   2.590   0.689  0.4561  0.2444 -0.0432
 3006TIP3    H130509   6.131   2.626   0.604  0.6464  0.2017 -0.0062
 3006TIP3    H230510   6.168   2.629   0.751 -0.5343  1.3475  0.2870
 3007TIP3   OH230511   0.792   6.815  13.345  0.0068 -0.6256 -0.0030
 3007TIP3    H130512   0.867   6.755  13.343 -0.6492 -1.7249  2.8973
 3007TIP3    H230513   0.824   6.892  13.392  0.2761  0.5754 -2.0124
 3008TIP3   OH230514   4.487   6.480  16.269  0.6191 -0.6111  0.4879
 3008TIP3    H130515   4.559   6.417  16.259 -0.8150 -2.4690  1.2535
 3008TIP3    H230516   4.496   6.513  16.358  0.3693 -1.0461  0.6743
 3009TIP3   OH230517   4.303   3.810   5.423  0.2543 -0.6427  0.9025
 3009TIP3    H130518   4.366   3.808   5.495 -1.3402  0.6209  2.4098
 3009TIP3    H230519   4.355   3.838   5.347  1.9602 -1.9337  1.5215
 3010TIP3   OH230520   6.070   2.970  16.602  0.0470 -0.1033 -0.8062
 3010TIP3    H130521   6.115   3.051  16.577  1.5938 -1.2257 -1.9321
 3010TIP3    H230522   6.005   2.956  16.532 -0.2735  0.2050 -0.5679
 3011TIP3   OH230523   1.116   2.595   4.287  0.6814  0.9101  0.4256
 3011TIP3    H130524   1.152   2.672   4.242 -1.2543  1.9824  0.5940
 3011TIP3    H230525   1.084   2.539   4.216  1.1384  0.7693  0.3321
 3012TIP3   OH230526   0.334   0.139  15.403 -0.1171  0.0513  0.0298
 3012TIP3    H130527   0.423   0.146  15.438  0.0257 -3.6834  0.8442
 3012TIP3    H230528   0.331   0.202  15.332  1.9665  2.8148  2.1546
 3013TIP3   OH230529   2.066   1.384   3.493  0.0986  0.1460 -0.3620
 3013TIP3    H130530   2.108   1.408   3.576 -1.2095 -1.6651  0.8963
 3013TIP3    H230531   2.132   1.403   3.427  1.1402  1.7766  1.0587
 3014TIP3   OH230532   5.767   3.023   0.568  0.5015 -0.2315 -0.1224
 3014TIP3    H130533   5.735   2.990   0.652  0.4508 -2.0276 -0.8120
 3014TIP3    H230534   5.831   3.090   0.591  0.6474 -0.8464  1.3528
 3015TIP3   OH230535   4.867   5.295  10.432  0.6844 -0.2933  0.5873
 3015TIP3    H130536   4.946   5.253  10.396  0.8704  0.0735  0.5648
 3015TIP3    H230537   4.886   5.389  10.428  0.2415 -0.2032  0.5738
 3016TIP3   OH230538   3.372   2.432   4.150 -0.0180  0.3136 -0.4124
 3016TIP3    H130539   3.396   2.492   4.221 -0.3080  0.7208 -0.6525
 3016TIP3    H230540   3.358   2.348   4.193  0.7768  0.3250 -0.1257
 3017TIP3   OH230541   5.960   6.688  13.329  0.0952 -0.1652  0.4044
 3017TIP3    H130542   5.886   6.676  13.387  0.2993  1.4362  1.0611
 3017TIP3    H230543   6.037   6.666  13.382  0.2264  0.5038  0.5077
 3018TIP3   OH230544   6.365   2.679  15.536 -0.0640 -0.1068  0.3823
 3018TIP3    H130545   6.276   2.695  15.505  0.1716 -1.1785 -0.9198
 3018TIP3    H230546   6.355   2.665  15.630 -1.0722  1.1603  0.5043
 3019TIP3   OH230547   2.451   2.595   0.350 -0.0538  0.2148 -0.3838
 3019TIP3    H130548   2.480   2.670   0.401  1.6295 -1.2672  0.9664
 3019TIP3    H230549   2.360   2.582   0.375 -0.2038  1.4496 -0.2341
 3020TIP3   OH230550   2.594   5.333   3.478  0.1226 -0.5447 -0.7448
 3020TIP3    H130551   2.548   5.258   3.439 -0.7645 -0.1194 -0.5305
 3020TIP3    H230552   2.687   5.313   3.465 -0.1208 -0.6993 -2.5529
 3021TIP3   OH230553   4.308   2.968  13.452 -0.1159 -0.1510  0.3401
 3021TIP3    H130554   4.357   2.962  13.371  1.0285 -0.5619  1.0459
 3021TIP3    H230555   4.291   3.062  13.463 -1.1310 -0.1602 -0.8313
 3022TIP3   OH230556   6.259   3.916   5.012  0.3522 -0.1103 -0.0197
 3022TIP3    H130557   6.182   3.880   5.055  0.1242  0.2357 -0.1445
 3022TIP3    H230558   6.263   3.870   4.928 -0.2647  0.5657 -0.4215
 3023TIP3   OH230559   0.062   2.097   1.372 -0.0851  0.4796  0.3700
 3023TIP3    H130560   0.091   2.010   1.397 -1.2434  0.3903  1.4941
 3023TIP3    H230561  -0.030   2.086   1.350 -0.2068  1.3934  0.3876
 3024TIP3   OH230562   0.832   6.608   5.545 -0.0227  0.4211  0.8407
 3024TIP3    H130563   0.869   6.657   5.618  1.8268 -2.4582  2.0080
 3024TIP3    H230564   0.902   6.605   5.480 -0.3245 -0.1313  0.5258
 3025TIP3   OH230565   5.475   5.510  11.282  0.5487 -0.3111 -0.1713
 3025TIP3    H130566   5.395   5.555  11.254 -0.2688 -1.2891  0.5400
 3025TIP3    H230567   5.485   5.532  11.374  0.9396 -0.4341 -0.1808
 3026TIP3   OH230568   3.723   4.737  13.427 -0.1083 -0.2159  0.1360
 3026TIP3    H130569   3.713   4.827  13.458  0.6277  0.0492 -0.3613
 3026TIP3    H230570   3.781   4.696  13.491  1.6487  0.4140 -0.9831
 3027TIP3   OH230571   2.416   1.434   0.428  0.6285 -0.1994  0.4063
 3027TIP3    H130572   2.404   1.430   0.333 -1.3841 -1.1444  0.6559
 3027TIP3    H230573   2.503   1.472   0.439  0.5258  0.8388 -1.7993
 3028TIP3   OH230574   4.871   0.926  13.282 -0.2383  1.0114 -0.1026
 3028TIP3    H130575   4.826   0.907  13.364 -0.5640 -1.1549 -0.7325
 3028TIP3    H230576   4.807   0.974  13.230 -0.6029  0.9677  0.3029
 3029TIP3   OH230577   1.444   4.179   3.399  0.2960  0.1234 -0.2253
 3029TIP3    H130578   1.370   4.177   3.460  1.4843  1.7842  1.3760
 3029TIP3    H230579   1.483   4.092   3.406 -3.0893 -1.9472 -3.3618
 3030TIP3   OH230580   1.157   6.173   3.035  0.5741 -0.0401 -0.0411
 3030TIP3    H130581   1.215   6.124   3.094 -0.0462 -0.4957  0.1991
 3030TIP3    H230582   1.175   6.137   2.948  0.5974 -0.2356  0.0445
 3031TIP3   OH230583   0.215   3.218   0.778 -0.2048  0.4167  0.6879
 3031TIP3    H130584   0.269   3.295   0.760 -1.7589  1.0614 -1.6026
 3031TIP3    H230585   0.212   3.170   0.696 -1.8458 -0.4105  1.1852
 3032TIP3   OH230586   0.297   1.055   2.114 -0.2381 -0.0914  0.0568
 3032TIP3    H130587   0.261   1.010   2.191 -1.2531 -0.2144 -0.4753
 3032TIP3    H230588   0.322   0.985   2.054 -1.4607  0.0131 -0.6103
 3033TIP3   OH230589   1.869   0.372  16.222  0.0944 -1.2038  0.7527
 3033TIP3    H130590   1.909   0.429  16.156  0.0301 -1.3679  0.5679
 3033TIP3    H230591   1.873   0.422  16.303  0.8646 -1.3063  0.7789
 3034TIP3   OH230592   2.901   0.740   1.482 -0.0579 -0.3403 -0.3001
 3034TIP3    H130593   2.960   0.678   1.523 -0.7661 -1.2723 -0.6640
 3034TIP3    H230594   2.858   0.785   1.556  0.5116 -0.2212 -0.0395
 3035TIP3   OH230595   4.369   4.632   4.907  0.0023 -0.0383  0.2336
 3035TIP3    H130596   4.378   4.727   4.908  0.4462 -0.0433 -1.1736
 3035TIP3    H230597   4.460   4.600   4.909 -0.0800 -0.3834 -0.9626
 3036TIP3   OH230598   4.691   1.703   4.902  0.0333  0.9084  0.9695
 3036TIP3    H130599   4.786   1.712   4.905  0.2057  0.2128 -0.7883
 3036TIP3    H230600   4.677   1.612   4.873 -1.1361  1.2441  0.4131
 3037TIP3   OH230601   5.112   2.298   1.993 -0.0978  0.2789  0.4730
 3037TIP3    H130602   5.158   2.215   2.000  0.2539  0.5392  1.4716
 3037TIP3    H230603   5.044   2.294   2.060  0.5879  1.1894  1.2589
 3038TIP3   OH230604   3.705   3.189  16.869 -0.5674  0.2954 -0.4573
 3038TIP3    H130605   3.752   3.220  16.792 -1.0068  2.0209 -0.0661
 3038TIP3    H230606   3.710   3.093  16.863  0.7599  0.4108 -1.7701
 3039TIP3   OH230607   5.131   1.965  12.573 -0.1702  0.8201 -0.5656
 3039TIP3    H130608   5.086   1.914  12.505  0.6573  1.2672 -1.4747
 3039TIP3    H230609   5.208   2.001  12.529  0.8263  0.4738  0.8220
 3040TIP3   OH230610   2.646   3.127   3.081 -0.0762 -0.7397 -0.7311
 3040TIP3    H130611   2.684   3.053   3.129  0.4745  0.7423  1.2211
 3040TIP3    H230612   2.720   3.163   3.031  0.0140 -0.5987 -0.4966
 3041TIP3   OH230613   3.194   1.179  11.340  0.7894 -0.4547  0.5560
 3041TIP3    H130614   3.176   1.272  11.350  0.4716 -0.4934  0.3365
 3041TIP3    H230615   3.249   1.173  11.262 -3.5482 -0.9168 -2.8421
 3042TIP3   OH230616   2.692   0.367  11.072  0.1805 -0.4488 -0.1085
 3042TIP3    H130617   2.616   0.309  11.078 -0.7685  0.7747  0.1022
 3042TIP3    H230618   2.668   0.444  11.123  2.1462 -0.6193  1.1766
 3043TIP3   OH230619   0.638   5.690   2.215 -0.6227  0.3359 -0.5479
 3043TIP3    H130620   0.619   5.597   2.219  0.4365  0.0761 -1.1968
 3043TIP3    H230621   0.721   5.700   2.261 -1.3254  1.1558  0.5953
 3044TIP3   OH230622   5.912   4.989   2.619  0.1555 -0.3109 -0.6051
 3044TIP3    H130623   5.820   4.973   2.636  0.5052 -1.9856 -0.1651
 3044TIP3    H230624   5.913   5.045   2.541 -1.2028 -0.8048 -0.9954
 3045TIP3   OH230625   1.877   2.113   1.093 -0.2584  0.0257  0.1142
 3045TIP3    H130626   1.825   2.172   1.148  2.0282  1.1203  1.2423
 3045TIP3    H230627   1.852   2.026   1.123  0.0891  0.5743  2.1848
 3046TIP3   OH230628   5.861   2.490  15.661 -1.1150 -0.6368 -0.1384
 3046TIP3    H130629   5.912   2.422  15.617 -1.0864 -0.0216 -1.0993
 3046TIP3    H230630   5.920   2.528  15.726  0.7259  1.9368 -3.0411
 3047TIP3   OH230631   6.549   1.201   3.011  0.5514 -0.3146  0.2500
 3047TIP3    H130632   6.528   1.162   3.096  3.0653  1.4043  1.7884
 3047TIP3    H230633   6.547   1.295   3.027  2.7400  0.0201 -1.1097
 3048TIP3   OH230634   5.957   6.577  15.811 -0.4348  0.2295 -0.5719
 3048TIP3    H130635   5.974   6.671  15.806  0.9303  0.1133  1.1289
 3048TIP3    H230636   6.037   6.540  15.846 -1.4293 -1.4216  0.0694
 3049TIP3   OH230637   0.956   6.531   2.983  0.5080  0.2808  0.3715
 3049TIP3    H130638   0.941   6.440   3.008 -0.5549  0.4712  0.4605
 3049TIP3    H230639   1.008   6.567   3.055  0.3306 -0.0658  0.6793
 3050TIP3   OH230640   3.304   4.531   1.659 -0.6657 -0.0083 -0.3553
 3050TIP3    H130641   3.281   4.528   1.752  0.2846 -0.6722 -0.1200
 3050TIP3    H230642   3.304   4.440   1.631 -1.5567  0.2287 -1.1802
 3051TIP3   OH230643   2.328   4.172   4.956  0.8699  0.1814  0.1458
 3051TIP3    H130644   2.360   4.115   4.887  0.3608 -0.9911  0.8454
 3051TIP3    H230645   2.233   4.158   4.956  0.7749  0.7927  0.5244
 3052TIP3   OH230646   6.586   6.775   5.053 -0.0410  0.2357  0.4543
 3052TIP3    H130647   6.512   6.833   5.069  0.2956  0.7600  0.1566
 3052TIP3    H230648   6.631   6.814   4.978 -0.9098 -1.4669 -1.0437
 3053TIP3   OH230649   4.331   3.313   4.908 -0.6748  0.7651  0.4157
 3053TIP3    H130650   4.279   3.329   4.829 -1.5978 -0.6906  0.6898
 3053TIP3    H230651   4.281   3.355   4.978 -0.4592  1.0652  0.3877
 3054TIP3   OH230652   3.639   2.790   4.195 -0.0676 -0.0687  0.0365
 3054TIP3    H130653   3.664   2.744   4.275 -1.8826 -2.1388 -0.5176
 3054TIP3    H230654   3.566   2.846   4.221  0.7089  0.8720  0.2406
 3055TIP3   OH230655   4.761   0.005   1.357 -0.2529 -0.1622  0.4693
 3055TIP3    H130656   4.745  -0.069   1.416 -1.9076 -3.0172 -3.1209
 3055TIP3    H230657   4.853  -0.005   1.331 -0.0690 -0.0685  1.0680
 3056TIP3   OH230658   6.318   2.433  13.043 -0.4612  0.1746 -0.3439
 3056TIP3    H130659   6.406   2.416  13.009  0.5147  2.0323  1.0358
 3056TIP3    H230660   6.298   2.521  13.013 -0.4329  1.0518  1.9846
 3057TIP3   OH230661   5.924   3.167   1.034  0.0510 -0.9878 -0.3294
 3057TIP3    H130662   5.965   3.173   0.948  0.6733  2.5075  0.0257
 3057TIP3    H230663   5.988   3.207   1.093 -2.6339  2.2880  0.6749
 3058TIP3   OH230664   2.864   2.668  13.741 -0.5317 -0.2662 -0.1747
 3058TIP3    H130665   2.940   2.695  13.792 -0.1818 -1.0344 -0.2662
 3058TIP3    H230666   2.900   2.638  13.657 -1.0192  0.1805 -0.5568
 3059TIP3   OH230667   0.784   5.429  12.102 -0.1194 -0.5670 -0.4259
 3059TIP3    H130668   0.852   5.370  12.134 -0.1255  0.5611  1.8612
 3059TIP3    H230669   0.705   5.375  12.097  0.0081 -0.9201  1.0426
 3060TIP3   OH230670   4.464   2.717  15.439 -0.1997  0.2491  0.2056
 3060TIP3    H130671   4.546   2.750  15.477 -0.0304  1.0890 -0.8355
 3060TIP3    H230672   4.409   2.695  15.514  0.6315  0.5815  0.9193
 3061TIP3   OH230673   3.404   6.769  14.218  0.2669 -0.1707  0.2043
 3061TIP3    H130674   3.449   6.724  14.289 -1.7985  0.4156  2.0061
 3061TIP3    H230675   3.443   6.856  14.216  0.6813 -0.3524  0.2606
 3062TIP3   OH230676   4.354   4.125   3.122  0.0560  0.0261 -0.2139
 3062TIP3    H130677   4.448   4.109   3.108  0.5814 -1.6665  3.8625
 3062TIP3    H230678   4.312   4.045   3.091 -0.2836  1.0499 -2.6873
 3063TIP3   OH230679   1.794   5.404  11.050 -0.5426  0.0803  0.1252
 3063TIP3    H130680   1.854   5.427  11.121 -0.7343 -0.6883  0.5457
 3063TIP3    H230681   1.849   5.362  10.984 -0.4570  0.3115  0.0457
 3064TIP3   OH230682   3.460   4.677  14.202 -0.0231  0.0806  0.1319
 3064TIP3    H130683   3.545   4.633  14.199 -0.1602 -0.2480  0.8592
 3064TIP3    H230684   3.469   4.752  14.143  0.8666  0.2108  0.4265
 3065TIP3   OH230685   0.052   1.796   4.013 -0.0633 -0.3799 -0.3311
 3065TIP3    H130686   0.108   1.874   4.005 -1.0511  0.2842 -1.0889
 3065TIP3    H230687   0.036   1.787   4.107  0.8053 -0.2185 -0.1592
 3066TIP3   OH230688   4.798   5.483  12.875 -0.1152 -0.2988  0.9024
 3066TIP3    H130689   4.752   5.563  12.847  1.2961  1.0655  2.2859
 3066TIP3    H230690   4.841   5.451  12.796 -0.3333  0.5660  0.4188
 3067TIP3   OH230691   0.465   6.401  15.007 -0.2227  0.0267 -0.2669
 3067TIP3    H130692   0.413   6.357  15.075 -0.8957 -1.1036 -1.4705
 3067TIP3    H230693   0.554   6.399  15.040 -0.6022 -0.0849  0.7901
 3068TIP3   OH230694   5.609   2.069  13.691 -0.2151 -0.1738 -0.5144
 3068TIP3    H130695   5.530   2.093  13.644  0.0356 -1.5496 -1.7305
 3068TIP3    H230696   5.590   2.087  13.783 -1.3124  1.0722 -0.9702
 3069TIP3   OH230697   2.493   2.105   5.541  0.5489  0.4509 -0.1304
 3069TIP3    H130698   2.479   2.198   5.522 -0.7364  0.2726 -0.1254
 3069TIP3    H230699   2.449   2.059   5.470  1.2928 -0.1656 -0.2024
 3070TIP3   OH230700   1.991   4.891   2.454 -0.3149  0.5556  0.4088
 3070TIP3    H130701   1.965   4.864   2.366 -0.1908  0.1901  0.4849
 3070TIP3    H230702   1.971   4.985   2.456  0.4119  0.7405 -0.2760
 3071TIP3   OH230703   0.892   5.821  12.072  0.4065 -0.1678  0.2791
 3071TIP3    H130704   0.895   5.762  12.147  0.2402 -0.4341  0.0751
 3071TIP3    H230705   0.888   5.909  12.111 -0.1143 -0.3236  0.5852
 3072TIP3   OH230706   1.163   6.338  16.902 -0.6291  0.0030 -0.7679
 3072TIP3    H130707   1.102   6.344  16.829 -2.6266  0.8136  0.8615
 3072TIP3    H230708   1.108   6.342  16.980  1.4532 -0.1488  0.8157
 3073TIP3   OH230709   2.637   2.083  16.448 -0.5162 -0.1728  0.1383
 3073TIP3    H130710   2.545   2.064  16.462 -0.9276  1.2254 -0.4772
 3073TIP3    H230711   2.659   2.148  16.516 -0.5370  0.9864 -0.9250
 3074TIP3   OH230712   2.760   4.951   0.735  0.1105  0.7966  0.0971
 3074TIP3    H130713   2.771   5.034   0.689 -0.1748  0.9396  0.2809
 3074TIP3    H230714   2.667   4.948   0.757  0.2228  0.6790  0.5679
 3075TIP3   OH230715   1.351   4.776  11.538  0.2568 -0.3871 -0.3156
 3075TIP3    H130716   1.362   4.725  11.457 -1.6157 -2.1069  0.4261
 3075TIP3    H230717   1.382   4.718  11.607 -0.0810  0.2568  0.3844
 3076TIP3   OH230718   6.158   3.703  14.837  0.5222 -0.5770 -0.1341
 3076TIP3    H130719   6.108   3.742  14.765  1.5329  1.0942  0.0244
 3076TIP3    H230720   6.120   3.615  14.847 -1.4698  0.1318 -0.8850
 3077TIP3   OH230721   4.207   3.493  16.660  0.2634 -0.4835 -0.2947
 3077TIP3    H130722   4.118   3.505  16.693  0.8693  0.2183  1.1460
 3077TIP3    H230723   4.214   3.553  16.587 -0.2325 -0.0549  0.0044
 3078TIP3   OH230724   5.931   6.207  16.271 -0.0174 -0.2927  0.8235
 3078TIP3    H130725   5.983   6.182  16.348 -0.3679 -0.4524  1.0098
 3078TIP3    H230726   5.933   6.130  16.215  1.7121  0.3877 -0.1600
 3079TIP3   OH230727   4.600   2.315  16.355 -0.1808  0.2618  0.0795
 3079TIP3    H130728   4.677   2.371  16.350  1.1713 -1.5304 -0.1700
 3079TIP3    H230729   4.556   2.326  16.271  2.4005 -2.1354 -1.7509
 3080TIP3   OH230730   5.201   3.127  13.280  0.3458  0.0830  0.2866
 3080TIP3    H130731   5.122   3.107  13.230  0.0049  0.2884  0.7381
 3080TIP3    H230732   5.193   3.074  13.359  1.4230 -1.1084 -0.3581
 3081TIP3   OH230733   4.414   4.849   2.658  0.7777  0.2994  0.2310
 3081TIP3    H130734   4.332   4.845   2.708 -0.2177 -1.3081 -1.4159
 3081TIP3    H230735   4.401   4.921   2.596  0.8097  0.3417  0.2727
 3082TIP3   OH230736   2.242   1.016   1.992 -0.6605 -0.3215 -0.5299
 3082TIP3    H130737   2.325   1.058   2.016  0.6008 -2.3185 -1.0583
 3082TIP3    H230738   2.210   0.978   2.074 -1.7313  1.4352 -0.0801
 3083TIP3   OH230739   6.272   0.183  12.609  0.0371 -0.4733  0.0772
 3083TIP3    H130740   6.311   0.165  12.694 -0.8101  0.7130  0.7408
 3083TIP3    H230741   6.297   0.273  12.588  0.6045 -0.8900 -1.1486
 3084TIP3   OH230742   2.311   0.928  12.733  0.1979 -0.3732  0.3482
 3084TIP3    H130743   2.341   1.000  12.789 -1.3188  1.4485 -1.0352
 3084TIP3    H230744   2.233   0.895  12.778  0.0751 -0.1806  0.2794
 3085TIP3   OH230745   4.805   1.436  15.195  0.1316 -0.1565 -0.0395
 3085TIP3    H130746   4.796   1.396  15.281 -0.4143 -1.2650 -0.5965
 3085TIP3    H230747   4.886   1.486  15.200  0.4935 -0.8137  0.8862
 3086TIP3   OH230748   1.827   1.522  11.348  0.0588  0.5372  0.3010
 3086TIP3    H130749   1.802   1.589  11.412  0.5962  1.4628 -0.4306
 3086TIP3    H230750   1.895   1.471  11.391  1.3517  1.9650  0.0403
 3087TIP3   OH230751   5.007   0.540  13.752 -0.1347 -0.0666 -0.4252
 3087TIP3    H130752   5.016   0.465  13.693 -0.9500 -0.1446 -0.4632
 3087TIP3    H230753   5.091   0.587  13.745 -0.5902  0.5542 -2.5125
 3088TIP3   OH230754   4.872   0.701  11.784 -0.5100 -0.3445  0.4568
 3088TIP3    H130755   4.945   0.647  11.816 -0.3115 -1.3795 -1.5684
 3088TIP3    H230756   4.796   0.643  11.787 -0.2616 -0.8621 -1.9065
 3089TIP3   OH230757   0.557   2.842  11.168  0.1539 -0.0543  0.2568
 3089TIP3    H130758   0.583   2.889  11.247  0.2200 -0.3310  0.3999
 3089TIP3    H230759   0.633   2.788  11.146 -0.9593 -2.4477  1.8426
 3090TIP3   OH230760   4.579   5.856   1.117  0.1848  0.2607  0.1223
 3090TIP3    H130761   4.532   5.868   1.035 -0.9541  1.7044  0.9384
 3090TIP3    H230762   4.515   5.814   1.175  0.9493 -0.6629  0.3331
 3091TIP3   OH230763   4.809   6.424   4.045  0.0379  0.1201  0.2276
 3091TIP3    H130764   4.877   6.416   3.978 -0.4981  0.6503 -0.3917
 3091TIP3    H230765   4.728   6.436   3.996 -0.7169 -1.7405  0.9190
 3092TIP3   OH230766   3.084   6.402   3.650  0.0355 -0.0845  0.0065
 3092TIP3    H130767   3.049   6.314   3.663  0.4229 -0.6181 -2.2055
 3092TIP3    H230768   3.007   6.454   3.625 -0.3251  0.4310  2.0205
 3093TIP3   OH230769   1.466   0.417  11.655  0.1281 -0.7960  0.3855
 3093TIP3    H130770   1.384   0.367  11.665 -0.2520 -0.2069  0.2390
 3093TIP3    H230771   1.476   0.427  11.560 -0.5880  0.6764  0.4357
 3094TIP3   OH230772   4.546   1.381  13.144 -0.2561 -0.8599 -0.2945
 3094TIP3    H130773   4.516   1.428  13.222  3.8818 -1.0354  1.6794
 3094TIP3    H230774   4.466   1.345  13.106 -2.9932  2.8110  1.3305
 3095TIP3   OH230775   1.053   1.093   0.477 -0.5737  0.5324 -0.1300
 3095TIP3    H130776   0.982   1.036   0.506  0.6925 -0.9306  0.2056
 3095TIP3    H230777   1.069   1.151   0.550 -2.2366  1.7423 -0.6686
 3096TIP3   OH230778   4.422   5.846  16.377 -0.5982 -0.3007  0.6784
 3096TIP3    H130779   4.362   5.832  16.451 -0.8742 -1.5887  0.2512
 3096TIP3    H230780   4.365   5.846  16.300 -0.3916  1.7171  0.4929
 3097TIP3   OH230781   6.713   6.417  16.012 -0.1217  0.2964 -0.5947
 3097TIP3    H130782   6.668   6.496  15.981 -0.7258 -0.0036 -0.5044
 3097TIP3    H230783   6.676   6.346  15.959 -0.5989 -0.1145  0.2588
 3098TIP3   OH230784   6.678   3.463  16.665  0.0967 -0.3012 -0.5806
 3098TIP3    H130785   6.607   3.444  16.727  1.2934  0.1006  0.9780
 3098TIP3    H230786   6.662   3.554  16.639 -0.2493 -0.3758 -0.6361
 3099TIP3   OH230787   3.354   4.392  14.495 -0.5062  0.1482  0.1006
 3099TIP3    H130788   3.323   4.390  14.586 -0.7001 -0.5626  0.0256
 3099TIP3    H230789   3.399   4.308  14.484 -2.2084 -0.6777 -1.0408
 3100TIP3   OH230790   3.628   5.509   4.083  0.0718  0.2625 -0.2827
 3100TIP3    H130791   3.533   5.504   4.089  0.0957 -0.2594 -0.3135
 3100TIP3    H230792   3.658   5.419   4.094  0.5593  0.4154 -0.3225
 3101TIP3   OH230793   4.671   5.550  11.842 -0.7200  0.1304 -0.5117
 3101TIP3    H130794   4.698   5.593  11.761  0.8408 -0.6087 -0.4249
 3101TIP3    H230795   4.606   5.486  11.815 -1.4195  1.0073 -0.9401
 3102TIP3   OH230796   3.258   3.911   4.010 -0.0933 -0.0513  0.0395
 3102TIP3    H130797   3.299   3.963   3.941 -1.0643 -1.4045 -1.6310
 3102TIP3    H230798   3.216   3.839   3.964 -2.9025  0.3089  1.7812
 3103TIP3   OH230799   0.021   3.283  12.595 -0.5336  0.0979  0.2198
 3103TIP3    H130800   0.060   3.347  12.535 -1.0593 -0.6506 -0.9623
 3103TIP3    H230801   0.096   3.235  12.631 -0.1992  0.7025  0.3501
 3104TIP3   OH230802   6.850   5.883   1.504 -0.3498  0.2113 -0.4443
 3104TIP3    H130803   6.809   5.939   1.570 -1.1594  0.2161 -0.9448
 3104TIP3    H230804   6.814   5.796   1.520  0.2969 -0.0172 -0.1824
 3105TIP3   OH230805   0.823   5.822   5.903  0.1253  0.6580 -0.2198
 3105TIP3    H130806   0.821   5.764   5.828  0.3721 -0.2363  0.4472
 3105TIP3    H230807   0.891   5.886   5.882  2.3841 -1.3444  0.4688
 3106TIP3   OH230808   2.102   4.513  12.547  0.3370 -0.2791 -0.4274
 3106TIP3    H130809   2.170   4.578  12.527 -0.8764  1.5200  0.9958
 3106TIP3    H230810   2.024   4.545  12.502 -0.6189  0.0457  1.3437
 3107TIP3   OH230811   3.481   2.063   4.250 -0.3033  0.0767  0.2791
 3107TIP3    H130812   3.519   2.109   4.324  0.1381  0.8544 -0.4261
 3107TIP3    H230813   3.525   1.978   4.249 -1.3361 -0.5081  1.7607
 3108TIP3   OH230814   1.170   1.121  16.104 -0.0900 -0.1476 -0.1825
 3108TIP3    H130815   1.173   1.057  16.176  0.2669 -0.2804 -0.3168
 3108TIP3    H230816   1.079   1.117  16.073 -0.6510  0.9646  1.2041
 3109TIP3   OH230817   2.935   5.302   0.088  0.6997  0.4256  0.0075
 3109TIP3    H130818   2.920   5.259   0.173  2.9676 -1.4942 -0.4453
 3109TIP3    H230819   2.849   5.303   0.046 -0.3898  1.0347  2.1287
 3110TIP3   OH230820   2.166   0.425  15.846  0.2216  0.4493 -0.1820
 3110TIP3    H130821   2.174   0.351  15.907 -1.2567  0.9015  0.6137
 3110TIP3    H230822   2.163   0.384  15.760 -0.0234 -0.3999  0.2108
 3111TIP3   OH230823   4.735   2.780   3.231  0.0940  0.1656 -0.0259
 3111TIP3    H130824   4.703   2.866   3.205  2.0231  1.0371  0.2865
 3111TIP3    H230825   4.683   2.757   3.308 -1.8741  0.0560 -1.3155
 3112TIP3   OH230826   1.561   5.650  12.602 -0.6637  0.6612  0.2630
 3112TIP3    H130827   1.517   5.730  12.632 -1.6832 -0.4322  1.8592
 3112TIP3    H230828   1.649   5.657  12.639 -0.2602  1.6899 -0.8261
 3113TIP3   OH230829   3.067   0.319  12.538  0.3369  0.1124  0.0554
 3113TIP3    H130830   3.000   0.378  12.503 -0.0749 -0.7332 -0.6305
 3113TIP3    H230831   3.031   0.232  12.523  1.7721 -0.3807 -0.7024
 3114TIP3   OH230832   5.196   0.539  16.744 -0.1006  0.2909  0.2301
 3114TIP3    H130833   5.190   0.601  16.817 -2.8306  0.6957 -0.2080
 3114TIP3    H230834   5.171   0.455  16.782  3.5856 -0.6990  0.8196
 3115TIP3   OH230835   0.162   1.511   2.234 -0.5624  0.0302  0.2263
 3115TIP3    H130836   0.238   1.569   2.228 -1.5503  1.3356 -0.3252
 3115TIP3    H230837   0.147   1.500   2.328  0.0323  0.1424  0.3356
 3116TIP3   OH230838   3.570   6.551   5.705 -0.7983 -0.0513 -0.2779
 3116TIP3    H130839   3.555   6.587   5.618  1.2530 -1.3847 -1.2709
 3116TIP3    H230840   3.599   6.626   5.758 -3.1153  0.9826 -0.3706
 3117TIP3   OH230841   2.484   4.919  15.990 -0.4352  0.3936 -0.0311
 3117TIP3    H130842   2.553   4.882  16.045 -0.3078  1.8033  0.7996
 3117TIP3    H230843   2.458   4.847  15.932  0.1303 -0.8252  1.1877
 3118TIP3   OH230844   6.672   3.150  15.178 -0.4243 -0.0960  0.0334
 3118TIP3    H130845   6.584   3.161  15.143 -0.6084  2.6262  1.0798
 3118TIP3    H230846   6.728   3.199  15.118  0.4504 -1.8948 -0.6847
 3119TIP3   OH230847   1.257   0.640  11.769 -0.0812 -0.0988 -0.5418
 3119TIP3    H130848   1.329   0.656  11.829 -0.1085 -1.2007 -0.2010
 3119TIP3    H230849   1.193   0.591  11.820  0.4565 -2.2293 -1.7714
 3120TIP3   OH230850   2.434   1.080  13.684 -0.5027 -0.4244  0.2164
 3120TIP3    H130851   2.466   1.163  13.719 -0.1837  0.8580 -2.8314
 3120TIP3    H230852   2.513   1.034  13.654 -0.7178 -1.6897  1.4671
 3121TIP3   OH230853   3.351   4.425  13.264 -0.3267 -0.1967  0.7430
 3121TIP3    H130854   3.433   4.421  13.215 -1.1597 -1.0147 -0.6497
 3121TIP3    H230855   3.361   4.358  13.332  1.3250  1.7811  2.6201
 3122TIP3   OH230856   5.741   3.262   4.909  0.6342  0.5190 -0.2935
 3122TIP3    H130857   5.674   3.227   4.967  2.1209 -0.6399  0.7744
 3122TIP3    H230858   5.725   3.218   4.825  1.2130 -1.2107  0.4739
 3123TIP3   OH230859   5.561   0.307   5.659 -0.0062  0.7958 -0.3627
 3123TIP3    H130860   5.549   0.361   5.580 -0.3707  0.9971 -0.1721
 3123TIP3    H230861   5.526   0.361   5.730  1.2311  1.0257  0.0911
 3124TIP3   OH230862   5.455   1.799   3.235  0.3686  0.0432  0.0285
 3124TIP3    H130863   5.393   1.728   3.252 -0.7714  1.0367  0.1709
 3124TIP3    H230864   5.472   1.837   3.321  1.5053 -0.4518  0.0438
 3125TIP3   OH230865   3.894   2.598  11.494  0.6783  0.6823 -0.8113
 3125TIP3    H130866   3.949   2.528  11.459  1.2294  0.7586 -0.1237
 3125TIP3    H230867   3.808   2.582  11.456  0.1003 -1.9252  1.2986
 3126TIP3   OH230868   0.499   2.327  11.453  0.5257  0.3698  0.1327
 3126TIP3    H130869   0.556   2.267  11.405  0.3469  0.4948 -0.2319
 3126TIP3    H230870   0.528   2.414  11.427  0.0151  0.4341 -0.2345
 3127TIP3   OH230871   0.838   6.206  16.283  0.8828  0.3338 -0.6809
 3127TIP3    H130872   0.906   6.172  16.224  1.2227 -1.9829  0.9096
 3127TIP3    H230873   0.879   6.205  16.369 -0.8460 -0.1612  0.1703
 3128TIP3   OH230874   3.056   1.750  16.783  0.1974 -0.5560 -0.4483
 3128TIP3    H130875   3.075   1.710  16.868 -1.1607  0.2718  0.2883
 3128TIP3    H230876   2.971   1.793  16.795  1.1575  1.7946 -1.4367
 3129TIP3   OH230877   0.004   2.458  12.752 -0.6710 -0.1405  0.2539
 3129TIP3    H130878   0.045   2.451  12.666 -1.5955  2.4131 -0.4867
 3129TIP3    H230879   0.072   2.432  12.814  1.0696  1.0290 -1.0821
 3130TIP3   OH230880   4.101   2.195   4.579 -0.0818 -0.1553  0.0858
 3130TIP3    H130881   4.124   2.178   4.487 -3.7866 -2.4670 -0.6491
 3130TIP3    H230882   4.126   2.115   4.625 -0.5905 -0.0559  0.5436
 3131TIP3   OH230883   2.061   4.153   4.934  0.3769  0.7708  0.2763
 3131TIP3    H130884   2.006   4.075   4.929  0.9401  0.4304 -1.0390
 3131TIP3    H230885   2.010   4.222   4.890 -0.4023  1.3517  2.0087
 3132TIP3   OH230886   4.416   2.202  12.829  0.6205  0.0554  0.3174
 3132TIP3    H130887   4.415   2.249  12.913  2.6853 -0.6839  0.8168
 3132TIP3    H230888   4.460   2.262  12.769  0.8786 -0.1712  0.2771
 3133TIP3   OH230889   0.285   6.310  10.779 -0.4875 -0.4607 -0.1365
 3133TIP3    H130890   0.196   6.288  10.752 -0.2913 -0.6312 -0.6577
 3133TIP3    H230891   0.295   6.267  10.864 -0.8522 -0.5646 -0.1423
 3134TIP3   OH230892   4.661   5.069   4.877 -0.1879  0.1340 -0.0498
 3134TIP3    H130893   4.749   5.042   4.852 -0.1179  2.1339 -2.2913
 3134TIP3    H230894   4.668   5.086   4.971  1.3523 -1.2842  0.1439
 3135TIP3   OH230895   0.774   4.357  16.220  0.2785 -0.5385  0.3663
 3135TIP3    H130896   0.771   4.370  16.125  0.1584 -1.2384  0.2682
 3135TIP3    H230897   0.833   4.426  16.252 -0.2007  0.1185 -0.1322
 3136TIP3   OH230898   3.932   6.175   3.467 -0.2416  0.6347 -0.2462
 3136TIP3    H130899   3.840   6.174   3.494 -0.3475 -1.0087 -0.5913
 3136TIP3    H230900   3.935   6.118   3.390  1.0350  0.8885 -0.4057
 3137TIP3   OH230901   1.437   1.909  11.248  0.0443 -0.9812  0.2124
 3137TIP3    H130902   1.455   1.832  11.195  1.6492  0.0543 -0.8460
 3137TIP3    H230903   1.518   1.961  11.244 -0.4329  0.0242  2.1684
 3138TIP3   OH230904   6.631   6.418   1.728 -0.4072  0.6562  0.5136
 3138TIP3    H130905   6.592   6.331   1.742  0.0218  0.1820 -1.0372
 3138TIP3    H230906   6.722   6.408   1.756 -0.2207  0.4452 -0.1544
 3139TIP3   OH230907   1.454   0.204   1.833 -0.3808 -0.3237  0.0822
 3139TIP3    H130908   1.495   0.152   1.902  1.0243 -0.3708 -0.7535
 3139TIP3    H230909   1.526   0.251   1.791 -1.4294  1.1410 -0.1737
 3140TIP3   OH230910   4.945   3.991  11.846 -0.5847  0.3934 -0.6835
 3140TIP3    H130911   5.023   3.980  11.900 -1.5513 -0.6854  0.5531
 3140TIP3    H230912   4.969   3.954  11.761  0.6430  1.2285 -0.7248
 3141TIP3   OH230913   5.950   0.201  14.994 -0.4298 -0.1036 -0.1225
 3141TIP3    H130914   6.012   0.253  15.045 -0.6928 -1.2049  1.3882
 3141TIP3    H230915   5.880   0.263  14.972 -0.2183  0.4559  0.7125
 3142TIP3   OH230916   1.739   2.317   4.547  0.1175 -0.0175 -0.6347
 3142TIP3    H130917   1.657   2.366   4.555  1.0173  1.2580  4.1291
 3142TIP3    H230918   1.712   2.226   4.540 -1.7961  0.3532  1.0632
 3143TIP3   OH230919   6.637   6.027  13.368 -0.2882  0.0017  0.3608
 3143TIP3    H130920   6.716   6.072  13.340  0.0988 -0.8515  0.0420
 3143TIP3    H230921   6.624   6.055  13.459  1.2615 -1.0312  0.9378
 3144TIP3   OH230922   3.533   0.256  13.520 -0.2564  0.1261 -0.4427
 3144TIP3    H130923   3.540   0.185  13.457 -1.5058 -0.1956 -0.2295
 3144TIP3    H230924   3.588   0.228  13.594  1.1809  0.4930 -1.3404
 3145TIP3   OH230925   2.714   0.066   6.212  1.1164 -0.1388 -0.1739
 3145TIP3    H130926   2.687   0.145   6.166  3.6090  0.9154  0.0282
 3145TIP3    H230927   2.656  -0.002   6.178 -0.2699  1.5037 -1.2916
 3146TIP3   OH230928   2.543   1.291  15.986  0.3785  0.6996 -0.3121
 3146TIP3    H130929   2.542   1.208  15.939  3.2174 -0.8005  1.9874
 3146TIP3    H230930   2.462   1.293  16.035  0.1465 -0.5760 -0.6299
 3147TIP3   OH230931   5.795   2.059   2.971 -1.1691  0.1545  0.5721
 3147TIP3    H130932   5.753   1.982   2.934 -1.5388  0.9748 -0.7764
 3147TIP3    H230933   5.793   2.045   3.066 -0.5666 -1.8148  0.3361
 3148TIP3   OH230934   0.276   6.197   1.286  0.1205 -0.9013 -0.1618
 3148TIP3    H130935   0.212   6.128   1.299  1.1917 -1.6432  1.5371
 3148TIP3    H230936   0.228   6.278   1.303 -0.2666 -1.4732  1.7710
 3149TIP3   OH230937   3.241   3.451   1.137 -0.2111  0.2637  0.0482
 3149TIP3    H130938   3.252   3.496   1.054  0.0768  1.7423  0.8525
 3149TIP3    H230939   3.158   3.483   1.172 -1.3869 -1.9312 -0.5923
 3150TIP3   OH230940   6.228   5.752  16.793 -0.4055 -0.1551  0.1641
 3150TIP3    H130941   6.202   5.795  16.875  1.1041  0.5229  0.3417
 3150TIP3    H230942   6.286   5.681  16.821  2.1932  1.6119 -0.3112
 3151TIP3   OH230943   1.788   1.218   3.824 -0.5369  0.3451 -0.2809
 3151TIP3    H130944   1.878   1.251   3.832 -1.3479  2.2851  1.9120
 3151TIP3    H230945   1.787   1.140   3.879  0.2930 -0.9556 -2.0269
 3152TIP3   OH230946   4.631   0.876   0.183 -0.0601  0.4779  0.1755
 3152TIP3    H130947   4.536   0.887   0.193  0.1194  1.6164  0.8192
 3152TIP3    H230948   4.661   0.960   0.149  0.8508  0.4788  0.9465
 3153TIP3   OH230949   1.904   2.379  14.938 -0.6653  0.1238  0.0362
 3153TIP3    H130950   1.837   2.362  14.871 -1.0435 -0.3432  0.5254
 3153TIP3    H230951   1.976   2.320  14.915 -0.3427  0.7479 -0.5900
 3154TIP3   OH230952   4.228   2.640   3.859 -0.0596  0.7648  0.0614
 3154TIP3    H130953   4.266   2.686   3.933 -1.4583  1.6002  0.2989
 3154TIP3    H230954   4.134   2.656   3.867 -1.0792 -4.1418  1.6221
 3155TIP3   OH230955   0.358   3.060  15.793 -0.0124  0.4953  0.5102
 3155TIP3    H130956   0.412   3.041  15.870  0.0559  0.8924  0.5655
 3155TIP3    H230957   0.337   3.153  15.801  2.6315  1.3966 -1.5683
 3156TIP3   OH230958   4.923   0.124  16.807 -0.2593  0.4562 -0.3287
 3156TIP3    H130959   4.896   0.041  16.767  1.4999 -0.8803  1.1255
 3156TIP3    H230960   4.870   0.130  16.887  0.4737  0.0906  0.1967
 3157TIP3   OH230961   3.678   1.881  15.798 -0.2082  0.5218  0.6657
 3157TIP3    H130962   3.624   1.923  15.865  0.0624 -0.0527  1.2552
 3157TIP3    H230963   3.752   1.846  15.846  0.2900  0.6126 -0.0284
 3158TIP3   OH230964   5.061   1.716  12.455  0.4504  0.2199 -0.4402
 3158TIP3    H130965   5.146   1.735  12.415 -0.3944  0.4118 -2.2236
 3158TIP3    H230966   5.000   1.710  12.381 -0.8496 -1.2905  0.6744
 3159TIP3   OH230967   0.948   2.043  11.417  0.1759  0.4559 -0.1787
 3159TIP3    H130968   0.912   1.961  11.384  3.1940 -0.7461 -0.8315
 3159TIP3    H230969   0.971   2.025  11.508 -1.6206  1.5260  0.5463
 3160TIP3   OH230970   3.038   5.436  10.538 -0.0479 -0.3783 -0.4029
 3160TIP3    H130971   3.121   5.459  10.579  0.3063 -1.3153 -0.5755
 3160TIP3    H230972   3.012   5.515  10.490  1.6135 -0.6297 -1.7868
 3161TIP3   OH230973   0.906   4.163  11.598 -0.1777  0.4932  0.0747
 3161TIP3    H130974   0.817   4.160  11.563 -1.3456  0.6055  2.8149
 3161TIP3    H230975   0.921   4.255  11.621  0.8550  0.5635 -0.8047
 3162TIP3   OH230976   0.723   6.214   3.621 -0.0405 -0.2545 -0.7365
 3162TIP3    H130977   0.638   6.258   3.619  0.6718  1.1450 -1.0734
 3162TIP3    H230978   0.756   6.229   3.709 -1.1058 -2.8133  0.2221
 3163TIP3   OH230979   6.436   2.609   0.239  0.1234 -0.5957  0.3292
 3163TIP3    H130980   6.511   2.666   0.247  0.8476 -1.4899  0.0937
 3163TIP3    H230981   6.430   2.563   0.323 -1.5505  1.0875  1.2034
 3164TIP3   OH230982   0.672   3.187  12.731  0.3753 -0.1133  0.2348
 3164TIP3    H130983   0.660   3.233  12.648 -1.5438  1.1407  1.1445
 3164TIP3    H230984   0.693   3.097  12.706 -0.5423  0.1460 -1.5966
 3165TIP3   OH230985   2.808   0.656  16.307  0.0772 -0.6327 -0.1187
 3165TIP3    H130986   2.853   0.578  16.340  2.4131  0.2608 -0.9971
 3165TIP3    H230987   2.841   0.667  16.218  0.1574  1.5902  0.1363
 3166TIP3   OH230988   2.570   0.813   5.451 -0.8055 -0.1991 -0.3849
 3166TIP3    H130989   2.565   0.813   5.355 -0.5889  2.4807 -0.4819
 3166TIP3    H230990   2.520   0.736   5.478 -0.7682 -1.0889 -2.6318
 3167TIP3   OH230991   2.745   2.817   5.827 -0.2456  0.2403  0.1684
 3167TIP3    H130992   2.728   2.789   5.737  1.2263 -1.3126  0.3221
 3167TIP3    H230993   2.697   2.755   5.881  1.4468 -0.8634  0.4790
 3168TIP3   OH230994   0.754   3.223   0.135 -0.0561  0.1190  0.1876
 3168TIP3    H130995   0.672   3.265   0.162  1.4764  3.7860 -0.3681
 3168TIP3    H230996   0.740   3.199   0.043 -0.1758  1.7195 -0.2296
 3169TIP3   OH230997   6.089   2.450  16.276  0.1632 -0.0066 -0.1921
 3169TIP3    H130998   6.162   2.456  16.215 -1.1843  0.0908 -1.8753
 3169TIP3    H230999   6.053   2.539  16.281 -0.0875 -0.1276  0.3120
 3170TIP3   OH231000   3.315   5.230   2.697  0.2608 -0.0541  0.1630
 3170TIP3    H131001   3.334   5.138   2.717  0.8282  0.2054  0.8598
 3170TIP3    H231002   3.361   5.246   2.614 -1.0662 -0.7909 -0.7579
 3171TIP3   OH231003   4.964   6.194  12.282 -0.6754 -0.7991 -0.1928
 3171TIP3    H131004   4.999   6.124  12.336  1.3606  0.6215  0.4559
 3171TIP3    H231005   5.016   6.192  12.202  0.8366  1.1452  0.6488
 3172TIP3   OH231006   3.706   1.018  11.721 -0.4272  0.0248 -0.2255
 3172TIP3    H131007   3.711   0.930  11.684  0.7799  0.4277 -1.0722
 3172TIP3    H231008   3.630   1.057  11.678 -0.6118 -0.4002 -0.2957
 3173TIP3   OH231009   0.193   3.464   2.217 -0.7130  0.0949  0.2784
 3173TIP3    H131010   0.155   3.445   2.303 -0.6812 -0.8845  0.0917
 3173TIP3    H231011   0.276   3.416   2.217  0.2845  1.7476  0.4688
 3174TIP3   OH231012   3.612   0.251  16.721  0.1262 -0.4770 -0.1585
 3174TIP3    H131013   3.683   0.200  16.759  0.7050  0.1683 -0.3376
 3174TIP3    H231014   3.533   0.200  16.739  0.6884 -1.4679 -0.4242
 3175TIP3   OH231015   0.471   4.580  11.912  0.4314 -0.4459 -0.2989
 3175TIP3    H131016   0.419   4.545  11.840  2.2014 -1.5303 -1.1365
 3175TIP3    H231017   0.560   4.587  11.876  1.1873 -0.1648  1.5053
 3176TIP3   OH231018   4.866   3.015   5.571 -0.5319  0.6081 -0.1799
 3176TIP3    H131019   4.948   3.028   5.618 -0.4105  1.1425 -0.5370
 3176TIP3    H231020   4.803   2.991   5.640 -0.1543  0.5109  0.1353
 3177TIP3   OH231021   6.200   3.616  11.678 -0.2163  0.4782 -0.2054
 3177TIP3    H131022   6.248   3.699  11.666  0.2008  0.0496 -1.6864
 3177TIP3    H231023   6.197   3.578  11.590 -0.5547 -1.0022  0.4315
 3178TIP3   OH231024   4.179   5.532  14.779  0.4195  0.7472 -0.4177
 3178TIP3    H131025   4.140   5.581  14.707 -1.7577 -1.7272 -1.0767
 3178TIP3    H231026   4.129   5.558  14.856 -0.3475  0.0432 -0.6644
 3179TIP3   OH231027   4.108   5.824   2.985 -0.6506 -0.4497 -0.1469
 3179TIP3    H131028   4.076   5.753   3.040  0.1908  0.0800  1.0917
 3179TIP3    H231029   4.030   5.874   2.961 -0.9964 -0.3749  1.0583
 3180TIP3   OH231030   0.895   4.762   2.077 -0.4663 -0.1800 -0.2675
 3180TIP3    H131031   0.806   4.762   2.110  0.0304 -1.6944  1.1740
 3180TIP3    H231032   0.946   4.807   2.144  0.0648 -0.4926 -0.4492
 3181TIP3   OH231033   4.283   4.603  16.022  0.5509  0.0119  0.4545
 3181TIP3    H131034   4.275   4.636  15.932 -0.4701  0.2355  0.6151
 3181TIP3    H231035   4.333   4.522  16.013  1.9896  0.9357 -0.0936
 3182TIP3   OH231036   2.731   5.183  14.792  0.0564  0.4424  0.3717
 3182TIP3    H131037   2.717   5.228  14.876 -1.3436  1.7159 -0.4843
 3182TIP3    H231038   2.682   5.236  14.729  0.3115 -1.0158 -1.0984
 3183TIP3   OH231039   3.945   4.812  15.937 -0.0823  0.1993 -0.2919
 3183TIP3    H131040   3.987   4.798  15.852  1.9584 -1.6877  0.9177
 3183TIP3    H231041   3.856   4.842  15.915  0.6736  0.7691 -3.0285
 3184TIP3   OH231042   4.040   5.770  12.470  0.3077 -0.9548 -0.3898
 3184TIP3    H131043   4.003   5.780  12.382  0.3088 -1.6878 -0.4778
 3184TIP3    H231044   3.993   5.696  12.508 -0.0151 -0.3625  0.4094
 3185TIP3   OH231045   0.901   3.864  12.885  0.2018  0.3601 -0.4229
 3185TIP3    H131046   0.961   3.820  12.946 -0.5430  1.3418  1.0713
 3185TIP3    H231047   0.958   3.909  12.823  1.0317 -2.9583 -2.3477
 3186TIP3   OH231048   0.695   1.403  12.852  0.4319 -0.3603  0.5690
 3186TIP3    H131049   0.725   1.355  12.929  0.5637 -0.4144  0.4841
 3186TIP3    H231050   0.643   1.476  12.887  0.9520 -0.0645  0.7313
 3187TIP3   OH231051   6.101   0.192   2.186 -0.5904 -0.1601 -0.5406
 3187TIP3    H131052   6.082   0.178   2.279  1.2031  2.3618  0.3132
 3187TIP3    H231053   6.067   0.280   2.168  0.2784 -0.0780 -1.8979
 3188TIP3   OH231054   6.380   4.709  15.309 -0.3446 -0.0264 -0.2146
 3188TIP3    H131055   6.444   4.681  15.242 -0.3935 -0.0795 -0.2388
 3188TIP3    H231056   6.343   4.628  15.342 -1.4952  0.0357 -1.2634
 3189TIP3   OH231057   6.746   5.301   0.076  0.5620 -0.0238 -0.5727
 3189TIP3    H131058   6.836   5.289   0.105  0.8022  2.5377  0.0258
 3189TIP3    H231059   6.753   5.342  -0.010 -0.0566 -0.4606 -0.8434
 3190TIP3   OH231060   2.840   4.373   1.732  0.7855 -0.7337 -0.0856
 3190TIP3    H131061   2.764   4.432   1.738  1.3054  0.0311 -0.8183
 3190TIP3    H231062   2.854   4.343   1.822 -1.3937 -2.2127 -0.1540
 3191TIP3   OH231063   6.457   5.145  13.804  0.0556 -0.0715 -0.3638
 3191TIP3    H131064   6.413   5.109  13.726 -0.4440  1.7175 -0.9482
 3191TIP3    H231065   6.550   5.127  13.789 -0.1447 -0.8955 -0.7279
 3192TIP3   OH231066   5.047   0.984   0.540 -0.3196 -0.2305  0.1315
 3192TIP3    H131067   4.995   0.932   0.601  0.6261 -1.0271  0.2974
 3192TIP3    H231068   5.128   0.933   0.529  0.5648  1.1296  0.1610
 3193TIP3   OH231069   4.130   3.663   4.767 -0.1883 -0.0250 -0.2070
 3193TIP3    H131070   4.141   3.709   4.684  2.8895 -0.5248 -0.1714
 3193TIP3    H231071   4.112   3.732   4.831 -2.2355  0.3942 -1.1375
 3194TIP3   OH231072   5.835   5.235   3.719  0.3321 -0.1413  0.1942
 3194TIP3    H131073   5.777   5.159   3.722  1.5506 -1.0871  2.0736
 3194TIP3    H231074   5.835   5.262   3.627 -0.7499 -1.9210 -0.3823
 3195TIP3   OH231075   5.316   4.462   4.048 -0.4750  0.6013 -0.3196
 3195TIP3    H131076   5.392   4.476   4.104 -1.0839  1.1213  0.3860
 3195TIP3    H231077   5.331   4.376   4.008  0.1393  0.3932  0.3479
 3196TIP3   OH231078   4.988   1.411  14.131  0.3173 -0.0810  0.2557
 3196TIP3    H131079   4.971   1.326  14.090  0.9362 -0.8942  1.6007
 3196TIP3    H231080   5.058   1.449  14.078 -0.6596  0.0717 -0.9658
 3197TIP3   OH231081   6.774   3.619   4.311  0.0830  0.2125 -0.1995
 3197TIP3    H131082   6.746   3.676   4.382  0.2193 -1.6155  1.4041
 3197TIP3    H231083   6.826   3.676   4.253  1.7379  1.3412  2.2411
 3198TIP3   OH231084   0.207   4.592  14.468  0.2168 -0.1314 -0.1426
 3198TIP3    H131085   0.274   4.532  14.502 -1.3884 -1.8309  0.1598
 3198TIP3    H231086   0.237   4.612  14.379  0.2152 -2.4180 -0.7318
 3199TIP3   OH231087   2.932   5.097  15.117 -0.3255  0.0893  0.0132
 3199TIP3    H131088   2.844   5.062  15.132 -0.0026 -0.5619  0.4251
 3199TIP3    H231089   2.950   5.079  15.024 -0.5342  0.0239 -0.0143
 3200TIP3   OH231090   3.120   2.724  14.224  0.5025 -0.1439  0.1543
 3200TIP3    H131091   3.134   2.635  14.192  0.2671 -0.6412  1.4039
 3200TIP3    H231092   3.195   2.741  14.281  0.7125  0.5848 -0.3311
 3201TIP3   OH231093   6.834   4.836   3.256  0.6080  0.2446 -0.0180
 3201TIP3    H131094   6.926   4.809   3.260  0.2645 -1.2823 -1.3216
 3201TIP3    H231095   6.823   4.897   3.329  2.6741  0.5509  0.0894
 3202TIP3   OH231096   6.833   5.656  17.028  0.7439 -0.1002 -0.1893
 3202TIP3    H131097   6.807   5.572  16.991  0.2345 -0.5983  1.2548
 3202TIP3    H231098   6.861   5.708  16.952  1.6178 -1.7504 -1.0556
 3203TIP3   OH231099   5.982   6.481  15.278 -0.9041  0.8109  0.4420
 3203TIP3    H131100   5.981   6.498  15.372  2.6922 -0.4744  0.8727
 3203TIP3    H231101   5.984   6.386  15.271  0.2248  0.9081 -0.8512
 3204TIP3   OH231102   6.175   4.070   5.687 -0.4749  0.0361 -0.4522
 3204TIP3    H131103   6.253   4.099   5.733 -0.1481 -0.9412 -0.3777
 3204TIP3    H231104   6.162   4.135   5.618  1.1246 -0.4533 -1.2530
 3205TIP3   OH231105   4.537   5.397  10.696 -0.6741 -0.1348 -0.0550
 3205TIP3    H131106   4.520   5.384  10.789 -0.8325  0.7341  0.0540
 3205TIP3    H231107   4.465   5.453  10.667 -0.6854 -0.4930 -0.7284
 3206TIP3   OH231108   1.857   5.702   0.302 -0.0866  0.1292 -0.0100
 3206TIP3    H131109   1.851   5.607   0.309 -1.8483  0.2621  1.1065
 3206TIP3    H231110   1.943   5.719   0.263  0.5838 -1.8773  0.5033
 3207TIP3   OH231111   2.815   5.828  13.828  0.6482 -0.4271 -0.3092
 3207TIP3    H131112   2.808   5.909  13.778  0.1238  0.0534  0.5237
 3207TIP3    H231113   2.874   5.849  13.901 -1.1295 -0.1365  1.1251
 3208TIP3   OH231114   3.142   4.896  14.671 -0.4244 -0.4767  0.0794
 3208TIP3    H131115   3.070   4.924  14.727 -2.4104 -1.7942 -1.6564
 3208TIP3    H231116   3.210   4.867  14.732 -1.5703  0.2306  1.7846
 3209TIP3   OH231117   6.456   2.696   2.271 -0.2016  0.4730 -0.4775
 3209TIP3    H131118   6.499   2.658   2.347 -2.2557 -0.2859  0.3610
 3209TIP3    H231119   6.434   2.620   2.216 -0.9813  0.7690 -0.5864
 3210TIP3   OH231120   5.095   6.591  11.046  0.3507 -0.0765 -0.1497
 3210TIP3    H131121   5.093   6.680  11.011 -1.1246 -0.2496 -0.6048
 3210TIP3    H231122   5.084   6.535  10.969  1.4825 -0.6665  0.1096
 3211TIP3   OH231123   1.278   1.144   2.114 -0.1107 -0.7852 -0.3481
 3211TIP3    H131124   1.288   1.095   2.032 -0.0597  0.0279 -0.8389
 3211TIP3    H231125   1.241   1.080   2.175  0.6285 -1.6321 -0.7628
 3212TIP3   OH231126   2.847   2.822  12.474  0.4664 -0.4635 -0.5908
 3212TIP3    H131127   2.760   2.800  12.441  0.5077  0.8662 -1.7081
 3212TIP3    H231128   2.901   2.746  12.453  0.0250 -0.4721 -1.8148
 3213TIP3   OH231129   3.687   0.669   1.027  0.4307  0.0974 -0.2226
 3213TIP3    H131130   3.683   0.575   1.013 -0.1559 -0.0220  0.6874
 3213TIP3    H231131   3.733   0.703   0.950  0.1669 -0.8671 -0.8182
 3214TIP3   OH231132   0.565   0.571   1.270 -0.1986 -0.0316  0.2440
 3214TIP3    H131133   0.543   0.506   1.336 -0.8728 -0.3365 -0.2694
 3214TIP3    H231134   0.655   0.551   1.245 -0.8104 -1.6344 -0.8582
 3215TIP3   OH231135   1.538   1.127  13.394 -0.5724  0.0804  0.4799
 3215TIP3    H131136   1.570   1.140  13.483 -1.4617  1.0230  0.6853
 3215TIP3    H231137   1.470   1.194  13.383 -3.2503 -2.4241  0.4271
 3216TIP3   OH231138   0.683   4.064  12.227  0.1770 -0.3128  0.2018
 3216TIP3    H131139   0.730   3.997  12.177  0.5025 -0.0212  0.1131
 3216TIP3    H231140   0.736   4.076  12.306  1.8554  2.0467 -1.1474
 3217TIP3   OH231141   3.529   4.541  13.553  0.3079  0.1093  0.0892
 3217TIP3    H131142   3.489   4.536  13.639 -0.3568  2.1169 -0.0413
 3217TIP3    H231143   3.576   4.625  13.553 -0.3208  0.5216 -1.7105
 3218TIP3   OH231144   3.926   0.433   2.580  0.3978  0.2914  0.0728
 3218TIP3    H131145   3.911   0.349   2.538  2.6590 -0.1190 -0.0335
 3218TIP3    H231146   3.863   0.436   2.652  1.6954 -2.5249  1.4759
 3219TIP3   OH231147   4.342   4.325   5.998  0.0439  0.0458 -0.3060
 3219TIP3    H131148   4.295   4.244   5.981  0.8124 -0.2475 -1.1356
 3219TIP3    H231149   4.340   4.372   5.915  0.4651  0.4136 -0.1155
 3220TIP3   OH231150   1.851   0.282  12.067  0.3431  0.1916  0.3488
 3220TIP3    H131151   1.774   0.225  12.073 -0.8441  1.6370 -0.5731
 3220TIP3    H231152   1.895   0.254  11.986 -1.1866  1.6246 -1.0598
 3221TIP3   OH231153   1.693   1.473   1.871  0.6849  0.4635  0.7366
 3221TIP3    H131154   1.691   1.547   1.810  1.3755  0.8087  1.1249
 3221TIP3    H231155   1.662   1.510   1.954 -0.3596 -0.0283  0.5845
 3222TIP3   OH231156   0.680   1.762   6.314 -0.2330 -0.1773 -0.5126
 3222TIP3    H131157   0.611   1.710   6.355 -0.9375  1.4666  0.4603
 3222TIP3    H231158   0.749   1.767   6.381 -0.3436  0.4656 -0.4441
 3223TIP3   OH231159   5.141   0.873   1.804 -0.1566  0.5664 -0.4832
 3223TIP3    H131160   5.090   0.798   1.773 -0.6870  0.7444 -0.0592
 3223TIP3    H231161   5.151   0.929   1.727  0.6708 -0.1650 -0.9253
 3224TIP3   OH231162   4.217   1.201   0.155  0.6901 -0.1561  0.2809
 3224TIP3    H131163   4.151   1.259   0.192  0.9964 -0.3769  1.1998
 3224TIP3    H231164   4.300   1.249   0.164  1.2678 -1.4091  2.8348
 3225TIP3   OH231165   4.356   5.925   0.938  0.0637  0.1930 -0.0194
 3225TIP3    H131166   4.311   5.855   0.891  1.5061 -1.3152  0.7232
 3225TIP3    H231167   4.324   5.918   1.028 -1.5287  2.0681 -0.3598
 3226TIP3   OH231168   6.846   0.652   0.182  0.2997  0.3953 -0.1755
 3226TIP3    H131169   6.929   0.685   0.148  0.9180  1.1884  1.9513
 3226TIP3    H231170   6.815   0.591   0.115  1.4303  1.8216 -2.0736
 3227TIP3   OH231171   0.629   1.195  11.767 -0.2000  0.0909  0.3062
 3227TIP3    H131172   0.724   1.196  11.751 -0.2751  0.0911 -0.1811
 3227TIP3    H231173   0.620   1.194  11.862  0.3596 -3.8255  0.4889
 3228TIP3   OH231174   6.854   3.945   5.796  1.0682  0.5813  0.4802
 3228TIP3    H131175   6.911   3.894   5.738  0.0393  1.1470 -1.1038
 3228TIP3    H231176   6.849   4.031   5.756  0.4738  1.0567  1.5318
 3229TIP3   OH231177   4.361   6.818   2.001 -0.0667 -0.6870 -0.2094
 3229TIP3    H131178   4.432   6.882   2.001 -0.7203  0.0505 -0.9976
 3229TIP3    H231179   4.282   6.869   1.987 -0.8169 -1.4574  0.9749
 3230TIP3   OH231180   1.019   2.570   5.938 -0.1189  0.1025 -0.5558
 3230TIP3    H131181   0.968   2.532   6.010 -1.7744 -0.5154 -1.9977
 3230TIP3    H231182   1.101   2.599   5.980 -1.8028  1.6506  1.9888
 3231TIP3   OH231183   5.381   4.005  15.266 -0.0711  0.3956  0.2884
 3231TIP3    H131184   5.454   3.968  15.316 -0.0689  0.5682  0.4150
 3231TIP3    H231185   5.312   4.019  15.331  0.3363  1.6977  0.4658
 3232TIP3   OH231186   2.210   2.657   6.240 -0.5377  0.2858  0.4113
 3232TIP3    H131187   2.281   2.635   6.179 -0.1005  0.3757  0.8843
 3232TIP3    H231188   2.140   2.690   6.183 -0.4087 -0.3116 -0.1070
 3233TIP3   OH231189   3.569   3.191   0.926 -0.0617 -0.2056  0.0547
 3233TIP3    H131190   3.617   3.124   0.974 -1.8945  0.6391  3.3790
 3233TIP3    H231191   3.485   3.151   0.905  0.6011 -0.4758 -2.4736
 3234TIP3   OH231192   3.633   5.437   0.430 -0.0377 -0.4728 -0.0601
 3234TIP3    H131193   3.727   5.430   0.448  0.1120  0.4355 -0.4378
 3234TIP3    H231194   3.622   5.392   0.346  0.1639 -0.0941 -0.2949
 3235TIP3   OH231195   2.009   2.411   3.894  0.0622 -0.1338 -0.1805
 3235TIP3    H131196   1.919   2.377   3.893  0.1515 -0.3650 -0.4820
 3235TIP3    H231197   2.062   2.340   3.858  0.4206 -0.1389  0.3517
 3236TIP3   OH231198   5.006   4.660  11.942  0.5079  0.2156 -0.2912
 3236TIP3    H131199   5.004   4.641  12.036  0.6005 -2.4695 -0.7528
 3236TIP3    H231200   5.013   4.574  11.900  0.5002  1.3348 -2.7753
 3237TIP3   OH231201   1.371   0.173   1.205  0.1077  0.3146 -0.3913
 3237TIP3    H131202   1.353   0.227   1.128  0.0211  0.7818 -0.0459
 3237TIP3    H231203   1.294   0.116   1.212  0.5506 -0.4044 -1.2148
 3238TIP3   OH231204   0.789   1.099  15.505  0.2214  0.0800  0.3890
 3238TIP3    H131205   0.770   1.043  15.429 -0.6067  0.2982  0.4264
 3238TIP3    H231206   0.879   1.127  15.492 -1.1632  3.9161 -3.0286
 3239TIP3   OH231207   4.000   2.874  14.583  0.1015 -0.5784  0.1774
 3239TIP3    H131208   4.038   2.793  14.551 -1.1189 -1.5537  1.0866
 3239TIP3    H231209   3.995   2.931  14.506  0.1491 -1.6916 -0.6673
 3240TIP3   OH231210   0.039   2.798   4.538 -0.0544 -0.0768 -0.0128
 3240TIP3    H131211  -0.029   2.755   4.589  0.2329  0.6632  1.0435
 3240TIP3    H231212  -0.008   2.854   4.477 -0.4044  0.0963  0.4096
 3241TIP3   OH231213   4.581   3.397   4.180  0.0979  0.3498 -0.4840
 3241TIP3    H131214   4.650   3.462   4.188  0.1395  0.4931 -1.7008
 3241TIP3    H231215   4.514   3.424   4.242 -0.4141  2.2563 -1.7939
 3242TIP3   OH231216   2.894   1.568   0.209 -0.2361 -0.2363  0.3769
 3242TIP3    H131217   2.922   1.630   0.142  0.9360 -0.3229  0.7736
 3242TIP3    H231218   2.918   1.609   0.292  1.6329 -1.6751  0.6266
 3243TIP3   OH231219   3.326   2.003   4.576 -0.6661  0.1933  0.0243
 3243TIP3    H131220   3.409   1.999   4.527 -0.5309  0.6626  0.2124
 3243TIP3    H231221   3.353   2.010   4.667 -0.8576  2.9249 -0.0511
 3244TIP3   OH231222   4.896   0.737  14.349  0.2241 -0.2732 -0.1234
 3244TIP3    H131223   4.952   0.789  14.407 -1.8962  2.0666  0.0006
 3244TIP3    H231224   4.880   0.656  14.397  2.3464 -0.4442  0.4030
 3245TIP3   OH231225   2.199   6.752  11.123  0.3838 -0.1547 -0.6518
 3245TIP3    H131226   2.273   6.725  11.177 -0.6506 -0.4886  0.6355
 3245TIP3    H231227   2.168   6.833  11.163 -0.5990 -0.5838 -0.5230
 3246TIP3   OH231228   0.947   0.891   3.862 -0.0407 -0.0581  0.2162
 3246TIP3    H131229   0.952   0.924   3.951  1.6683 -0.3249  0.2457
 3246TIP3    H231230   0.861   0.921   3.830 -0.8919 -0.4034  2.0878
 3247TIP3   OH231231   3.946   4.750  11.838  0.3039  0.0887  0.0209
 3247TIP3    H131232   3.986   4.716  11.917 -0.5422  0.6640  0.7217
 3247TIP3    H231233   3.853   4.726  11.846 -0.0042  1.1359 -0.2332
 3248TIP3   OH231234   6.332   5.873  10.629 -0.0148  0.3559  0.0286
 3248TIP3    H131235   6.342   5.939  10.560  0.2027  0.1037 -0.1834
 3248TIP3    H231236   6.387   5.905  10.701 -1.6022  1.5316  0.7816
 3249TIP3   OH231237   1.505   0.721   2.958 -0.0137  0.9589  0.3263
 3249TIP3    H131238   1.454   0.679   2.888 -0.1936  0.7962  0.5551
 3249TIP3    H231239   1.483   0.814   2.951 -0.4408  0.8711  0.5082
 3250TIP3   OH231240   6.511   4.235  11.316 -0.2770 -0.3448 -0.3750
 3250TIP3    H131241   6.567   4.310  11.299  0.1352 -1.0613 -2.3686
 3250TIP3    H231242   6.443   4.269  11.376  1.0517  1.0471  0.4081
 3251TIP3   OH231243   3.192   2.839  15.934 -0.0348  0.3259 -0.0656
 3251TIP3    H131244   3.177   2.903  16.003 -0.6480  0.3691 -0.2313
 3251TIP3    H231245   3.105   2.825  15.895 -0.1082 -1.3784  0.6453
 3252TIP3   OH231246   2.451   3.313  12.876  0.3969  0.2430  0.2874
 3252TIP3    H131247   2.430   3.296  12.968  0.5848 -0.1101  0.2682
 3252TIP3    H231248   2.370   3.347  12.838 -0.0247 -0.6910  0.3162
 3253TIP3   OH231249   3.784   1.413  16.487 -0.0945  0.0936 -1.0057
 3253TIP3    H131250   3.736   1.480  16.536  0.9160 -0.2693  0.5495
 3253TIP3    H231251   3.872   1.449  16.478  0.1785 -0.5745 -1.0456
 3254TIP3   OH231252   0.437   2.034   0.253 -0.0777  0.1078 -0.3146
 3254TIP3    H131253   0.444   2.124   0.220 -1.0981  1.0256  1.8425
 3254TIP3    H231254   0.358   2.034   0.307  1.6848 -1.1595  2.4477
 3255TIP3   OH231255   2.814   0.650   3.815  0.4684  0.5368  0.0482
 3255TIP3    H131256   2.816   0.638   3.720  0.9378  1.3524 -0.0541
 3255TIP3    H231257   2.879   0.588   3.849  0.8284  0.7523 -0.2352
 3256TIP3   OH231258   1.391   0.319   2.762  0.5508  0.5883  0.4520
 3256TIP3    H131259   1.347   0.401   2.784 -0.6016 -0.0068  0.4628
 3256TIP3    H231260   1.344   0.253   2.813  0.4060 -0.2913 -0.7853
 3257TIP3   OH231261   5.772   5.162   2.368 -0.3486  0.9602 -0.2462
 3257TIP3    H131262   5.716   5.157   2.290  1.5291 -0.8321 -1.5796
 3257TIP3    H231263   5.809   5.250   2.365  3.3172 -0.3690 -4.2201
 3258TIP3   OH231264   6.843   4.390   2.668 -0.0419 -0.4190  0.0631
 3258TIP3    H131265   6.856   4.296   2.682 -1.6991 -0.8003 -0.7163
 3258TIP3    H231266   6.748   4.401   2.663  0.1507  1.1363 -1.0289
 3259TIP3   OH231267   4.158   1.787  10.974 -0.4488  0.2343  0.2497
 3259TIP3    H131268   4.073   1.797  10.931 -0.0533  0.6307 -0.4586
 3259TIP3    H231269   4.203   1.721  10.922 -1.0085 -1.4029  1.7292
 3260TIP3   OH231270   5.738   1.507  14.070  0.1951 -0.3918  0.4608
 3260TIP3    H131271   5.752   1.437  14.133 -2.2821 -0.8719  0.5615
 3260TIP3    H231272   5.738   1.587  14.123 -2.7087 -0.8588  1.2913
 3261TIP3   OH231273   1.943   0.819   3.255 -0.0990  0.0123 -0.3449
 3261TIP3    H131274   1.892   0.852   3.329 -0.4167 -1.2732  0.0332
 3261TIP3    H231275   1.882   0.763   3.207  0.9702 -1.6537  0.1827
 3262TIP3   OH231276   1.557   4.839   2.674 -0.0783  0.0245 -0.1620
 3262TIP3    H131277   1.510   4.793   2.605  1.0197 -0.4893 -0.5995
 3262TIP3    H231278   1.510   4.818   2.755 -1.2571  0.4763 -0.7226
 3263TIP3   OH231279   2.545   0.395   3.052  0.4935 -0.2590 -0.2260
 3263TIP3    H131280   2.635   0.368   3.033 -0.2403 -1.8177 -1.6852
 3263TIP3    H231281   2.543   0.487   3.029  1.5226 -0.3807 -0.8993
 3264TIP3   OH231282   0.979   2.313  11.586 -0.2493  0.0325 -0.1082
 3264TIP3    H131283   1.004   2.220  11.590  0.5210  0.2943  1.9882
 3264TIP3    H231284   1.055   2.360  11.618 -0.9879  1.3345 -0.2118
 3265TIP3   OH231285   2.192   0.058  12.858 -0.4777  0.7606  0.7022
 3265TIP3    H131286   2.230   0.005  12.928  0.5574  0.8905  0.2594
 3265TIP3    H231287   2.110   0.013  12.836  0.8614 -1.3121 -0.3950
 3266TIP3   OH231288   1.015   0.858   6.280  0.3513  0.3724  0.6513
 3266TIP3    H131289   1.104   0.832   6.300  0.6317  1.4867  0.9259
 3266TIP3    H231290   1.024   0.929   6.216 -0.3606  0.1428  0.2729
 3267TIP3   OH231291   0.779   2.198   1.117  0.0527  0.6971 -0.5919
 3267TIP3    H131292   0.733   2.115   1.131  1.8104 -0.2256 -0.0173
 3267TIP3    H231293   0.735   2.237   1.041 -1.9018  0.0783  0.1571
 3268TIP3   OH231294   3.497   3.066   1.360 -0.0917 -0.1245  0.5736
 3268TIP3    H131295   3.445   3.116   1.423 -0.5394 -1.4212  1.2755
 3268TIP3    H231296   3.467   3.096   1.274 -0.0290  1.1051  0.9641
 3269TIP3   OH231297   1.873   4.500   5.612 -0.3744 -0.2989  0.3303
 3269TIP3    H131298   1.894   4.416   5.572 -1.7428  0.9198 -3.3277
 3269TIP3    H231299   1.951   4.554   5.600  0.7037 -1.0357  3.1478
 3270TIP3   OH231300   4.865   4.859   3.804 -0.0309  0.2526 -0.3166
 3270TIP3    H131301   4.797   4.877   3.868  2.8399 -1.9521  3.8995
 3270TIP3    H231302   4.833   4.784   3.754 -1.3975  0.4180  0.2920
 3271TIP3   OH231303   1.538   3.246   1.068  0.5640 -0.4515  0.2997
 3271TIP3    H131304   1.572   3.291   1.146  0.7287 -0.8652  0.4715
 3271TIP3    H231305   1.443   3.251   1.076  0.5665  1.0500 -0.3753
 3272TIP3   OH231306   1.649   5.888   3.130 -0.2182  0.3298  0.5968
 3272TIP3    H131307   1.624   5.884   3.223 -1.9778 -2.3980  0.1214
 3272TIP3    H231308   1.708   5.814   3.118  0.5023  1.0336 -0.3615
 3273TIP3   OH231309   6.633   4.949  12.664 -0.0648  0.1799 -0.3450
 3273TIP3    H131310   6.548   4.993  12.678  0.1121  0.8179 -1.1941
 3273TIP3    H231311   6.651   4.907  12.748 -1.1367  0.1859 -0.0847
 3274TIP3   OH231312   6.595   3.980  16.577  0.2017 -0.0564  0.0073
 3274TIP3    H131313   6.558   4.022  16.655  2.5386 -1.7437  2.1748
 3274TIP3    H231314   6.530   3.913  16.554 -0.4059  0.2806  0.6764
 3275TIP3   OH231315   4.831   6.452   1.682 -0.0435 -0.2205  0.1492
 3275TIP3    H131316   4.880   6.489   1.609 -0.5105 -0.1368 -0.1258
 3275TIP3    H231317   4.850   6.510   1.756  0.9540 -0.6814  0.2667
 3276TIP3   OH231318   2.921   5.545  11.229 -0.1331  0.0567 -0.3983
 3276TIP3    H131319   3.011   5.537  11.198 -0.1713 -1.6851 -0.1616
 3276TIP3    H231320   2.926   5.607  11.302  1.0266 -0.7157  0.1995
 3277TIP3   OH231321   4.272   3.097   2.641 -0.7843  0.2449  0.1259
 3277TIP3    H131322   4.259   3.114   2.548 -3.7740  2.4723  0.8111
 3277TIP3    H231323   4.221   3.018   2.658 -3.4728  1.9143  0.4290
 3278TIP3   OH231324   1.326   1.652   0.983 -0.2247  0.0937  0.3403
 3278TIP3    H131325   1.321   1.747   0.985 -0.5421  0.1084 -0.6268
 3278TIP3    H231326   1.259   1.625   0.920 -0.2792 -0.7822  0.7500
 3279TIP3   OH231327   2.731   0.554   3.430  0.2713 -0.2437 -0.2187
 3279TIP3    H131328   2.815   0.581   3.467  1.3607 -1.8221 -1.3865
 3279TIP3    H231329   2.754   0.499   3.355 -1.7987 -1.6403  0.0805
 3280TIP3   OH231330   0.836   4.776   4.910 -0.7909 -0.4299 -1.4037
 3280TIP3    H131331   0.790   4.711   4.963 -0.0925 -1.3333 -1.8682
 3280TIP3    H231332   0.923   4.738   4.896 -0.1496  0.8876 -1.1770
 3281TIP3   OH231333   5.077   3.363   2.747  0.3524 -0.2184  0.5003
 3281TIP3    H131334   5.039   3.451   2.751 -2.1671 -1.2659  2.1783
 3281TIP3    H231335   5.001   3.304   2.742  1.8832 -2.3558  1.0968
 3282TIP3   OH231336   1.983   6.759  15.993  0.0009 -0.1682  0.0862
 3282TIP3    H131337   2.073   6.791  15.984 -0.7058  1.7688 -0.4124
 3282TIP3    H231338   1.989   6.691  16.061  1.7891  0.0507  0.2043
 3283TIP3   OH231339   3.140   3.099  16.010 -0.4023  0.1648 -0.8066
 3283TIP3    H131340   3.131   3.163  15.940  0.1942  0.1863 -0.8677
 3283TIP3    H231341   3.053   3.096  16.051 -0.1335  1.9529  0.0055
 3284TIP3   OH231342   3.696   1.785   5.471 -0.0279 -0.3917 -0.1621
 3284TIP3    H131343   3.642   1.784   5.393 -0.4049  0.0199  0.0884
 3284TIP3    H231344   3.768   1.845   5.450 -1.6329  2.0266  0.7657
 3285TIP3   OH231345   3.437   3.160  12.068  0.4722 -0.4336 -0.3043
 3285TIP3    H131346   3.527   3.161  12.103  0.4416  0.6521 -0.2339
 3285TIP3    H231347   3.446   3.120  11.981  1.1825  0.4913 -0.6786
 3286TIP3   OH231348   0.358   6.662   4.080 -0.4362  0.0468  0.0475
 3286TIP3    H131349   0.417   6.670   4.005 -0.2694  1.9604  0.3285
 3286TIP3    H231350   0.411   6.619   4.148 -0.0509 -0.1607 -0.3811
 3287TIP3   OH231351   4.115   4.439   5.795 -0.1236 -0.6012  0.2333
 3287TIP3    H131352   4.037   4.431   5.740 -0.8523  2.7642  0.5483
 3287TIP3    H231353   4.188   4.422   5.736 -1.0043 -0.4258 -0.9396
 3288TIP3   OH231354   3.745   5.713   3.288 -0.4963 -0.4429  0.0388
 3288TIP3    H131355   3.834   5.683   3.268 -0.4654 -0.0594 -0.4115
 3288TIP3    H231356   3.714   5.752   3.206 -0.4305  1.0190  0.6798
 3289TIP3   OH231357   4.781   5.987  12.379 -0.7408 -0.3863 -0.0417
 3289TIP3    H131358   4.841   6.007  12.451  0.5975 -2.8964 -0.3232
 3289TIP3    H231359   4.838   5.976  12.303 -1.7333 -1.1609 -0.6984
 3290TIP3   OH231360   6.422   4.866   1.513 -0.0030  0.0498  0.2278
 3290TIP3    H131361   6.384   4.890   1.428  0.1794  0.9927  0.4090
 3290TIP3    H231362   6.515   4.853   1.495 -0.1853 -1.1376  0.0172
 3291TIP3   OH231363   0.820   6.036   3.011 -0.0402  0.0261  0.2722
 3291TIP3    H131364   0.832   6.024   3.105  0.0719 -0.4817  0.1942
 3291TIP3    H231365   0.901   6.004   2.972 -0.0719  0.2687  0.0031
 3292TIP3   OH231366   1.824   3.999   2.275 -0.7692 -0.0713 -0.2276
 3292TIP3    H131367   1.825   3.970   2.183 -0.0824  0.8636 -0.5204
 3292TIP3    H231368   1.736   3.975   2.305 -1.3444  0.4577 -1.4068
 3293TIP3   OH231369   3.624   5.015   5.990  0.2092  0.0580 -0.5014
 3293TIP3    H131370   3.546   5.071   5.985  1.1231  1.6200  1.4395
 3293TIP3    H231371   3.675   5.051   6.063  1.4310 -2.6262  0.0939
 3294TIP3   OH231372   2.080   4.463   1.269  0.6502  0.0676 -0.0420
 3294TIP3    H131373   2.082   4.448   1.363 -0.0160 -3.1907 -0.4030
 3294TIP3    H231374   2.069   4.375   1.231 -2.1852  1.4821 -3.0556
 3295TIP3   OH231375   4.491   5.726  16.734 -0.0566  0.1127  0.0302
 3295TIP3    H131376   4.464   5.705  16.824 -2.3400  0.2899 -0.5637
 3295TIP3    H231377   4.554   5.657  16.711 -2.6213 -2.4954  0.3213
 3296TIP3   OH231378   3.154   5.855   0.390 -0.1496  0.1394  0.1737
 3296TIP3    H131379   3.209   5.928   0.419 -0.2337 -0.4763  1.9841
 3296TIP3    H231380   3.065   5.888   0.395 -0.2036 -0.1381  1.2136
 3297TIP3   OH231381   2.559   4.486   2.447  0.0837 -0.4899 -0.2965
 3297TIP3    H131382   2.536   4.558   2.506 -1.6284  1.3855 -2.9928
 3297TIP3    H231383   2.557   4.408   2.502 -2.1147  0.9914  1.9664
 3298TIP3   OH231384   5.372   5.586   3.532  0.0801 -0.3180  0.0427
 3298TIP3    H131385   5.411   5.585   3.444 -0.8637 -1.0864 -0.3820
 3298TIP3    H231386   5.372   5.679   3.556  0.5274 -0.1161 -0.6907
 3299TIP3   OH231387   5.383   5.855   5.472 -0.0506  0.4493 -0.0493
 3299TIP3    H131388   5.345   5.770   5.449  0.5241  0.4486 -1.0533
 3299TIP3    H231389   5.390   5.854   5.568 -2.1571  0.2800  0.1509
 3300TIP3   OH231390   4.358   5.794   0.646  0.4693 -0.0602  0.1754
 3300TIP3    H131391   4.442   5.764   0.680  0.5613  0.4575  0.4134
 3300TIP3    H231392   4.293   5.758   0.706  0.6219  0.7370  0.8295
 3301TIP3   OH231393   6.037   6.793   3.256  0.1283 -0.4767 -0.3760
 3301TIP3    H131394   6.132   6.789   3.243  0.1928  3.4278 -2.5902
 3301TIP3    H231395   6.018   6.722   3.318  4.6488 -0.5558  1.2630
 3302TIP3   OH231396   5.003   0.883   4.558 -0.2538 -0.1815  0.2037
 3302TIP3    H131397   4.991   0.975   4.584  2.1262  0.0135  0.9083
 3302TIP3    H231398   4.925   0.838   4.590 -0.1280  1.1013  2.5231
 3303TIP3   OH231399   3.422   0.905   3.146 -0.0647 -0.4234  0.2606
 3303TIP3    H131400   3.351   0.845   3.123 -0.5536  0.1701  0.2019
 3303TIP3    H231401   3.444   0.882   3.237 -0.4025 -0.5400  0.3152
 3304TIP3   OH231402   2.605   4.360   0.328 -0.9166 -0.7102 -0.0718
 3304TIP3    H131403   2.697   4.377   0.349 -1.1749  1.3450 -0.3962
 3304TIP3    H231404   2.602   4.362   0.232 -1.4461  0.3350 -0.0523
 3305TIP3   OH231405   6.724   4.351   5.476  0.3411  0.2690 -0.6334
 3305TIP3    H131406   6.660   4.374   5.409 -2.6003 -1.3234  1.4323
 3305TIP3    H231407   6.722   4.423   5.538  0.6428  0.2459 -0.5936
 3306TIP3   OH231408   0.956   1.669   2.826  0.3801 -1.0223 -0.8703
 3306TIP3    H131409   0.986   1.732   2.761 -0.3163 -0.7082 -0.9001
 3306TIP3    H231410   0.933   1.723   2.902 -2.5583 -0.8907 -1.7126
 3307TIP3   OH231411   2.273   6.181   3.392 -0.1914  0.3140  0.5493
 3307TIP3    H131412   2.366   6.180   3.371 -0.5198 -0.5669 -1.0168
 3307TIP3    H231413   2.251   6.274   3.398  0.6304  0.5393  0.1810
 3308TIP3   OH231414   2.168   0.344   5.579 -0.2506 -0.1033  0.3047
 3308TIP3    H131415   2.260   0.322   5.589  0.7998  1.1986 -4.1917
 3308TIP3    H231416   2.126   0.263   5.551  0.1977 -0.0801 -0.4652
 3309TIP3   OH231417   5.382   4.342   0.046  0.2177  0.1523 -0.5748
 3309TIP3    H131418   5.409   4.359   0.136  0.4264 -0.0942 -0.5895
 3309TIP3    H231419   5.289   4.321   0.053  0.6180 -1.6454 -0.1815
 3310TIP3   OH231420   5.572   4.587   0.945 -0.7003  0.0857 -0.1517
 3310TIP3    H131421   5.636   4.516   0.935 -1.6657 -0.8330  0.0771
 3310TIP3    H231422   5.555   4.616   0.856 -0.8800 -0.5064 -0.3187
 3311TIP3   OH231423   0.883   0.009   4.985 -0.1776 -0.1370  0.0677
 3311TIP3    H131424   0.797   0.042   5.012 -0.2874  0.5334 -1.0431
 3311TIP3    H231425   0.937   0.088   4.976 -0.4224 -0.1949 -2.5840
 3312TIP3   OH231426   2.784   6.827   4.628 -0.0675 -0.3959 -0.3688
 3312TIP3    H131427   2.824   6.740   4.639  2.3992  0.8578  1.5302
 3312TIP3    H231428   2.703   6.822   4.680  1.6183 -0.7066  2.4695
 3313TIP3   OH231429   3.015   3.133  13.499  0.5809 -0.5747  0.5188
 3313TIP3    H131430   2.936   3.125  13.552  1.1528 -0.4650  1.4033
 3313TIP3    H231431   3.016   3.054  13.445 -0.3457 -0.3770  0.1928
 3314TIP3   OH231432   3.761   2.715   5.861  0.1493  0.2563  0.5530
 3314TIP3    H131433   3.744   2.637   5.807 -2.4520  0.6110  0.7447
 3314TIP3    H231434   3.790   2.679   5.945 -1.4263 -0.5635  0.7799
 3315TIP3   OH231435   1.908   5.843   4.670  0.7030 -0.0260  0.3327
 3315TIP3    H131436   1.895   5.931   4.705 -0.9649 -0.0597 -0.1275
 3315TIP3    H231437   1.991   5.848   4.623  0.2735  1.5289 -0.3257
 3316TIP3   OH231438   3.919   6.402  15.173 -0.0090  0.1640  0.5569
 3316TIP3    H131439   4.000   6.448  15.192 -0.0426 -0.2601  1.8098
 3316TIP3    H231440   3.852   6.450  15.222 -0.4182  0.1408  0.0319
 3317TIP3   OH231441   6.292   3.606   3.522 -0.1330  0.7206  0.3099
 3317TIP3    H131442   6.385   3.583   3.523 -0.2298  0.3374  0.7944
 3317TIP3    H231443   6.249   3.535   3.570 -0.6753  0.9053  0.1092
 3318TIP3   OH231444   2.285   0.200  14.329  0.5269 -0.4658 -0.2991
 3318TIP3    H131445   2.375   0.226  14.307  1.3858 -1.7052  1.5491
 3318TIP3    H231446   2.284   0.105  14.316 -0.9715 -0.3132 -1.6628
 3319TIP3   OH231447   5.440   1.353   3.146 -0.3383  0.3985 -0.1924
 3319TIP3    H131448   5.375   1.301   3.194 -0.3258  0.5406 -0.0194
 3319TIP3    H231449   5.480   1.291   3.085 -1.3496  0.5430 -1.0309
 3320TIP3   OH231450   3.693   3.422  14.651  0.4096  0.0197  0.0073
 3320TIP3    H131451   3.741   3.436  14.732 -0.3529  1.6935  0.2038
 3320TIP3    H231452   3.601   3.421  14.677  0.0843  1.7191 -0.9458
 3321TIP3   OH231453   4.946   6.727   3.538 -0.0624 -0.6390  0.2194
 3321TIP3    H131454   4.970   6.636   3.519 -0.5427 -0.5856 -0.6648
 3321TIP3    H231455   4.901   6.757   3.460  2.1787  1.1443 -0.4726
 3322TIP3   OH231456   2.967   1.298  10.569  0.6187  0.2520 -0.1128
 3322TIP3    H131457   2.919   1.225  10.609 -1.1781  0.9820 -0.8378
 3322TIP3    H231458   3.024   1.256  10.505 -1.5321 -0.4651 -1.6486
 3323TIP3   OH231459   2.250   2.888  14.575  0.1709  0.0873 -0.3642
 3323TIP3    H131460   2.335   2.853  14.548  0.3837  0.0893  0.3052
 3323TIP3    H231461   2.266   2.929  14.660 -0.2024  1.2967 -0.8555
 3324TIP3   OH231462   3.482   3.740   0.647  0.4759 -0.2408  0.1743
 3324TIP3    H131463   3.414   3.799   0.614  1.1636 -0.1482 -1.1885
 3324TIP3    H231464   3.543   3.798   0.693  0.5352 -0.0497 -0.1377
 3325TIP3   OH231465   1.554   6.484   2.611  0.0773  0.5436  0.1706
 3325TIP3    H131466   1.485   6.494   2.544  1.4723 -0.2460 -1.4644
 3325TIP3    H231467   1.635   6.477   2.560  1.0125 -2.0545  1.8260
 3326TIP3   OH231468   3.741   0.635  10.893  0.3538 -0.3014  0.1454
 3326TIP3    H131469   3.721   0.718  10.850 -0.8461 -1.2726 -1.2818
 3326TIP3    H231470   3.830   0.614  10.866  0.2145 -0.0624 -0.5186
 3327TIP3   OH231471   3.095   2.895  11.427  0.0947 -0.2160  0.0598
 3327TIP3    H131472   3.111   2.850  11.344 -2.2063 -1.4332  0.1959
 3327TIP3    H231473   3.040   2.969  11.404  0.5563  0.2283  0.3595
 3328TIP3   OH231474   3.429   5.543   1.222  0.6043 -0.1634  0.3079
 3328TIP3    H131475   3.495   5.477   1.242  1.5586  0.6605 -0.0728
 3328TIP3    H231476   3.440   5.562   1.129 -1.8264 -1.7874 -0.4326
 3329TIP3   OH231477   6.226   4.443   0.834 -0.5495  0.1419  0.4111
 3329TIP3    H131478   6.216   4.427   0.740 -1.1198  0.8307  0.3457
 3329TIP3    H231479   6.152   4.396   0.874 -1.1401  1.0122  0.3789
 3330TIP3   OH231480   1.897   2.573  14.340  0.2016  0.4139  0.3623
 3330TIP3    H131481   1.884   2.581  14.434  2.3858 -2.0738  0.9932
 3330TIP3    H231482   1.855   2.490  14.317  1.6678 -0.1403 -0.3921
 3331TIP3   OH231483   0.804   1.685  11.490 -0.6725  0.1493 -0.0736
 3331TIP3    H131484   0.839   1.729  11.568  0.6737  0.9127 -1.0575
 3331TIP3    H231485   0.733   1.630  11.523 -0.1607  0.4775  1.6801
 3332TIP3   OH231486   5.449   1.014   3.222 -0.0101 -0.4324  0.1532
 3332TIP3    H131487   5.409   1.095   3.255  1.2864  0.8749 -1.3095
 3332TIP3    H231488   5.375   0.962   3.191 -0.8234  0.5271  0.4124
 3333TIP3   OH231489   3.402   3.048   6.677 -0.3894 -0.3810 -0.2644
 3333TIP3    H131490   3.494   3.074   6.680 -0.2608 -0.8056 -0.4042
 3333TIP3    H231491   3.354   3.130   6.667 -0.1926  0.0782  2.0742
 3334TIP3   OH231492   3.660   6.087  11.519 -0.1487 -0.0288 -0.4960
 3334TIP3    H131493   3.571   6.118  11.502 -0.4605 -0.3568  0.4302
 3334TIP3    H231494   3.670   6.095  11.614 -0.0300 -2.1493 -0.2842
 3335TIP3   OH231495   3.944   5.222   5.063 -0.1761 -0.6296 -0.0918
 3335TIP3    H131496   3.993   5.140   5.067  1.5956  0.3817 -0.0066
 3335TIP3    H231497   3.930   5.245   5.155  2.0512  0.6642 -0.0173
 3336TIP3   OH231498   3.548   0.439  14.547  0.3626 -0.0310  0.5157
 3336TIP3    H131499   3.607   0.369  14.521 -0.4924 -1.2951  1.7854
 3336TIP3    H231500   3.497   0.401  14.619 -2.2179  0.8714 -0.7202
 3337TIP3   OH231501   5.553   5.045  15.625  0.4756 -0.4676  0.0476
 3337TIP3    H131502   5.514   5.069  15.541  0.2837  0.5755  0.4206
 3337TIP3    H231503   5.485   5.064  15.689  0.9995 -0.2195  0.5384
 3338TIP3   OH231504   2.497   6.595  16.240 -0.1019  0.2452 -0.4123
 3338TIP3    H131505   2.563   6.656  16.273 -0.6555  0.4677  0.3014
 3338TIP3    H231506   2.482   6.623  16.150  0.0837  0.7858 -0.2795
 3339TIP3   OH231507   5.573   3.161   4.669  0.2319 -0.0218  0.1276
 3339TIP3    H131508   5.566   3.238   4.612 -1.7516  0.1274  0.5178
 3339TIP3    H231509   5.600   3.091   4.610 -1.1112  0.2782 -0.9058
 3340TIP3   OH231510   2.343   2.514   1.276  0.5172 -0.0866  0.1053
 3340TIP3    H131511   2.284   2.572   1.324  0.2401 -0.7918  0.6258
 3340TIP3    H231512   2.387   2.572   1.213  0.0339  0.6317  0.4138
 3341TIP3   OH231513   1.295   6.707   0.130 -0.1189 -0.6933 -0.5186
 3341TIP3    H131514   1.335   6.751   0.205  2.3416 -2.1485 -0.8747
 3341TIP3    H231515   1.314   6.764   0.056 -0.5742 -0.3522 -0.3757
 3342TIP3   OH231516   6.682   0.285   5.832  0.3274  0.0531  0.1257
 3342TIP3    H131517   6.742   0.357   5.850  0.8644 -0.6215  1.0982
 3342TIP3    H231518   6.627   0.279   5.909  0.3901 -0.6723  0.1215
 3343TIP3   OH231519   2.704   0.185   4.026 -0.0510  0.0561 -0.0126
 3343TIP3    H131520   2.674   0.095   4.017 -0.9630  0.4127 -0.6285
 3343TIP3    H231521   2.799   0.177   4.038  0.1886 -0.9083 -2.0479
 3344TIP3   OH231522   4.786   6.718  11.001  0.0728  1.5261 -0.0346
 3344TIP3    H131523   4.751   6.797  11.042 -1.9349  1.0477 -0.6940
 3344TIP3    H231524   4.710   6.659  10.995  1.8044 -1.0867  1.8439
 3345TIP3   OH231525   1.810   4.090  11.317  0.4103  0.1040  0.1163
 3345TIP3    H131526   1.745   4.069  11.250 -1.2419  0.2912  1.6015
 3345TIP3    H231527   1.801   4.020  11.382  0.5624  1.0004  1.1326
 3346TIP3   OH231528   5.115   1.977   1.855  0.3575  0.2335  0.1367
 3346TIP3    H131529   5.030   2.011   1.883  0.0861 -0.3155 -0.0094
 3346TIP3    H231530   5.175   2.001   1.926 -0.0753 -0.0591  0.6093
 3347TIP3   OH231531   1.659   5.677  15.036 -0.5441 -0.2109 -0.6015
 3347TIP3    H131532   1.614   5.730  15.103  0.8590  1.0283 -0.5869
 3347TIP3    H231533   1.689   5.599  15.084 -1.4352 -0.3787 -0.2975
 3348TIP3   OH231534   6.307   5.584   4.369  0.1641 -0.6436 -0.5602
 3348TIP3    H131535   6.312   5.489   4.358  0.0587 -0.4902 -2.1814
 3348TIP3    H231536   6.355   5.619   4.294  1.2635  0.5983  0.6748
 3349TIP3   OH231537   3.564   4.322   2.461 -0.0235 -0.3710 -0.4422
 3349TIP3    H131538   3.480   4.276   2.455 -0.8355  0.9841  0.0507
 3349TIP3    H231539   3.619   4.263   2.513 -1.1239 -0.6742  0.4501
 3350TIP3   OH231540   2.079   2.573  13.274  0.2915  0.5650  0.3722
 3350TIP3    H131541   2.042   2.493  13.236  0.9763  0.1023  0.6472
 3350TIP3    H231542   2.003   2.629  13.293 -0.1904  0.0057  0.1159
 3351TIP3   OH231543   1.766   0.681   4.889 -0.3638 -0.0864  0.4609
 3351TIP3    H131544   1.852   0.684   4.930  0.0240 -1.2349 -0.2059
 3351TIP3    H231545   1.716   0.619   4.942  0.0974 -1.4700 -0.6571
 3352TIP3   OH231546   5.531   4.751   2.131  0.0845 -0.4257  0.0598
 3352TIP3    H131547   5.451   4.705   2.154 -1.0837  0.1748 -2.4681
 3352TIP3    H231548   5.557   4.795   2.212 -1.8707 -1.0075  1.0662
 3353TIP3   OH231549   6.779   5.409  13.999  0.0641 -0.1295  0.4422
 3353TIP3    H131550   6.850   5.429  14.058 -0.0799  1.1054  0.2162
 3353TIP3    H231551   6.730   5.491  13.990 -0.4152 -0.5141 -0.7030
 3354TIP3   OH231552   6.327   1.010   3.434  0.1643 -0.2201  0.1225
 3354TIP3    H131553   6.312   1.076   3.501  0.5993  1.6123 -1.4929
 3354TIP3    H231554   6.244   1.002   3.388  0.9245  1.6818 -1.7358
 3355TIP3   OH231555   1.509   3.983  16.035 -0.1171 -0.3572  0.1520
 3355TIP3    H131556   1.566   4.045  16.079 -0.4763  0.6848 -0.8082
 3355TIP3    H231557   1.568   3.933  15.978  0.0291 -0.2253  0.1881
 3356TIP3   OH231558   5.056   0.872  15.477 -0.5984 -0.4255 -0.0938
 3356TIP3    H131559   4.990   0.886  15.545 -0.0589 -0.2960  0.4044
 3356TIP3    H231560   5.034   0.935  15.409 -0.4270  0.2654  0.4840
 3357TIP3   OH231561   3.755   3.875  11.077 -0.1488 -0.2223  0.1553
 3357TIP3    H131562   3.745   3.877  11.172 -3.2667 -0.0399 -0.0798
 3357TIP3    H231563   3.696   3.806  11.048  1.1389 -0.6404 -1.6689
 3358TIP3   OH231564   3.546   1.539   6.022 -0.3613  0.0132 -0.0902
 3358TIP3    H131565   3.548   1.541   6.118  0.2005  2.2829 -0.0907
 3358TIP3    H231566   3.601   1.465   5.998  0.9408  0.4665  1.3428
 3359TIP3   OH231567   1.512   6.652   4.762 -0.2929 -0.6486  0.3670
 3359TIP3    H131568   1.566   6.730   4.772  1.6019 -1.4148 -2.6039
 3359TIP3    H231569   1.429   6.685   4.728 -0.0333  0.1789  0.5121
 3360TIP3   OH231570   4.182   6.249  12.219  0.7553 -0.4102  0.5247
 3360TIP3    H131571   4.185   6.168  12.168  1.5054  0.3721 -0.7264
 3360TIP3    H231572   4.109   6.236  12.280  0.6057 -1.8612  0.0812
 3361TIP3   OH231573   0.885   0.148   2.048 -0.8779  0.2312 -0.4273
 3361TIP3    H131574   0.930   0.073   2.088  0.8172  0.9345 -0.9062
 3361TIP3    H231575   0.891   0.217   2.114 -0.2396  0.6644 -0.9258
 3362TIP3   OH231576   0.252   4.105  12.013 -0.2736  0.0538  0.3949
 3362TIP3    H131577   0.181   4.166  12.035  0.4611  0.7285  0.9938
 3362TIP3    H231578   0.332   4.151  12.041  0.4703 -0.3387 -1.0212
 3363TIP3   OH231579   0.544   1.882   1.945 -0.1422  0.4188 -0.2448
 3363TIP3    H131580   0.492   1.848   1.872 -2.5277 -0.1092  1.5696
 3363TIP3    H231581   0.487   1.949   1.985  0.3796 -0.4428  2.0713
 3364TIP3   OH231582   1.138   0.143   3.311  0.1901 -0.2112 -0.2825
 3364TIP3    H131583   1.047   0.142   3.281 -0.5302 -0.4058  1.7022
 3364TIP3    H231584   1.173   0.226   3.280 -1.8712  1.6588  2.0172
 3365TIP3   OH231585   3.672   1.650   0.240  0.1854 -0.0439 -0.1835
 3365TIP3    H131586   3.723   1.571   0.223  0.9653  0.2998  0.4726
 3365TIP3    H231587   3.672   1.658   0.335  1.9104  1.8611 -0.2732
 3366TIP3   OH231588   5.138   6.526  17.014  0.5775  0.1628  0.0741
 3366TIP3    H131589   5.086   6.450  17.043 -0.2821  0.0128 -1.7416
 3366TIP3    H231590   5.207   6.489  16.959 -0.3880  0.7162 -1.5702
 3367TIP3   OH231591   1.036   6.815   4.467 -0.1016  1.0230  0.1314
 3367TIP3    H131592   1.033   6.721   4.453 -1.2353  1.0088  0.3402
 3367TIP3    H231593   1.002   6.853   4.386  0.8909  1.2849 -0.1710
 3368TIP3   OH231594   1.272   3.992  10.710  0.0820  0.0810 -0.2794
 3368TIP3    H131595   1.193   3.939  10.723  0.4060 -0.1312  1.0159
 3368TIP3    H231596   1.304   3.966  10.624  0.4979 -2.2752  0.4895
 3369TIP3   OH231597   0.424   0.104  10.850 -0.2933 -0.4193 -0.6136
 3369TIP3    H131598   0.391   0.077  10.936  2.5054 -1.5310  0.2432
 3369TIP3    H231599   0.470   0.185  10.866 -2.2208  0.9908 -1.7385
 3370TIP3   OH231600   1.337   1.896  15.494 -0.2386 -0.5666 -0.2743
 3370TIP3    H131601   1.317   1.813  15.451 -0.7416  0.1727 -1.5524
 3370TIP3    H231602   1.288   1.961  15.443  0.0495  0.5021  0.7632
 3371TIP3   OH231603   2.085   4.374   6.344  0.0117  0.4846 -0.4071
 3371TIP3    H131604   2.091   4.371   6.439  0.1472  0.7014 -0.4078
 3371TIP3    H231605   2.025   4.303   6.321  0.0453  0.3789 -0.1668
 3372TIP3   OH231606   1.278   0.414  13.543 -0.1075  0.6295  0.0103
 3372TIP3    H131607   1.227   0.416  13.624  0.2698  2.4328  0.2653
 3372TIP3    H231608   1.354   0.470  13.561  0.2139  0.7122 -1.4456
 3373TIP3   OH231609   1.057   4.435  15.322 -0.1125  0.5886  0.1881
 3373TIP3    H131610   1.057   4.345  15.291 -2.6037  1.4102 -2.6540
 3373TIP3    H231611   1.072   4.488  15.243  0.6780  2.7142  1.6597
 3374TIP3   OH231612   1.228   2.797  11.539 -0.1608 -0.3726  0.1581
 3374TIP3    H131613   1.177   2.859  11.591 -1.1476 -1.3181  0.3745
 3374TIP3    H231614   1.314   2.838  11.529 -0.8045  1.0450  0.2122
 3375TIP3   OH231615   2.407   4.603  12.036 -0.4984  0.2541 -0.3131
 3375TIP3    H131616   2.382   4.533  12.096 -1.9332  0.0052 -1.1329
 3375TIP3    H231617   2.340   4.670  12.048  0.2966  1.0556 -0.2550
 3376TIP3   OH231618   6.250   0.461  11.136  0.4133  0.2389  0.4187
 3376TIP3    H131619   6.318   0.396  11.150  1.2895  1.1232  0.3429
 3376TIP3    H231620   6.216   0.480  11.223  0.8260  0.3881  0.5485
 3377TIP3   OH231621   0.832   5.753  11.575  0.0189  0.1862 -0.1560
 3377TIP3    H131622   0.853   5.835  11.619  0.6570 -0.6968  1.2768
 3377TIP3    H231623   0.803   5.695  11.645 -3.7989  0.1450 -1.5207
 3378TIP3   OH231624   0.046   0.413  15.435 -0.1366 -0.0385 -0.5519
 3378TIP3    H131625   0.138   0.439  15.445  0.2535 -1.5611  0.1227
 3378TIP3    H231626   0.031   0.412  15.341  0.5157  0.3017 -0.6646
 3379TIP3   OH231627   2.706   4.647  11.097  0.1581  0.2386  0.0221
 3379TIP3    H131628   2.743   4.730  11.066  1.2488 -0.1300  0.3034
 3379TIP3    H231629   2.752   4.580  11.047  1.8012 -0.3659  2.1789
 3380TIP3   OH231630   6.019   1.516   1.982  0.2696 -0.1551  0.1073
 3380TIP3    H131631   6.015   1.432   2.029  1.9845 -1.1825 -1.4384
 3380TIP3    H231632   6.109   1.545   1.992 -0.1672  1.2542  0.1417
 3381TIP3   OH231633   6.850   0.076  15.005  0.5336 -0.5788 -0.3207
 3381TIP3    H131634   6.870   0.170  15.004  1.2866 -0.7286 -0.9782
 3381TIP3    H231635   6.757   0.071  15.028  0.3613  0.3572 -0.7728
 3382TIP3   OH231636   1.663   5.093  10.889  0.1678 -0.3294 -0.0656
 3382TIP3    H131637   1.581   5.066  10.848 -0.5148  0.2823  0.8328
 3382TIP3    H231638   1.636   5.157  10.956  1.1792 -1.5292  1.5687
 3383TIP3   OH231639   3.356   1.959   6.147 -0.2018  0.7493  0.4115
 3383TIP3    H131640   3.292   1.888   6.154 -0.1238  0.2947 -2.2741
 3383TIP3    H231641   3.303   2.038   6.139 -0.5877  0.3407 -2.1622
 3384TIP3   OH231642   0.759   4.030  14.172  0.0692  0.2362 -0.0194
 3384TIP3    H131643   0.780   3.990  14.257 -1.3603 -1.3220 -0.3359
 3384TIP3    H231644   0.695   4.097  14.193 -2.5871 -2.0973 -0.0275
 3385TIP3   OH231645   1.724   3.080   0.741 -0.4683  0.1640 -0.0955
 3385TIP3    H131646   1.661   3.150   0.758 -0.5214 -0.2612  1.7422
 3385TIP3    H231647   1.804   3.109   0.786  0.1958  0.0329 -1.1727
 3386TIP3   OH231648   2.155   1.402   6.697  0.0866  0.7347 -0.1080
 3386TIP3    H131649   2.202   1.467   6.748  1.1142  0.3445 -0.5469
 3386TIP3    H231650   2.197   1.318   6.719  0.3568  0.5243 -1.3598
 3387TIP3   OH231651   5.182   1.708  14.813 -0.3046 -0.0472  0.5971
 3387TIP3    H131652   5.172   1.716  14.718  1.2116  0.7420  0.4714
 3387TIP3    H231653   5.105   1.751  14.849 -1.0350 -0.5966 -0.2595
 3388TIP3   OH231654   1.241   3.052  16.017  0.5479  0.2027 -0.0126
 3388TIP3    H131655   1.252   3.059  16.112  1.1817 -0.5719 -0.0174
 3388TIP3    H231656   1.230   3.142  15.987 -1.0746  0.3734  0.9433
 3389TIP3   OH231657   3.025   6.712   5.640 -0.6621  0.3465 -0.0407
 3389TIP3    H131658   2.950   6.668   5.681 -0.2713 -0.4299 -0.1328
 3389TIP3    H231659   3.065   6.644   5.586 -0.3907  0.9979 -0.6572
 3390TIP3   OH231660   1.042   1.752  11.585 -0.3038  0.3150 -0.1744
 3390TIP3    H131661   1.038   1.660  11.612 -1.5931  0.5207  0.4134
 3390TIP3    H231662   1.105   1.753  11.513 -0.2952 -1.0345 -0.2110
 3391TIP3   OH231663   2.513   6.279  13.943  0.1658 -0.7382 -0.4611
 3391TIP3    H131664   2.419   6.290  13.927 -0.1728 -0.5038  1.4620
 3391TIP3    H231665   2.519   6.195  13.990  0.8302 -0.4380  0.0006
 3392TIP3   OH231666   3.448   0.974   2.287  0.1160  0.0115  0.2875
 3392TIP3    H131667   3.464   0.998   2.379 -1.9875 -1.1961  1.0487
 3392TIP3    H231668   3.490   0.889   2.277  0.0771 -0.0015  0.2351
 3393TIP3   OH231669   1.627   1.744   3.277 -0.1625  0.0058 -0.1358
 3393TIP3    H131670   1.707   1.794   3.264  0.2286 -0.4518  0.4354
 3393TIP3    H231671   1.641   1.661   3.231 -0.8385  0.4368 -1.1463
 3394TIP3   OH231672   1.830   0.650   4.611  0.2178  0.4856  0.3000
 3394TIP3    H131673   1.881   0.570   4.619  0.3717  0.5598  0.0453
 3394TIP3    H231674   1.761   0.641   4.678  1.3964  1.0198  1.6488
 3395TIP3   OH231675   5.908   1.565   4.246  0.2910 -0.3168  0.5273
 3395TIP3    H131676   5.842   1.517   4.196  1.1469 -1.6171  0.5995
 3395TIP3    H231677   5.970   1.595   4.180 -1.1037  2.3083  0.2383
 3396TIP3   OH231678   4.771   4.569  15.120  0.1296  0.1093  0.0091
 3396TIP3    H131679   4.761   4.662  15.101  1.4986  0.6386  1.5728
 3396TIP3    H231680   4.778   4.527  15.034 -0.9429  1.3644 -0.7303
 3397TIP3   OH231681   5.921   5.508   1.321 -0.1806  0.0561 -0.4065
 3397TIP3    H131682   6.012   5.484   1.338 -0.5177 -0.8332  0.2475
 3397TIP3    H231683   5.893   5.449   1.251 -1.1318 -1.8514  1.4775
 3398TIP3   OH231684   6.238   3.154   1.736  0.4606 -0.3340 -0.1599
 3398TIP3    H131685   6.174   3.136   1.667 -0.1253 -2.6347  0.8739
 3398TIP3    H231686   6.186   3.179   1.812  0.8697 -0.8858  0.3120
 3399TIP3   OH231687   1.151   5.440  11.825 -0.5708  0.2240  0.1130
 3399TIP3    H131688   1.235   5.421  11.783  0.1048  0.2548  1.4097
 3399TIP3    H231689   1.094   5.368  11.798  0.2699 -0.5156  0.2647
 3400TIP3   OH231690   5.632   5.458   0.722 -0.5058 -0.1097  0.4001
 3400TIP3    H131691   5.717   5.417   0.742 -0.5588 -0.2706  0.2989
 3400TIP3    H231692   5.622   5.449   0.628  0.2084  1.5686  0.1396
 3401TIP3   OH231693   5.216   1.385  14.617 -0.3498 -0.2185  0.4530
 3401TIP3    H131694   5.181   1.418  14.534 -1.2813 -2.7483 -0.2718
 3401TIP3    H231695   5.141   1.344  14.660  0.6487 -1.1816  1.3248
 3402TIP3   OH231696   1.477   1.974  14.804  0.4483  0.7973  0.0571
 3402TIP3    H131697   1.435   1.891  14.827 -0.6743  1.3807  0.1700
 3402TIP3    H231698   1.468   1.979  14.708 -0.5914  1.3545  0.1732
 3403TIP3   OH231699   4.727   2.198  13.334  0.0858  0.0174 -0.0462
 3403TIP3    H131700   4.736   2.216  13.241 -2.3834 -0.3360 -0.4122
 3403TIP3    H231701   4.756   2.279  13.377  3.4358 -0.5810 -0.9176
 3404TIP3   OH231702   2.014   3.870   0.301  0.4017  0.2633 -0.4665
 3404TIP3    H131703   2.012   3.925   0.222  2.0583 -1.6670 -1.9641
 3404TIP3    H231704   1.950   3.801   0.284 -1.6171  1.5688  1.3693
 3405TIP3   OH231705   3.210   3.632   3.566  0.4607  0.0017 -0.8031
 3405TIP3    H131706   3.296   3.591   3.562 -0.3645 -1.8124 -1.0340
 3405TIP3    H231707   3.222   3.710   3.621  1.7367 -1.5450  1.2412
 3406TIP3   OH231708   6.683   2.742  11.953 -0.6022 -0.0135  0.0656
 3406TIP3    H131709   6.664   2.829  11.920 -1.3556 -0.2763 -0.2192
 3406TIP3    H231710   6.723   2.696  11.879  1.0679  0.4902  0.6157
 3407TIP3   OH231711   0.432   4.495   1.982 -0.1579 -0.1507 -0.8740
 3407TIP3    H131712   0.481   4.444   1.917 -0.8940 -0.2176 -1.3940
 3407TIP3    H231713   0.359   4.532   1.932 -1.5325 -1.3274  0.1831
 3408TIP3   OH231714   5.977   5.062   6.754 -0.0899 -0.7558  0.1418
 3408TIP3    H131715   5.982   5.059   6.659 -0.2784  0.6608  0.0702
 3408TIP3    H231716   6.015   4.978   6.782 -0.1323 -1.2385 -1.1663
 3409TIP3   OH231717   0.405   0.024   4.339 -0.4121  0.0995 -0.1888
 3409TIP3    H131718   0.457  -0.020   4.272 -1.0944 -0.3176 -0.4577
 3409TIP3    H231719   0.321   0.042   4.297 -1.0139 -0.5750  0.6720
 3410TIP3   OH231720   1.462   5.856  16.903 -0.2685  0.0048 -0.2123
 3410TIP3    H131721   1.392   5.917  16.924 -0.3078 -0.2326  0.3619
 3410TIP3    H231722   1.453   5.786  16.968  1.0092  0.3873  0.4191
 3411TIP3   OH231723   0.008   1.857   2.504  0.1358 -0.3601 -0.2353
 3411TIP3    H131724  -0.035   1.795   2.444  0.1985 -0.2035 -0.4444
 3411TIP3    H231725   0.028   1.805   2.582 -0.6750 -0.3755 -0.0276
 3412TIP3   OH231726   6.075   4.947   5.081  0.4733  0.4849 -0.2629
 3412TIP3    H131727   6.058   4.922   5.172  0.9604 -0.3627 -0.3880
 3412TIP3    H231728   6.101   4.865   5.038  0.1720  0.8579 -1.1894
 3413TIP3   OH231729   5.856   3.783  11.192 -0.4393 -0.2385  0.0702
 3413TIP3    H131730   5.882   3.861  11.143  0.4704  0.6200  1.8444
 3413TIP3    H231731   5.891   3.710  11.141  2.1347  0.7135  0.3426
 3414TIP3   OH231732   6.046   2.142   4.331 -0.1128  0.0074  0.2970
 3414TIP3    H131733   6.121   2.094   4.367 -0.0936  0.1701  0.4774
 3414TIP3    H231734   6.039   2.111   4.241  0.4640  0.3310  0.1349
 3415TIP3   OH231735   6.521   1.177  13.036  0.1013 -0.0208  0.6122
 3415TIP3    H131736   6.557   1.091  13.015  1.5979  0.2093  2.0139
 3415TIP3    H231737   6.586   1.239  13.001 -0.7917  0.5419 -0.0846
 3416TIP3   OH231738   5.320   2.239  14.958  0.5795 -0.2420  0.0118
 3416TIP3    H131739   5.315   2.173  14.889  1.7509  0.3817 -0.7030
 3416TIP3    H231740   5.258   2.307  14.930  1.2129  0.1159 -0.5847
 3417TIP3   OH231741   1.707   5.923  13.793  0.5141  0.4024 -0.2202
 3417TIP3    H131742   1.782   5.973  13.761  0.9164 -0.1186 -0.0974
 3417TIP3    H231743   1.694   5.855  13.727 -0.7315  1.3169 -0.9691
 3418TIP3   OH231744   5.552   3.623   5.125  0.7566  0.8928 -0.2383
 3418TIP3    H131745   5.531   3.564   5.197  1.4022  2.5097  1.3671
 3418TIP3    H231746   5.498   3.593   5.052  0.6339 -1.2703  0.6746
 3419TIP3   OH231747   6.708   6.166  15.408  0.1252 -0.7922 -0.2263
 3419TIP3    H131748   6.707   6.261  15.425 -0.2725 -0.7785 -0.3005
 3419TIP3    H231749   6.800   6.142  15.411  0.4422 -0.0507 -2.0581
 3420TIP3   OH231750   1.228   5.538  16.330  0.6879  0.3304 -0.1875
 3420TIP3    H131751   1.224   5.561  16.238 -0.0303 -0.2636 -0.3147
 3420TIP3    H231752   1.166   5.465  16.340  2.2841 -1.0291  0.3428
 3421TIP3   OH231753   6.622   6.094   4.439  0.0646  0.6977 -0.2659
 3421TIP3    H131754   6.642   6.154   4.367 -0.8367 -0.2996 -1.3841
 3421TIP3    H231755   6.628   6.006   4.400  2.8101 -0.1186  1.6378
 3422TIP3   OH231756   1.562   4.976  12.492 -0.2936 -0.6216  0.1221
 3422TIP3    H131757   1.612   5.048  12.532  1.8569 -1.8282 -0.2059
 3422TIP3    H231758   1.517   4.934  12.566  0.1247 -0.2005  0.6262
 3423TIP3   OH231759   4.223   4.351  13.051  0.0147 -0.8479 -0.4648
 3423TIP3    H131760   4.254   4.401  13.126  1.0102  0.4357 -1.6755
 3423TIP3    H231761   4.134   4.383  13.036  1.2159  2.0832 -2.3147
 3424TIP3   OH231762   1.847   3.984   4.928  0.2041 -0.5909  0.2577
 3424TIP3    H131763   1.805   3.913   4.879 -0.8961  0.4931 -0.4446
 3424TIP3    H231764   1.795   3.993   5.008  0.0949 -0.3328  0.1609
 3425TIP3   OH231765   5.022   3.021   1.741  0.7154  0.1409 -0.9737
 3425TIP3    H131766   4.981   3.096   1.698 -0.4068  0.1070 -0.0350
 3425TIP3    H231767   4.955   2.952   1.739  1.8738 -1.0008 -2.1976
 3426TIP3   OH231768   5.432   3.721  13.754 -0.4142 -0.1815  0.2747
 3426TIP3    H131769   5.511   3.757  13.713  0.3798 -2.2495 -0.1380
 3426TIP3    H231770   5.451   3.627  13.763 -3.0703 -0.8680 -0.4278
 3427TIP3   OH231771   3.366   2.490  11.473  0.0698  0.0513  0.1057
 3427TIP3    H131772   3.315   2.567  11.446  1.0319  0.9362  0.7615
 3427TIP3    H231773   3.446   2.525  11.511  0.4939 -1.2810  0.5194
 3428TIP3   OH231774   6.287   1.316   1.422 -0.2022 -0.0247 -0.0155
 3428TIP3    H131775   6.362   1.367   1.392  0.2727  0.2210  1.5372
 3428TIP3    H231776   6.321   1.262   1.493 -1.4950  0.1945  0.8107
 3429TIP3   OH231777   4.308   0.456   1.052 -0.1083  0.3443  0.1592
 3429TIP3    H131778   4.330   0.457   0.958  1.7896  1.9665  0.5566
 3429TIP3    H231779   4.391   0.474   1.096 -0.9713 -0.3409  2.1882
 3430TIP3   OH231780   6.463   6.243  14.814 -0.1351  0.1869 -0.0787
 3430TIP3    H131781   6.470   6.339  14.819  0.7762  0.3602 -2.8583
 3430TIP3    H231782   6.442   6.226  14.722  0.8832 -2.3262  0.0907
 3431TIP3   OH231783   0.960   2.274  11.950 -0.2496  0.7724  0.0191
 3431TIP3    H131784   1.027   2.317  11.897 -0.2462  1.9379  0.9307
 3431TIP3    H231785   0.932   2.199  11.897  1.3385  0.6022 -0.6376
 3432TIP3   OH231786   6.047   3.115   4.858 -0.1485  0.0668 -0.1011
 3432TIP3    H131787   6.138   3.111   4.827  0.6312 -0.7752  2.1067
 3432TIP3    H231788   6.034   3.206   4.884  0.4648 -0.0444  0.6247
 3433TIP3   OH231789   1.681   0.465  13.724 -0.0778  0.8257  0.5448
 3433TIP3    H131790   1.760   0.516  13.708 -0.4159  1.2836  0.3141
 3433TIP3    H231791   1.705   0.376  13.698  0.8328  0.6385  1.8957
 3434TIP3   OH231792   1.670   0.285   1.722 -0.0335 -0.0555  0.1528
 3434TIP3    H131793   1.670   0.304   1.628  0.0608  2.6338  0.6031
 3434TIP3    H231794   1.763   0.273   1.743 -0.1603 -2.1348 -0.2919
 3435TIP3   OH231795   3.996   4.025  12.780  0.1414  0.1442 -0.3012
 3435TIP3    H131796   4.063   4.085  12.814  0.6006 -0.2190 -0.5642
 3435TIP3    H231797   4.045   3.952  12.743 -0.4242 -0.5714  0.3243
 3436TIP3   OH231798   2.524   0.593  12.871 -0.1336 -0.1999  0.4711
 3436TIP3    H131799   2.585   0.598  12.945  1.0776  0.7417 -0.5512
 3436TIP3    H231800   2.565   0.532  12.810  0.0404  0.8126 -0.4467
 3437TIP3   OH231801   3.323   2.188   3.288  0.5950 -0.1849  0.0778
 3437TIP3    H131802   3.273   2.107   3.274 -1.7630  0.9840  1.1694
 3437TIP3    H231803   3.309   2.240   3.210 -1.0395  0.6624  0.8925
 3438TIP3   OH231804   6.155   5.810   0.212  0.2250  0.3972 -0.0703
 3438TIP3    H131805   6.251   5.813   0.206  0.3326 -1.7705 -0.4765
 3438TIP3    H231806   6.136   5.719   0.235 -1.7688  0.6029 -0.7154
 3439TIP3   OH231807   2.490   0.141   3.344 -0.5475  0.4656 -0.1832
 3439TIP3    H131808   2.476   0.223   3.296 -0.1758  0.5453 -0.1540
 3439TIP3    H231809   2.463   0.160   3.434  0.3088  0.7945  0.0086
 3440TIP3   OH231810   2.557   5.347  16.772 -0.2310 -0.5633  0.3062
 3440TIP3    H131811   2.561   5.326  16.678  0.5993  0.5939  0.0628
 3440TIP3    H231812   2.557   5.442  16.775  0.8207 -0.5774  1.5256
 3441TIP3   OH231813   4.615   1.037  16.424 -0.1616  0.0307 -0.1804
 3441TIP3    H131814   4.529   1.007  16.455 -1.0605  1.9763 -0.6250
 3441TIP3    H231815   4.672   1.031  16.501 -1.4535  1.4434  0.9525
 3442TIP3   OH231816   6.744   6.653  14.138  0.4229 -0.4045 -0.1395
 3442TIP3    H131817   6.783   6.571  14.170  0.7441 -0.9256 -1.7718
 3442TIP3    H231818   6.652   6.631  14.123  0.5420 -0.5134 -0.7192
 3443TIP3   OH231819   3.185   4.676   2.114 -0.3545  0.1367  0.4363
 3443TIP3    H131820   3.119   4.657   2.181 -0.0832 -0.2296  0.6015
 3443TIP3    H231821   3.249   4.731   2.159  0.9206 -1.7757  1.1100
 3444TIP3   OH231822   1.798   1.281  11.215  0.1051  0.7358 -0.2908
 3444TIP3    H131823   1.886   1.248  11.234 -0.8237 -0.7745  1.8588
 3444TIP3    H231824   1.795   1.368  11.255  0.5358  0.6728 -0.1214
 3445TIP3   OH231825   2.026   1.093   1.796 -0.0684 -0.0010  0.1361
 3445TIP3    H131826   1.980   1.152   1.856 -2.7511 -0.3965 -1.3662
 3445TIP3    H231827   2.118   1.121   1.800 -0.0295 -0.0966  4.4317
 3446TIP3   OH231828   5.541   5.730  13.101  0.4061 -0.5533 -0.4523
 3446TIP3    H131829   5.563   5.759  13.013  0.4974  0.4035 -0.1189
 3446TIP3    H231830   5.445   5.734  13.104  0.2491 -2.4954 -1.1354
 3447TIP3   OH231831   4.574   0.080   0.694  0.4310 -0.2413 -0.0933
 3447TIP3    H131832   4.529   0.063   0.777  0.6920 -2.1425 -0.2857
 3447TIP3    H231833   4.631   0.003   0.682  0.2463 -0.1045 -2.1243
 3448TIP3   OH231834   1.684   0.269  11.710 -0.6090  0.1249  0.1668
 3448TIP3    H131835   1.618   0.317  11.660 -0.3658 -0.2245 -0.5066
 3448TIP3    H231836   1.641   0.186  11.731 -1.5780  1.1743  2.6360
 3449TIP3   OH231837   4.086   0.854   1.094  0.4120  0.4714  0.5423
 3449TIP3    H131838   4.007   0.802   1.110  1.0155 -0.3497  0.9240
 3449TIP3    H231839   4.110   0.888   1.180  0.8957  0.0946  0.5614
 3450TIP3   OH231840   0.909   1.177  17.042  0.0733 -0.2901  0.1272
 3450TIP3    H131841   0.906   1.199  16.949  0.0273 -0.6278  0.0516
 3450TIP3    H231842   0.988   1.221  17.074  0.2799 -0.4623 -0.1428
 3451TIP3   OH231843   6.593   0.240  14.752 -0.1517 -0.5574  0.0673
 3451TIP3    H131844   6.644   0.200  14.682 -1.3103 -2.8676  0.4542
 3451TIP3    H231845   6.508   0.195  14.749 -0.8390  0.5084  1.8410
 3452TIP3   OH231846   1.751   3.545  14.054  0.1416  0.0021  0.4082
 3452TIP3    H131847   1.732   3.630  14.094 -0.3895  0.4882 -0.8265
 3452TIP3    H231848   1.831   3.561  14.003  0.6997 -0.5560  1.0979
 3453TIP3   OH231849   2.195   1.514   2.430 -0.1996  1.1973  0.4632
 3453TIP3    H131850   2.235   1.464   2.502 -1.4075 -1.2301 -0.4352
 3453TIP3    H231851   2.102   1.521   2.454 -0.4440  1.1607 -0.4337
 3454TIP3   OH231852   6.808   2.902  14.498  0.0367 -0.4951  0.5565
 3454TIP3    H131853   6.896   2.916  14.533  0.1773  0.7406 -0.2179
 3454TIP3    H231854   6.749   2.931  14.567  0.2515 -0.4235  0.7088
 3455TIP3   OH231855   4.581   6.600   1.262 -0.2139  0.6649 -0.2601
 3455TIP3    H131856   4.552   6.688   1.238 -1.7669  0.1923 -0.2171
 3455TIP3    H231857   4.650   6.580   1.200 -1.2356  1.1397 -1.6006
 3456TIP3   OH231858   6.103   4.690  14.704 -0.3669 -0.0043  0.1877
 3456TIP3    H131859   6.014   4.658  14.692 -0.3952  0.7455 -2.1562
 3456TIP3    H231860   6.134   4.709  14.615  1.5679  1.2448  1.0561
 3457TIP3   OH231861   3.969   2.132  14.407  0.3425  0.3532  0.2060
 3457TIP3    H131862   3.908   2.063  14.435 -0.4450 -0.3032 -2.7005
 3457TIP3    H231863   4.037   2.085  14.359 -0.4682  1.5140 -2.2683
 3458TIP3   OH231864   5.330   0.041  11.542  0.2108  0.3656 -0.5297
 3458TIP3    H131865   5.403   0.094  11.572  1.0314 -0.1607 -1.5227
 3458TIP3    H231866   5.254   0.075  11.590  0.8503  1.8536 -0.5097
 3459TIP3   OH231867   3.277   0.219   4.604 -0.4349 -0.2143  0.0598
 3459TIP3    H131868   3.294   0.233   4.698 -0.9677 -0.0434  0.1359
 3459TIP3    H231869   3.251   0.305   4.571  2.4433  0.3817 -0.8757
 3460TIP3   OH231870   0.225   3.642  15.158  1.1016 -0.3972 -0.1868
 3460TIP3    H131871   0.166   3.717  15.151  0.4553 -0.9611 -1.0583
 3460TIP3    H231872   0.194   3.595  15.235 -0.1032 -1.0792 -1.0415
 3461TIP3   OH231873   3.151   6.631  14.959  0.2797  0.1054 -0.1290
 3461TIP3    H131874   3.126   6.545  14.926 -0.2183 -0.2419  1.1104
 3461TIP3    H231875   3.128   6.629  15.051  0.9972  1.2968  0.0955
 3462TIP3   OH231876   0.487   2.241  14.505  0.2678 -0.1442 -0.0680
 3462TIP3    H131877   0.474   2.151  14.475  0.4815 -0.2885  0.2555
 3462TIP3    H231878   0.483   2.235  14.601  4.9189 -0.6595  0.3229
 3463TIP3   OH231879   3.653   3.931  16.556  0.1562  0.0049  0.1992
 3463TIP3    H131880   3.725   3.913  16.616  0.2002 -0.2412  0.0725
 3463TIP3    H231881   3.693   3.978  16.483  0.6377 -2.0658 -0.9737
 3464TIP3   OH231882   5.299   2.997   1.136  0.4294 -0.0480  0.7426
 3464TIP3    H131883   5.282   2.929   1.071  1.0698  0.2888  0.2099
 3464TIP3    H231884   5.392   3.017   1.125  0.5340  0.0254  1.7567
 3465TIP3   OH231885   2.743   6.834  13.827 -0.7916 -0.3759  0.1257
 3465TIP3    H131886   2.751   6.741  13.804 -2.3345 -0.0456 -1.9776
 3465TIP3    H231887   2.652   6.855  13.811 -0.4457  1.5519  0.4752
 3466TIP3   OH231888   5.265   2.874   3.455  0.0350  0.5655 -0.3330
 3466TIP3    H131889   5.201   2.870   3.526  1.9097  1.5603  1.5162
 3466TIP3    H231890   5.242   2.800   3.399 -1.8166  0.0110  1.0332
 3467TIP3   OH231891   6.772   0.710  12.576 -0.6455  0.2263  0.0988
 3467TIP3    H131892   6.750   0.696  12.484 -0.0585  0.5734 -0.0959
 3467TIP3    H231893   6.824   0.634  12.601 -1.4379 -0.2475  0.3662
 3468TIP3   OH231894   5.006   4.559   0.523  0.7310  0.1302  0.2023
 3468TIP3    H131895   5.044   4.476   0.493  0.4315  0.2694 -0.5919
 3468TIP3    H231896   4.922   4.564   0.478  0.2098  0.3035  1.1694
 3469TIP3   OH231897   1.718   1.621  15.633 -0.0214 -0.0782 -0.0900
 3469TIP3    H131898   1.711   1.708  15.673  0.6205 -0.0862  0.0458
 3469TIP3    H231899   1.775   1.572  15.692  0.4856 -0.2647 -0.7263
 3470TIP3   OH231900   0.178   3.285   5.375  0.2708 -0.2589 -0.6307
 3470TIP3    H131901   0.217   3.345   5.311  1.4006  0.3389  0.5788
 3470TIP3    H231902   0.101   3.332   5.408 -0.6355 -0.7941 -1.8990
 3471TIP3   OH231903   0.203   4.579   3.154 -0.0966 -0.7815 -0.2934
 3471TIP3    H131904   0.150   4.556   3.079  1.0921 -1.3086 -1.0097
 3471TIP3    H231905   0.181   4.514   3.221 -0.2556 -1.0694 -0.6270
 3472TIP3   OH231906   5.650   1.720  16.385  0.4020  0.5882 -0.0783
 3472TIP3    H131907   5.632   1.635  16.427  0.6996 -0.2992 -1.6893
 3472TIP3    H231908   5.650   1.701  16.291  0.3225  2.4148 -0.4794
 3473TIP3   OH231909   4.953   4.713   2.744 -0.4740 -0.7357  0.0511
 3473TIP3    H131910   5.000   4.692   2.826 -1.8590  1.6284  1.5674
 3473TIP3    H231911   4.862   4.726   2.771 -1.2447 -1.1396 -2.1388
 3474TIP3   OH231912   6.142   4.315  15.156 -0.6107 -0.6499 -0.1539
 3474TIP3    H131913   6.058   4.292  15.196 -0.4828  0.4349  0.7785
 3474TIP3    H231914   6.118   4.352  15.070 -1.1873  0.6258  0.5294
 3475TIP3   OH231915   4.747   6.335  16.894 -0.6860  0.3587  0.7577
 3475TIP3    H131916   4.694   6.408  16.926 -1.4415  0.7460 -1.2440
 3475TIP3    H231917   4.729   6.332  16.800  1.0006 -1.0489  0.4368
 3476TIP3   OH231918   2.925   0.913   0.702  0.1441 -0.4277  0.2468
 3476TIP3    H131919   2.990   0.973   0.740 -2.6091  2.7093  0.4811
 3476TIP3    H231920   2.891   0.864   0.776  0.6873 -0.4683  0.4711
 3477TIP3   OH231921   3.111   2.517   3.836  0.5207  0.3625  0.0619
 3477TIP3    H131922   3.051   2.540   3.906 -0.4963  0.0441 -0.6894
 3477TIP3    H231923   3.152   2.435   3.866 -0.6023 -0.2811 -0.1178
 3478TIP3   OH231924   3.427   2.450   2.070 -0.6401  0.6820 -0.4906
 3478TIP3    H131925   3.477   2.410   2.142  0.4626  1.1093 -1.0007
 3478TIP3    H231926   3.336   2.446   2.099 -0.5869 -2.0786 -0.4426
 3479TIP3   OH231927   4.758   2.868   1.710 -0.4827 -0.0663 -0.0159
 3479TIP3    H131928   4.788   2.777   1.720 -0.9283 -0.2656 -0.4343
 3479TIP3    H231929   4.733   2.875   1.617 -1.6321  0.1157  0.2951
 3480TIP3   OH231930   2.339   6.785  12.477 -0.2913  0.5216 -0.4723
 3480TIP3    H131931   2.397   6.861  12.480  0.1106  0.2528 -1.2045
 3480TIP3    H231932   2.264   6.810  12.531 -0.2602  1.5210 -0.8680
 3481TIP3   OH231933   0.786   0.473   5.876  0.7459 -0.1835 -0.3777
 3481TIP3    H131934   0.734   0.447   5.952  1.3940 -3.5041 -0.9114
 3481TIP3    H231935   0.731   0.536   5.830 -0.3353  0.7086  1.9532
 3482TIP3   OH231936   1.716   0.684  12.040 -0.1391  0.5811 -0.4110
 3482TIP3    H131937   1.660   0.721  12.108  0.5634  0.4314  0.2620
 3482TIP3    H231938   1.661   0.619  11.997  0.5111 -2.2084  2.5892
 3483TIP3   OH231939   3.545   2.829  17.075  0.6440 -0.2303 -0.0871
 3483TIP3    H131940   3.495   2.747  17.078  0.6216 -0.3756 -2.2880
 3483TIP3    H231941   3.483   2.895  17.106  0.4265 -0.9269  1.0276
 3484TIP3   OH231942   4.952   1.427  11.792  0.0254  1.4791 -0.1240
 3484TIP3    H131943   4.893   1.383  11.854 -0.8003 -1.3944 -2.7331
 3484TIP3    H231944   4.905   1.507  11.768 -1.8678  0.3263 -0.4980
 3485TIP3   OH231945   1.790   6.561   4.690  0.0350 -0.1537 -0.1127
 3485TIP3    H131946   1.758   6.649   4.707 -0.8640 -0.6494  0.8285
 3485TIP3    H231947   1.814   6.562   4.597 -2.0144  0.4786 -0.6850
 3486TIP3   OH231948   5.282   6.018  11.653 -0.0871 -0.2593  0.2611
 3486TIP3    H131949   5.263   5.983  11.566  0.5480  0.3052 -0.1202
 3486TIP3    H231950   5.356   5.966  11.685  0.0420 -0.1085  0.2169
 3487TIP3   OH231951   0.279   0.135  11.962 -0.2976  0.5197  0.0642
 3487TIP3    H131952   0.245   0.061  12.011  0.2527 -0.0800 -0.4490
 3487TIP3    H231953   0.328   0.096  11.889  0.5043  1.3738  0.1249
 3488TIP3   OH231954   3.906   5.722  10.915  0.1551 -0.0271 -0.1227
 3488TIP3    H131955   4.002   5.729  10.921  0.1348 -0.4369  1.0722
 3488TIP3    H231956   3.889   5.701  10.823  0.9943  2.8072 -1.0216
 3489TIP3   OH231957   3.519   2.338  11.837 -0.6743 -0.4521 -0.1327
 3489TIP3    H131958   3.579   2.273  11.874  1.4154  0.9114 -0.9615
 3489TIP3    H231959   3.478   2.378  11.914  1.4912  0.3964  0.6737
 3490TIP3   OH231960   0.644   3.592  14.539  0.2524  0.3073 -0.3417
 3490TIP3    H131961   0.632   3.497  14.533  0.9723  0.2782 -2.0872
 3490TIP3    H231962   0.565   3.628  14.500  0.0916  0.4283  0.0905
 3491TIP3   OH231963   3.137   3.671   2.402  0.2559 -0.1386  0.2570
 3491TIP3    H131964   3.158   3.710   2.317  0.2784 -1.9545 -0.6197
 3491TIP3    H231965   3.214   3.618   2.423 -0.3707 -0.8988  0.6673
 3492TIP3   OH231966   0.471   0.720   2.308  0.6167  0.5002 -0.2941
 3492TIP3    H131967   0.501   0.753   2.223  0.7278 -0.1455 -0.5094
 3492TIP3    H231968   0.400   0.659   2.286  1.7095 -0.9066 -0.0444
 3493TIP3   OH231969   3.281   5.605  14.410  0.2947  0.4375  0.0863
 3493TIP3    H131970   3.222   5.669  14.452  1.1495  0.7449  0.8401
 3493TIP3    H231971   3.335   5.658  14.351  1.2443  0.4884  0.9729
 3494TIP3   OH231972   4.405   5.354  14.870 -0.4858  0.2494 -0.0073
 3494TIP3    H131973   4.378   5.283  14.812  0.8399 -1.0625  0.9037
 3494TIP3    H231974   4.359   5.431  14.837 -3.7074 -1.3764  0.1863
 3495TIP3   OH231975   2.808   3.723  15.955 -0.4996 -0.4972  0.2712
 3495TIP3    H131976   2.798   3.701  16.048  0.1542 -1.1668  0.1985
 3495TIP3    H231977   2.731   3.775  15.934 -0.8412 -0.6509  1.1001
 3496TIP3   OH231978   5.318   1.275   4.907  0.3671  0.4930 -0.0788
 3496TIP3    H131979   5.384   1.338   4.938  0.4445  1.7140 -2.5169
 3496TIP3    H231980   5.369   1.203   4.869  0.2630 -0.0968  0.8610
 3497TIP3   OH231981   4.366   4.811  15.091  0.1733 -0.0283  0.1692
 3497TIP3    H131982   4.324   4.841  15.010 -0.4957 -1.9390 -0.2335
 3497TIP3    H231983   4.459   4.806  15.069 -0.1649 -2.1938 -1.1176
 3498TIP3   OH231984   5.021   1.432   3.759  0.5434 -0.5333 -0.1531
 3498TIP3    H131985   4.999   1.424   3.852 -0.4897  1.1748 -0.2106
 3498TIP3    H231986   5.071   1.513   3.752 -2.1401  1.1667 -1.4487
 3499TIP3   OH231987   5.798   1.152  11.532  0.8303  0.1634 -0.2599
 3499TIP3    H131988   5.712   1.176  11.566  0.2562 -2.7938  0.6987
 3499TIP3    H231989   5.860   1.194  11.591  0.0870  1.7831 -0.5594
 3500TIP3   OH231990   3.563   0.263  12.392  0.1609  0.4086  0.1669
 3500TIP3    H131991   3.616   0.270  12.471 -0.2386  1.4924  0.3565
 3500TIP3    H231992   3.474   0.283  12.420 -0.5578 -2.1405 -0.0001
 3501TIP3   OH231993   1.864   5.327  12.086  0.4489  0.3063 -0.1248
 3501TIP3    H131994   1.797   5.287  12.030 -0.2462  1.0857  0.1230
 3501TIP3    H231995   1.934   5.351  12.026 -0.4134  1.4047 -0.7435
 3502TIP3   OH231996   3.208   1.532  14.759  0.8441  1.2305 -0.5500
 3502TIP3    H131997   3.213   1.478  14.680  2.3565  1.6098 -0.7293
 3502TIP3    H231998   3.293   1.574  14.765 -0.0053  2.9442  0.0644
 3503TIP3   OH231999   6.274   0.890  14.117  0.3425 -0.0476 -0.2344
 3503TIP3    H132000   6.352   0.932  14.153  1.2278 -3.7240  2.8309
 3503TIP3    H232001   6.258   0.815  14.174 -4.8695 -0.2095 -1.3397
 3504TIP3   OH232002   1.609   4.376   4.574 -0.3223 -0.5442 -0.0211
 3504TIP3    H132003   1.642   4.294   4.611 -0.9751 -0.0352  1.7990
 3504TIP3    H232004   1.577   4.352   4.487  2.6695 -1.5032 -0.9824
 3505TIP3   OH232005   1.943   4.719   5.845 -0.3224  0.0823 -0.3466
 3505TIP3    H132006   1.888   4.797   5.840 -0.1074  0.3026  0.5875
 3505TIP3    H232007   1.936   4.690   5.936  0.4003 -0.4027 -0.4382
 3506TIP3   OH232008   1.912   6.615  16.528 -0.5360  0.2754  0.2021
 3506TIP3    H132009   1.927   6.553  16.600  2.4818  0.6315 -0.0083
 3506TIP3    H232010   1.852   6.569  16.469 -0.2392 -1.4744  1.2008
 3507TIP3   OH232011   6.637   1.206  14.078 -0.0475 -0.0690 -0.0371
 3507TIP3    H132012   6.569   1.207  14.145 -0.8980 -0.6818 -0.8650
 3507TIP3    H232013   6.590   1.211  13.995  0.8594 -1.1498 -0.6503
 3508TIP3   OH232014   6.156   3.190   2.780 -0.5636  0.1731  0.2372
 3508TIP3    H132015   6.190   3.276   2.806  0.5893 -0.9559  2.8904
 3508TIP3    H232016   6.232   3.144   2.746 -0.6667 -0.4846  0.8736
 3509TIP3   OH232017   5.959   2.168  12.100 -0.0026 -0.5943 -0.2234
 3509TIP3    H132018   5.961   2.261  12.123  0.8729 -0.7555  0.4302
 3509TIP3    H232019   5.973   2.166  12.006  1.1825 -0.0856 -0.0853
 3510TIP3   OH232020   5.983   6.439  15.563  0.1922  0.4266 -0.3743
 3510TIP3    H132021   6.004   6.504  15.631 -1.5137  1.8224 -1.0743
 3510TIP3    H232022   5.901   6.399  15.593 -0.2606  0.6333 -1.2839
 3511TIP3   OH232023   0.281   6.071   5.076  0.3559 -0.2184 -0.0243
 3511TIP3    H132024   0.281   6.108   4.988  0.0063  2.6405  1.0678
 3511TIP3    H232025   0.363   6.021   5.081  1.0343  0.6672 -1.5540
 3512TIP3   OH232026   6.232   3.543   1.985  0.0730 -0.1208  0.6023
 3512TIP3    H132027   6.218   3.637   1.999 -0.5218 -0.0621 -0.2879
 3512TIP3    H232028   6.162   3.518   1.926 -0.0456 -1.2352  1.2001
 3513TIP3   OH232029   4.285   0.908   4.929 -0.8736 -0.2786 -0.4282
 3513TIP3    H132030   4.251   0.890   5.017  0.0048 -1.5586 -0.3190
 3513TIP3    H232031   4.292   1.003   4.925 -2.7946 -0.0591  0.1563
 3514TIP3   OH232032   1.460   6.397  15.801 -0.1453 -0.2743  0.4316
 3514TIP3    H132033   1.383   6.451  15.818  0.6473  0.6098  1.2870
 3514TIP3    H232034   1.514   6.407  15.880  0.7533 -1.0453 -0.0709
 3515TIP3   OH232035   6.297   6.373  11.339  0.0125 -0.4599  0.3380
 3515TIP3    H132036   6.249   6.456  11.336 -1.6078 -1.3734 -1.7380
 3515TIP3    H232037   6.298   6.342  11.249  1.7251 -2.0989  0.8471
 3516TIP3   OH232038   6.829   4.868  11.882 -0.1057 -0.1319  0.5418
 3516TIP3    H132039   6.835   4.963  11.894  0.7761  0.0526 -0.9942
 3516TIP3    H232040   6.817   4.857  11.788  1.5368 -1.5630  0.4398
 3517TIP3   OH232041   0.816   2.124  11.704 -0.2897  0.2879  0.0144
 3517TIP3    H132042   0.844   2.201  11.654  0.6370  0.1248  0.2634
 3517TIP3    H232043   0.727   2.144  11.730 -0.3981  0.8575 -0.7506
 3518TIP3   OH232044   3.239   3.084  14.224 -0.3147  0.0655  0.4016
 3518TIP3    H132045   3.233   3.176  14.196 -0.0517  0.0478  0.2834
 3518TIP3    H232046   3.212   3.086  14.316 -2.1466 -0.0301 -0.1027
 3519TIP3   OH232047   6.411   2.742  16.886  0.9766  0.0640  0.4632
 3519TIP3    H132048   6.345   2.802  16.852 -0.2645 -1.0228  0.8746
 3519TIP3    H232049   6.492   2.768  16.841  0.6459  2.4065  1.0761
 3520TIP3   OH232050   0.309   6.436  16.510  0.7823  0.7005 -0.1407
 3520TIP3    H132051   0.246   6.468  16.575  0.7230  0.1124  0.0998
 3520TIP3    H232052   0.395   6.452  16.551  0.7492  0.4347  0.0323
 3521TIP3   OH232053   0.612   3.741  12.665  0.8894 -1.1140 -0.2958
 3521TIP3    H132054   0.586   3.649  12.662  2.1779 -1.4823 -1.0667
 3521TIP3    H232055   0.576   3.779  12.585 -1.1317 -0.4808  0.8443
 3522TIP3   OH232056   4.482   0.580  12.818  0.3050  0.2917 -0.3885
 3522TIP3    H132057   4.528   0.506  12.857 -0.0483  0.5868  0.6457
 3522TIP3    H232058   4.389   0.559  12.829  0.1982  0.4592 -0.9343
 3523TIP3   OH232059   4.420   5.517   3.642 -0.2592 -0.1649  0.1192
 3523TIP3    H132060   4.510   5.488   3.653 -0.1967  0.1122  0.3379
 3523TIP3    H232061   4.402   5.571   3.719 -0.7625 -0.6042  0.3184
 3524TIP3   OH232062   2.725   6.053  14.805 -0.4440  0.0999 -0.3393
 3524TIP3    H132063   2.744   6.015  14.891  0.9577 -0.1891 -0.7422
 3524TIP3    H232064   2.750   6.145  14.814 -0.7055  0.1699 -0.3190
 3525TIP3   OH232065   6.463   0.957  15.436 -0.0309  0.6102  0.6637
 3525TIP3    H132066   6.482   0.863  15.430  0.3060  0.6561  0.9674
 3525TIP3    H232067   6.438   0.982  15.347 -1.5614 -0.0605  0.8673
 3526TIP3   OH232068   0.275   1.572   3.861 -0.0570  0.7108 -0.5544
 3526TIP3    H132069   0.342   1.582   3.929  0.4309  2.8987 -1.2602
 3526TIP3    H232070   0.320   1.526   3.790  0.5514  1.5959 -0.7680
 3527TIP3   OH232071   3.505   2.819   3.355  0.2444  0.4416  0.6244
 3527TIP3    H132072   3.411   2.800   3.353  0.2701  0.3786 -0.3451
 3527TIP3    H232073   3.526   2.826   3.448 -0.3271 -1.5421  0.9507
 3528TIP3   OH232074   1.456   5.234  11.950  0.3314 -0.3215 -0.2434
 3528TIP3    H132075   1.438   5.285  11.872 -0.2701 -0.3679 -0.1401
 3528TIP3    H232076   1.547   5.206  11.940  0.3571 -0.0621 -0.7693
 3529TIP3   OH232077   5.699   5.692   2.538 -0.1188 -0.0712 -0.2262
 3529TIP3    H132078   5.779   5.641   2.546 -1.6625 -2.7209 -0.7173
 3529TIP3    H232079   5.650   5.672   2.617 -0.6631  0.8858 -0.3111
 3530TIP3   OH232080   1.637   1.381  14.281 -0.1244  0.4038  0.6724
 3530TIP3    H132081   1.598   1.395  14.367  0.9831  1.2511  1.0536
 3530TIP3    H232082   1.610   1.458  14.230  1.5229  1.3261  1.1315
 3531TIP3   OH232083   3.423   0.400   2.109 -0.1102  0.1270 -0.4037
 3531TIP3    H132084   3.481   0.447   2.050 -0.1294  2.5715  1.3549
 3531TIP3    H232085   3.455   0.422   2.197 -1.8241 -0.9574  0.5629
 3532TIP3   OH232086   3.730   2.086  15.569  0.1392 -0.2184  0.0786
 3532TIP3    H132087   3.750   2.155  15.632  0.0520 -0.0292 -0.1005
 3532TIP3    H232088   3.690   2.016  15.621  0.3627 -0.1945  0.2839
 3533TIP3   OH232089   0.970   3.310  15.935  0.3526 -0.3671 -0.6260
 3533TIP3    H132090   0.909   3.273  15.871  1.4584 -1.4309 -1.1133
 3533TIP3    H232091   0.960   3.254  16.013  0.0777 -0.0072 -0.4044
 3534TIP3   OH232092   0.800   1.173  13.576  0.4208  0.7876  0.5887
 3534TIP3    H132093   0.885   1.163  13.533  0.1125 -1.9335  0.4142
 3534TIP3    H232094   0.821   1.180  13.669  0.8644  1.0505  0.4688
 3535TIP3   OH232095   1.748   0.363   5.529  0.2606  0.4475 -0.6061
 3535TIP3    H132096   1.789   0.345   5.444  3.5553  0.0170  0.9020
 3535TIP3    H232097   1.745   0.278   5.572  0.3380  0.9117  0.3471
 3536TIP3   OH232098   0.782   2.300   5.028 -0.4566  0.3876 -0.2302
 3536TIP3    H132099   0.697   2.275   4.992  0.3482 -1.7075 -0.8346
 3536TIP3    H232100   0.829   2.336   4.953  0.1758 -1.2164 -0.6539
 3537TIP3   OH232101   6.311   5.100   5.818  0.2719  0.0019 -0.1502
 3537TIP3    H132102   6.372   5.173   5.812  0.3434 -0.1568 -1.9863
 3537TIP3    H232103   6.364   5.023   5.797 -0.4984 -0.1432 -1.7210
 3538TIP3   OH232104   5.744   2.438  16.386  0.2207 -0.5789  0.2935
 3538TIP3    H132105   5.778   2.352  16.359 -1.6100 -1.4561  0.6485
 3538TIP3    H232106   5.680   2.418  16.455  0.4369  1.1613  1.0509
 3539TIP3   OH232107   3.249   2.222   3.551 -0.3221 -0.1159 -0.5097
 3539TIP3    H132108   3.280   2.227   3.461  2.8429 -0.1768  0.4768
 3539TIP3    H232109   3.283   2.139   3.584 -4.6594 -2.0883 -0.2261
 3540TIP3   OH232110   1.120   2.558   0.110 -0.0750 -0.3549  1.0978
 3540TIP3    H132111   1.076   2.616   0.171 -0.4432  0.8511 -0.2650
 3540TIP3    H232112   1.189   2.516   0.162 -0.1446  0.8893  2.2368
 3541TIP3   OH232113   1.685   3.607   1.320 -0.3288 -0.0691  0.0697
 3541TIP3    H132114   1.697   3.514   1.304 -1.3613 -0.3923  1.0490
 3541TIP3    H232115   1.645   3.612   1.406  1.5791  1.3964  0.9571
 3542TIP3   OH232116   1.040   0.409   3.837  0.2830 -0.1295  0.1406
 3542TIP3    H132117   1.002   0.437   3.753  2.6027 -0.3142 -1.0519
 3542TIP3    H232118   1.121   0.459   3.845  0.5211 -0.7246  1.8975
 3543TIP3   OH232119   2.163   0.951  15.545 -0.2057  0.0345 -0.0212
 3543TIP3    H132120   2.072   0.923  15.538  0.4080 -2.2375  0.2254
 3543TIP3    H232121   2.214   0.870  15.537  1.7650  1.1282  0.6425
 3544TIP3   OH232122   3.310   4.981   0.656 -0.3322  0.8836 -0.0463
 3544TIP3    H132123   3.317   5.049   0.589  0.8928 -1.0409 -1.9825
 3544TIP3    H232124   3.390   4.989   0.707  0.2539  0.3377 -0.8609
 3545TIP3   OH232125   4.738   6.356  16.283  0.0932  0.3393 -0.4746
 3545TIP3    H132126   4.727   6.262  16.295 -0.3526  0.5926  1.4217
 3545TIP3    H232127   4.833   6.370  16.285  0.1233  0.1085  1.1876
 3546TIP3   OH232128   6.725   1.748  12.466  0.2601  0.0398 -0.2766
 3546TIP3    H132129   6.816   1.769  12.444 -0.0466  1.5972 -0.1961
 3546TIP3    H232130   6.730   1.704  12.551  0.9698 -0.3648 -0.5187
 3547TIP3   OH232131   3.636   0.923  11.267  0.2132  0.2309  0.2528
 3547TIP3    H132132   3.651   0.983  11.340 -0.6758  1.0841 -0.2450
 3547TIP3    H232133   3.718   0.873  11.260  0.2741  0.0771  1.8609
 3548TIP3   OH232134   0.067   6.826   1.061 -0.2297  0.0075 -0.2217
 3548TIP3    H132135  -0.005   6.833   1.124  0.0778 -1.3046  0.3023
 3548TIP3    H232136   0.130   6.892   1.089 -1.4955  1.6605 -1.0943
 3549TIP3   OH232137   3.605   5.810  13.892 -0.1772  0.2954 -0.7018
 3549TIP3    H132138   3.529   5.761  13.860  1.5412 -2.0252 -1.5618
 3549TIP3    H232139   3.653   5.833  13.813  1.0825 -0.1995 -0.1045
 3550TIP3   OH232140   6.042   0.030  12.849 -0.0941  0.1978  0.1277
 3550TIP3    H132141   6.021  -0.061  12.828  0.4756  0.1079 -0.0736
 3550TIP3    H232142   6.012   0.042  12.940 -2.9954  0.7220 -0.8084
 3551TIP3   OH232143   4.669   0.990   2.853  0.1806 -0.3517  0.7886
 3551TIP3    H132144   4.588   0.946   2.828  1.3200 -1.8075 -0.5160
 3551TIP3    H232145   4.739   0.936   2.815  1.7325  1.3655  1.0480
 3552TIP3   OH232146   0.537   2.264   2.157 -0.4885  0.3177  0.2340
 3552TIP3    H132147   0.525   2.355   2.130  1.8160  0.0660 -2.0868
 3552TIP3    H232148   0.508   2.212   2.082  1.8792 -0.6361 -0.1215
 3553TIP3   OH232149   3.760   2.936  15.122  0.5347 -0.1412 -0.0149
 3553TIP3    H132150   3.802   2.883  15.055  0.2356  0.5675 -0.7869
 3553TIP3    H232151   3.775   3.026  15.094  0.6584  0.1795  1.0363
 3554TIP3   OH232152   1.267   6.422   3.713  0.7908  0.2550 -0.7787
 3554TIP3    H132153   1.206   6.384   3.650 -0.9802  1.1061  0.3446
 3554TIP3    H232154   1.282   6.353   3.777  0.8863  0.1080 -0.9560
 3555TIP3   OH232155   2.242   5.225  11.009  0.1123 -0.1060 -0.7223
 3555TIP3    H132156   2.278   5.174  10.935  0.3814  0.5603 -1.0600
 3555TIP3    H232157   2.151   5.196  11.016  1.1619 -3.5214  1.5900
 3556TIP3   OH232158   4.913   3.576   0.674  0.7658 -0.1480  0.2694
 3556TIP3    H132159   4.978   3.590   0.605 -0.6386 -1.1477 -1.3502
 3556TIP3    H232160   4.895   3.482   0.671 -0.6104  0.0814  0.7859
 3557TIP3   OH232161   0.782   0.997   0.590 -0.3676  0.1042 -0.5182
 3557TIP3    H132162   0.729   1.051   0.649 -2.2422 -0.5973 -1.4742
 3557TIP3    H232163   0.764   0.907   0.617 -0.3954 -0.1791 -1.4455
 3558TIP3   OH232164   1.560   5.419  13.587 -0.1977  0.3796 -0.1248
 3558TIP3    H132165   1.488   5.427  13.525 -0.5103  1.9620  0.4103
 3558TIP3    H232166   1.639   5.425  13.533 -0.3706 -2.3366 -0.8443
 3559TIP3   OH232167   3.958   1.986   4.985  0.2203 -0.8095 -0.1569
 3559TIP3    H132168   4.021   1.941   4.930  2.2990  1.2027  0.3923
 3559TIP3    H232169   3.969   1.946   5.072  0.6368 -0.6129 -0.1131
 3560TIP3   OH232170   2.010   6.310   5.334 -0.2329 -0.1400 -0.4611
 3560TIP3    H132171   1.982   6.397   5.306  0.0112 -0.3211 -1.3230
 3560TIP3    H232172   1.929   6.260   5.341 -0.4912  0.4900  1.3058
 3561TIP3   OH232173   0.439   3.438  11.915 -0.5086  0.2187  0.3094
 3561TIP3    H132174   0.392   3.465  11.837  0.6587  1.0063 -0.1486
 3561TIP3    H232175   0.395   3.484  11.987 -0.5175  0.8502 -0.0926
 3562TIP3   OH232176   1.126   3.563   0.344 -0.1766  0.0544 -0.2409
 3562TIP3    H132177   1.161   3.504   0.411  0.2486  0.5481 -0.0183
 3562TIP3    H232178   1.092   3.638   0.393 -1.4002 -0.3416 -0.4747
 3563TIP3   OH232179   5.196   5.703   6.263 -0.1244 -0.1648  0.4608
 3563TIP3    H132180   5.223   5.794   6.250 -0.8035 -0.1955 -1.5751
 3563TIP3    H232181   5.278   5.655   6.274  0.3443  0.4727 -0.1719
 3564TIP3   OH232182   6.245   0.520  14.625  0.4586  0.4678 -0.0234
 3564TIP3    H132183   6.338   0.531  14.608  0.1665  1.6134 -0.9250
 3564TIP3    H232184   6.211   0.475  14.547  0.2617 -0.0613  0.3552
 3565TIP3   OH232185   6.093   5.157  11.553 -0.0462 -0.3232 -0.1066
 3565TIP3    H132186   6.140   5.112  11.484  1.3979 -0.9465  1.2338
 3565TIP3    H232187   6.092   5.248  11.526  0.1286 -0.6114 -1.1320
 3566TIP3   OH232188   0.465   1.373  16.469  0.4206  0.3540 -0.0837
 3566TIP3    H132189   0.451   1.442  16.404 -1.7302 -1.8686 -2.1739
 3566TIP3    H232190   0.517   1.307  16.424  1.3528 -0.0054  1.4470
 3567TIP3   OH232191   1.857   3.058  14.897  0.0813  0.2772  0.5375
 3567TIP3    H132192   1.766   3.073  14.872 -0.4492 -0.2781  2.0054
 3567TIP3    H232193   1.908   3.117  14.841 -0.9589 -0.9385 -1.8390
 3568TIP3   OH232194   4.009   2.440   0.538 -0.4077  0.3152 -0.3285
 3568TIP3    H132195   3.914   2.440   0.526 -0.3082 -0.0367 -1.1737
 3568TIP3    H232196   4.026   2.517   0.592 -1.2276  0.0674  0.3100
 3569TIP3   OH232197   3.275   3.407   1.425 -0.8810 -0.0068 -0.5848
 3569TIP3    H132198   3.210   3.368   1.366 -1.0806 -0.3412 -0.1437
 3569TIP3    H232199   3.238   3.396   1.513 -0.1657 -0.3274 -0.3195
 3570TIP3   OH232200   4.225   5.133  14.374  0.2024  0.0850  0.2031
 3570TIP3    H132201   4.272   5.079  14.438  0.7890 -0.0974 -0.3700
 3570TIP3    H232202   4.136   5.100  14.375  0.8109 -1.7518 -1.0153
 3571TIP3   OH232203   5.701   2.770  10.656 -0.1861  0.2515  0.4645
 3571TIP3    H132204   5.650   2.845  10.686 -0.6665 -0.3847  1.2827
 3571TIP3    H232205   5.666   2.695  10.706  1.6587 -0.1855  1.1967
 3572TIP3   OH232206   5.598   2.024   1.256 -0.0957 -0.1749  0.2553
 3572TIP3    H132207   5.576   1.953   1.316 -0.7775  0.5302  0.8593
 3572TIP3    H232208   5.693   2.015   1.242  0.4079  0.5736  2.6851
 3573TIP3   OH232209   0.289   3.740  14.870 -0.0699 -0.2314  0.5620
 3573TIP3    H132210   0.294   3.729  14.965  0.2820 -0.3269  0.5346
 3573TIP3    H232211   0.285   3.651  14.835  1.0383 -0.2376  0.4293
 3574TIP3   OH232212   0.418   5.379  12.048  1.1244  0.3197  0.4551
 3574TIP3    H132213   0.362   5.405  12.120  1.8648  0.2955  1.0540
 3574TIP3    H232214   0.446   5.461  12.008  1.9369  0.4015  1.1608
 3575TIP3   OH232215   0.704   5.519  12.592 -0.0548 -0.1432  0.1039
 3575TIP3    H132216   0.700   5.463  12.670 -0.6133  0.0497  0.2209
 3575TIP3    H232217   0.797   5.540  12.582  0.3551 -2.1483 -0.7099
 3576TIP3   OH232218   2.513   2.206   2.314 -0.0494  0.1638 -0.1611
 3576TIP3    H132219   2.554   2.255   2.242  3.4229 -0.2543  1.3294
 3576TIP3    H232220   2.523   2.114   2.289  1.0536  0.0228  0.7366
 3577TIP3   OH232221   0.316   1.207  15.365 -0.6290  0.5354 -0.1480
 3577TIP3    H132222   0.345   1.287  15.321 -0.1386  0.7875  0.6119
 3577TIP3    H232223   0.384   1.191  15.431 -0.1992 -1.0463 -0.9328
 3578TIP3   OH232224   3.244   1.381   2.542 -0.5906  0.2183 -0.5465
 3578TIP3    H132225   3.322   1.335   2.509 -0.6037  0.9618 -1.6771
 3578TIP3    H232226   3.247   1.368   2.636  1.1840  0.6173 -0.5027
 3579TIP3   OH232227   4.006   5.723   4.787 -0.4540 -0.3180  0.1358
 3579TIP3    H132228   4.089   5.703   4.830  1.2400  0.1858 -2.6642
 3579TIP3    H232229   3.942   5.665   4.829  0.8268  0.5435  3.6287
 3580TIP3   OH232230   5.413   2.356  11.398  0.3989  0.7097  0.2827
 3580TIP3    H132231   5.339   2.401  11.438 -0.0481  0.1785  0.0613
 3580TIP3    H232232   5.466   2.426  11.360 -0.6046  1.0198 -0.5993
 3581TIP3   OH232233   6.437   1.944   0.411 -0.6943  0.7011  0.3298
 3581TIP3    H132234   6.482   1.934   0.327  0.4893  1.7398  0.8140
 3581TIP3    H232235   6.473   2.024   0.448 -1.2878  0.3217  1.7873
 3582TIP3   OH232236   5.509   0.130   6.053  0.0148 -0.3769 -0.2443
 3582TIP3    H132237   5.470   0.077   5.983  0.2143  0.7306 -1.2198
 3582TIP3    H232238   5.435   0.155   6.108 -0.0864 -1.6119  0.2001
 3583TIP3   OH232239   5.329   0.674  16.065 -0.8257  0.0616  0.2734
 3583TIP3    H132240   5.379   0.662  16.145  1.1362  0.5139 -0.8082
 3583TIP3    H232241   5.254   0.615  16.074  0.0983 -0.9587  1.8028
 3584TIP3   OH232242   1.665   2.156  11.471  0.3373  0.6522 -0.3054
 3584TIP3    H132243   1.728   2.201  11.527 -0.0378  1.6679 -0.6716
 3584TIP3    H232244   1.590   2.138  11.528  0.5342  0.3905 -0.1289
 3585TIP3   OH232245   5.268   3.722  11.953 -0.1659 -0.5085 -0.2475
 3585TIP3    H132246   5.326   3.671  12.009  1.1380  0.7902 -0.3568
 3585TIP3    H232247   5.326   3.780  11.903 -1.3980 -0.5828 -1.8750
 3586TIP3   OH232248   6.841   6.511  10.620  0.3112  0.1575  0.4730
 3586TIP3    H132249   6.858   6.446  10.689  0.0194  0.4219  0.8017
 3586TIP3    H232250   6.753   6.491  10.589  0.2694  0.3185  0.4886
 3587TIP3   OH232251   4.278   3.410  12.545 -0.0007 -0.4437 -0.6062
 3587TIP3    H132252   4.353   3.436  12.599 -0.2921 -0.5771 -0.1291
 3587TIP3    H232253   4.258   3.487  12.492 -0.2820  0.0036  0.1378
 3588TIP3   OH232254   0.998   3.177  12.634  0.6126  0.1485  0.4499
 3588TIP3    H132255   1.002   3.112  12.704  1.9362  0.3599  0.5964
 3588TIP3    H232256   0.953   3.251  12.673 -0.6135 -0.5324  0.3842
 3589TIP3   OH232257   3.248   1.619   1.188  0.2604 -0.3582 -0.0382
 3589TIP3    H132258   3.246   1.580   1.101 -3.3702 -0.0817 -0.2197
 3589TIP3    H232259   3.245   1.544   1.248 -0.6417 -0.4934 -0.2463
 3590TIP3   OH232260   3.009   5.996   5.655 -0.4573  0.6875  0.1874
 3590TIP3    H132261   2.958   6.020   5.578  0.5085  2.3037 -0.0047
 3590TIP3    H232262   2.947   5.950   5.712 -1.5578  0.7526 -0.9185
 3591TIP3   OH232263   2.490   4.144  15.661  0.3790  0.4036 -0.5858
 3591TIP3    H132264   2.440   4.068  15.691  1.5872 -0.3690 -0.4541
 3591TIP3    H232265   2.433   4.188  15.598  0.6188 -2.0767 -2.6842
 3592TIP3   OH232266   2.757   5.123   3.707 -0.2827  0.1417  0.0337
 3592TIP3    H132267   2.779   5.083   3.791 -0.6714 -0.7584 -0.2792
 3592TIP3    H232268   2.823   5.192   3.695  0.0409 -0.0152  0.8612
 3593TIP3   OH232269   4.376   6.115  12.566 -0.0425 -0.3322 -0.3047
 3593TIP3    H132270   4.363   6.023  12.589  0.1687 -0.6090 -1.2460
 3593TIP3    H232271   4.294   6.141  12.524 -0.6560  0.3421  1.2510
 3594TIP3   OH232272   3.660   1.816   1.756  0.0906 -0.8516 -0.2419
 3594TIP3    H132273   3.580   1.869   1.756  1.1088  0.7501 -0.2635
 3594TIP3    H232274   3.672   1.790   1.665  2.1501  3.0657 -1.2949
 3595TIP3   OH232275   0.753   2.467  11.501 -0.0236 -0.0856  0.1172
 3595TIP3    H132276   0.706   2.485  11.583  0.3211 -1.4137  0.6379
 3595TIP3    H232277   0.819   2.401  11.526  1.2086  0.7201 -0.8776
 3596TIP3   OH232278   5.085   6.684  16.758  0.0188 -0.1443 -0.3998
 3596TIP3    H132279   5.076   6.651  16.847  1.8996  1.7468  0.5844
 3596TIP3    H232280   5.098   6.606  16.704 -0.8838 -1.3007  0.9899
 3597TIP3   OH232281   0.658   5.249   4.107 -0.2385  0.1164  0.8162
 3597TIP3    H132282   0.666   5.154   4.109 -1.0180 -0.0006 -0.3607
 3597TIP3    H232283   0.656   5.270   4.013  2.8689  1.5694  0.9533
 3598TIP3   OH232284   0.960   1.767   0.471  0.8409  0.2346  0.0151
 3598TIP3    H132285   0.913   1.788   0.551 -2.3526 -1.9249 -1.1226
 3598TIP3    H232286   1.010   1.688   0.492 -0.7534 -0.8929 -0.3208
 3599TIP3   OH232287   0.631   2.703  10.458  0.1218  0.3190 -0.2236
 3599TIP3    H132288   0.540   2.699  10.487 -0.3097 -1.2697 -1.6525
 3599TIP3    H232289   0.680   2.662  10.530 -0.2520  1.2353  0.5798
 3600TIP3   OH232290   5.719   3.823  15.868  0.7086 -0.0717  0.1372
 3600TIP3    H132291   5.695   3.747  15.921  1.1780  0.4693  1.1546
 3600TIP3    H232292   5.745   3.786  15.783  0.3396 -0.9869  0.4136
 3601TIP3   OH232293   3.807   3.013  14.086 -0.3221 -0.3901 -0.5939
 3601TIP3    H132294   3.719   2.976  14.080 -0.4288 -0.0251 -1.3940
 3601TIP3    H232295   3.862   2.953  14.036 -0.6185  0.8434 -2.5308
 3602TIP3   OH232296   3.024   0.082  11.966  0.1105 -0.3689 -0.2890
 3602TIP3    H132297   3.060  -0.003  11.937 -1.8028 -0.8415 -1.4585
 3602TIP3    H232298   2.947   0.059  12.017 -0.0636  0.6632 -0.0740
 3603TIP3   OH232299   5.955   2.504  15.968  0.0383  0.4979 -0.3045
 3603TIP3    H132300   5.873   2.520  16.014  0.3306 -0.9270  0.7673
 3603TIP3    H232301   6.014   2.572  16.000 -0.3817  0.8093 -0.1872
 3604TIP3   OH232302   4.457   2.082   5.596 -0.0234  0.3383 -0.2715
 3604TIP3    H132303   4.426   2.165   5.632 -2.2772 -0.2071 -0.7953
 3604TIP3    H232304   4.513   2.045   5.664 -1.0954  1.0948  1.0519
 3605TIP3   OH232305   3.055   6.161  12.371  0.1605  0.2811 -0.0766
 3605TIP3    H132306   3.086   6.138  12.458 -0.6955 -0.6557  0.0092
 3605TIP3    H232307   2.985   6.225  12.387  0.1728  0.2962 -0.0828
 3606TIP3   OH232308   2.054   4.563  13.994 -0.0135  0.1845  0.2828
 3606TIP3    H132309   1.967   4.587  14.024 -0.7670 -2.1258  0.1918
 3606TIP3    H232310   2.038   4.501  13.922  1.7126  0.4444 -0.3831
 3607TIP3   OH232311   0.583   2.465  12.613  0.4353  0.3012  0.1207
 3607TIP3    H132312   0.577   2.453  12.518 -2.2059 -0.4680  0.2959
 3607TIP3    H232313   0.534   2.391  12.649  2.9805 -0.4997  2.2048
 3608TIP3   OH232314   4.224   2.688  13.207  0.0331  0.4149  0.3743
 3608TIP3    H132315   4.167   2.612  13.217  1.1907 -0.4999  0.2270
 3608TIP3    H232316   4.268   2.697  13.291 -1.2629  1.9407  0.9409
 3609TIP3   OH232317   1.020   2.348   3.801  0.3013  0.5088  0.1065
 3609TIP3    H132318   1.072   2.277   3.840  0.9960  1.6928  1.4085
 3609TIP3    H232319   0.929   2.322   3.817  0.5567  0.5287  1.8242
 3610TIP3   OH232320   2.017   3.808  15.745 -0.1021  0.2520 -0.3656
 3610TIP3    H132321   1.977   3.876  15.691  1.2339  0.5952 -0.9531
 3610TIP3    H232322   1.984   3.826  15.834 -0.8348  0.8219 -0.7363
 3611TIP3   OH232323   3.500   3.540  15.637  0.1636  0.1632  0.5272
 3611TIP3    H132324   3.424   3.569  15.587  0.0461  1.1898  1.2715
 3611TIP3    H232325   3.502   3.445  15.625 -1.3099  0.0988  0.5910
 3612TIP3   OH232326   4.314   0.197  17.085  0.0710 -0.1004  0.3469
 3612TIP3    H132327   4.317   0.277  17.137  0.4915 -0.9908  1.7412
 3612TIP3    H232328   4.226   0.162  17.102  0.7724 -1.2389  1.8233
 3613TIP3   OH232329   3.637   2.795  11.051 -0.1011 -0.4364  0.9148
 3613TIP3    H132330   3.714   2.744  11.078  1.6599  1.2580 -0.6376
 3613TIP3    H232331   3.649   2.809  10.957 -1.3165  1.5186  0.9980
 3614TIP3   OH232332   2.645   6.529  13.198 -0.3291 -0.4786  0.0387
 3614TIP3    H132333   2.604   6.590  13.137  2.4641 -0.1446 -1.6671
 3614TIP3    H232334   2.711   6.580  13.244 -1.3770 -1.0913  2.3967
 3615TIP3   OH232335   5.278   0.617   4.755 -0.8899 -0.3875 -0.1186
 3615TIP3    H132336   5.193   0.578   4.736 -0.4002 -0.8515 -1.4625
 3615TIP3    H232337   5.273   0.705   4.716 -1.5525  0.4858  1.8280
 3616TIP3   OH232338   6.344   2.284   4.338  0.1512  0.3209  0.5198
 3616TIP3    H132339   6.340   2.313   4.247 -1.7516 -0.2119  0.3817
 3616TIP3    H232340   6.345   2.189   4.333  1.9072  0.2844  1.0495
 3617TIP3   OH232341   1.430   2.203   0.996 -0.2417  0.7149  0.0285
 3617TIP3    H132342   1.515   2.227   1.033 -0.1605 -0.2650  0.5145
 3617TIP3    H232343   1.447   2.192   0.903  0.4478 -0.6218  0.2899
 3618TIP3   OH232344   1.531   0.348   2.399 -0.2280 -0.1511  0.2113
 3618TIP3    H132345   1.532   0.254   2.379  1.1205 -0.2512  0.6509
 3618TIP3    H232346   1.606   0.361   2.457 -1.0100  1.0250  1.0029
 3619TIP3   OH232347   6.158   2.755  16.727 -0.1574 -1.1094 -0.6153
 3619TIP3    H132348   6.143   2.840  16.685  1.5509 -0.7112 -0.4871
 3619TIP3    H232349   6.095   2.753  16.799  1.8266  1.5373  1.4025
 3620TIP3   OH232350   1.103   4.424   3.015 -0.0169  0.3221 -0.5019
 3620TIP3    H132351   1.172   4.473   3.061 -0.7223 -0.8430  2.0044
 3620TIP3    H232352   1.073   4.484   2.946  3.3635  0.9092 -1.6652
 3621TIP3   OH232353   5.087   5.458  11.729  0.1067  0.3115 -0.2137
 3621TIP3    H132354   5.007   5.501  11.699  1.0314  1.8993 -0.5456
 3621TIP3    H232355   5.138   5.529  11.769  1.3922 -0.6380 -0.1137
 3622TIP3   OH232356   6.547   0.050   1.462 -0.5445  0.3569 -0.0580
 3622TIP3    H132357   6.473  -0.011   1.460  1.2528 -1.9733  0.3776
 3622TIP3    H232358   6.569   0.058   1.554  1.4053 -1.2369 -0.3046
 3623TIP3   OH232359   4.992   0.191  15.370 -0.1563 -0.3623  0.0808
 3623TIP3    H132360   5.000   0.235  15.455 -0.3200  0.8595 -0.5178
 3623TIP3    H232361   4.988   0.262  15.306 -0.3798 -1.2543 -0.9296
 3624TIP3   OH232362   2.217   5.934  12.834 -0.4370  0.0397  0.1125
 3624TIP3    H132363   2.280   5.918  12.764  2.2110  1.0582  2.1231
 3624TIP3    H232364   2.166   6.009  12.804  0.5775  0.4032 -0.7550
 3625TIP3   OH232365   4.538   2.418   4.587  0.2905 -0.6168  1.0235
 3625TIP3    H132366   4.583   2.429   4.503 -0.9752  0.3503  0.4496
 3625TIP3    H232367   4.593   2.465   4.650 -0.6289  1.8943  0.0740
 3626TIP3   OH232368   3.255   5.665  15.183  0.0264  0.1916 -0.2460
 3626TIP3    H132369   3.327   5.624  15.136  1.8477  0.7919  1.8534
 3626TIP3    H232370   3.253   5.621  15.268 -2.6744 -0.3750 -0.5144
 3627TIP3   OH232371   4.443   0.176   0.466 -0.1200 -0.8224 -0.6354
 3627TIP3    H132372   4.472   0.145   0.552 -0.5704 -1.1955 -0.6183
 3627TIP3    H232373   4.514   0.150   0.407 -0.1663 -1.2528 -0.5048
 3628TIP3   OH232374   3.029   2.148   5.491 -0.1685 -0.0664 -0.5141
 3628TIP3    H132375   3.046   2.072   5.437 -0.8753 -0.1237 -0.6690
 3628TIP3    H232376   3.023   2.114   5.580 -1.1721 -0.3047 -0.6640
 3629TIP3   OH232377   3.416   3.502  12.039 -0.4205  0.3151  0.1279
 3629TIP3    H132378   3.476   3.543  11.978  0.2027 -0.3162  0.3063
 3629TIP3    H232379   3.442   3.410  12.041 -2.0840 -0.2133 -0.6174
 3630TIP3   OH232380   1.233   0.990   3.372  0.0198  0.0563 -0.6438
 3630TIP3    H132381   1.313   0.960   3.330  0.7757  1.7146 -0.4944
 3630TIP3    H232382   1.213   0.923   3.438  0.1206 -1.3928 -2.0420
 3631TIP3   OH232383   6.613   0.682   1.589 -0.2100  0.0607 -0.2666
 3631TIP3    H132384   6.613   0.722   1.676  0.6063  0.6948 -0.5428
 3631TIP3    H232385   6.545   0.729   1.541  1.6349  2.1691 -1.0126
 3632TIP3   OH232386   2.150   1.263   2.267 -0.0709 -0.2059  0.3469
 3632TIP3    H132387   2.076   1.293   2.319 -0.2511 -1.2699  0.7330
 3632TIP3    H232388   2.209   1.221   2.330  0.6706  0.2781 -0.0138
 3633TIP3   OH232389   5.434   3.802   4.497  0.0283  0.1873  0.5025
 3633TIP3    H132390   5.466   3.735   4.557  1.3293  0.5880  0.2700
 3633TIP3    H232391   5.512   3.836   4.453 -0.7582  0.8256 -0.4663
 3634TIP3   OH232392   4.367   3.973  15.585  0.7071  0.2698  0.0421
 3634TIP3    H132393   4.418   4.016  15.516  3.1216  1.6709  2.5221
 3634TIP3    H232394   4.432   3.929  15.639 -1.0621 -0.6331  1.5522
 3635TIP3   OH232395   4.393   2.206   5.968  0.7118  0.9373 -0.3514
 3635TIP3    H132396   4.482   2.235   5.984  0.2311  2.2665  0.0295
 3635TIP3    H232397   4.376   2.141   6.036  0.3172  3.0371  1.6775
 3636TIP3   OH232398   1.462   4.038  13.774  0.1986 -0.2863 -0.8618
 3636TIP3    H132399   1.382   4.079  13.742  0.2611 -0.1344 -0.8236
 3636TIP3    H232400   1.493   4.096  13.843 -0.5483 -1.1956  0.2749
 3637TIP3   OH232401   5.572   6.437   1.405  0.1938 -0.1319  0.9932
 3637TIP3    H132402   5.578   6.440   1.500 -0.5543  0.0024  1.0437
 3637TIP3    H232403   5.632   6.367   1.379 -0.3315 -0.8406  1.6417
 3638TIP3   OH232404   3.814   1.369  15.736  0.6390 -0.1587 -0.1674
 3638TIP3    H132405   3.767   1.445  15.768 -0.3675 -2.0498  3.3351
 3638TIP3    H232406   3.755   1.331  15.670 -0.5284  0.1540  0.6618
 3639TIP3   OH232407   4.380   5.940  15.275  0.2330  0.4658 -0.1263
 3639TIP3    H132408   4.287   5.951  15.252 -0.4837 -0.9729  1.8295
 3639TIP3    H232409   4.402   6.019  15.324 -0.5692 -0.0839  1.1509
 3640TIP3   OH232410   3.144   4.639   3.484  0.3374 -0.0742 -1.4637
 3640TIP3    H132411   3.069   4.687   3.447 -2.0242 -2.7891 -0.5444
 3640TIP3    H232412   3.129   4.548   3.458  2.0841 -1.0704  0.7236
 3641TIP3   OH232413   1.143   1.002  12.440  0.7005  0.0325 -0.4977
 3641TIP3    H132414   1.108   0.939  12.502 -0.7270  1.7532  0.5580
 3641TIP3    H232415   1.110   0.972  12.355 -0.2630 -0.4548  0.0252
 3642TIP3   OH232416   5.939   3.307   6.558 -0.0767 -0.1560  0.5573
 3642TIP3    H132417   5.956   3.233   6.499 -0.4122 -1.1291  1.6298
 3642TIP3    H232418   6.020   3.318   6.607  0.1266  0.5082  0.0888
 3643TIP3   OH232419   5.987   3.073   2.573 -0.7122  0.3053 -0.1622
 3643TIP3    H132420   6.074   3.048   2.606 -0.9854 -0.9039 -0.2977
 3643TIP3    H232421   6.006   3.130   2.499 -0.0632  1.2395  0.6855
 3644TIP3   OH232422   4.078   3.694   5.301 -0.2360  0.3465 -0.2298
 3644TIP3    H132423   4.106   3.603   5.288  0.3231  0.3379  0.8789
 3644TIP3    H232424   4.151   3.735   5.348 -0.6330  1.2797 -0.4015
 3645TIP3   OH232425   0.292   6.115   5.343  0.3558  0.0493  0.3540
 3645TIP3    H132426   0.213   6.169   5.342  1.1928  1.3586  1.5136
 3645TIP3    H232427   0.301   6.084   5.253 -0.1976  1.8247 -0.3543
 3646TIP3   OH232428   5.499   3.190   0.087 -0.3847  0.1390 -0.1708
 3646TIP3    H132429   5.406   3.194   0.106 -0.8680 -1.2341 -2.0248
 3646TIP3    H232430   5.530   3.112   0.132 -0.2610  0.2644 -0.0389
 3647TIP3   OH232431   5.841   6.411   0.856  0.2809 -0.2486 -0.2655
 3647TIP3    H132432   5.886   6.366   0.785  0.1588 -0.1707 -0.3912
 3647TIP3    H232433   5.887   6.381   0.935  0.8802  0.2209 -0.4275
 3648TIP3   OH232434   4.812   2.599  14.922  0.2040  0.3167 -0.1168
 3648TIP3    H132435   4.871   2.674  14.930 -0.6740  0.8489  1.7455
 3648TIP3    H232436   4.828   2.546  14.999 -2.2801  0.9090  0.9178
 3649TIP3   OH232437   4.293   1.757  15.102  0.3629  0.6378  0.6987
 3649TIP3    H132438   4.222   1.790  15.158  1.6755  1.2497  2.0716
 3649TIP3    H232439   4.339   1.836  15.074  0.2671  0.2725 -0.5359
 3650TIP3   OH232440   1.287   4.519   3.546 -0.2452  0.2139  0.1917
 3650TIP3    H132441   1.372   4.477   3.562 -0.1287  0.1179 -0.6392
 3650TIP3    H232442   1.310   4.602   3.504 -0.5474  0.3845  0.3653
 3651TIP3   OH232443   2.528   0.091   0.859 -0.3526  0.0813  0.3418
 3651TIP3    H132444   2.538   0.033   0.784 -1.6581 -0.0055  0.2127
 3651TIP3    H232445   2.434   0.092   0.876 -0.4443  2.6126 -0.0073
 3652TIP3   OH232446   0.350   6.439  12.925  0.6535 -0.1227 -0.1936
 3652TIP3    H132447   0.262   6.410  12.899 -0.0566  0.4967  1.3505
 3652TIP3    H232448   0.369   6.512  12.866 -0.4288  0.5421  0.2467
 3653TIP3   OH232449   5.773   0.549  12.706  0.1100  0.8729  0.2023
 3653TIP3    H132450   5.861   0.528  12.673 -0.2939 -0.0128 -0.3351
 3653TIP3    H232451   5.750   0.630  12.661  0.4081  0.7823 -0.1210
 3654TIP3   OH232452   4.480   6.563  15.152 -0.0852 -0.3407  0.2324
 3654TIP3    H132453   4.444   6.652  15.152  2.0330  0.5783 -0.9297
 3654TIP3    H232454   4.405   6.507  15.131 -1.4766  1.1219  1.0493
 3655TIP3   OH232455   1.845   2.347   4.802  0.0050  0.6582  0.0587
 3655TIP3    H132456   1.845   2.267   4.855  0.3002  0.6947  0.1157
 3655TIP3    H232457   1.816   2.319   4.715 -0.3229  0.5684  0.1959
 3656TIP3   OH232458   0.049   5.208   1.335 -0.1561 -0.2036 -0.0522
 3656TIP3    H132459   0.055   5.152   1.413 -1.0483  1.9263  1.6536
 3656TIP3    H232460  -0.021   5.271   1.356  0.2855  1.0758 -2.1525
 3657TIP3   OH232461   0.624   4.437   4.053 -0.0977 -0.4190 -0.1187
 3657TIP3    H132462   0.656   4.527   4.059  0.3261 -0.5878  0.1933
 3657TIP3    H232463   0.702   4.383   4.067 -0.7139 -0.8503  1.9199
 3658TIP3   OH232464   2.772   2.183  13.069  0.3980 -0.1243 -0.0127
 3658TIP3    H132465   2.717   2.209  12.995 -0.0171 -0.8064  0.0460
 3658TIP3    H232466   2.785   2.089  13.056 -0.0469 -0.3383  1.0252
 3659TIP3   OH232467   6.845   3.135   5.643 -0.2478 -0.1310  0.4409
 3659TIP3    H132468   6.832   3.216   5.594  1.7097  0.8280  1.4035
 3659TIP3    H232469   6.786   3.143   5.718  0.8139  1.0333  1.1980
 3660TIP3   OH232470   2.910   1.048   0.408  0.8870 -0.5531  0.1832
 3660TIP3    H132471   2.950   0.977   0.358 -3.3645 -3.4089  0.3343
 3660TIP3    H232472   2.914   1.020   0.499 -2.4370 -1.8052  0.1013
 3661TIP3   OH232473   6.358   4.340  13.974  0.1208  0.0201  0.1654
 3661TIP3    H132474   6.372   4.289  13.894  1.5328 -0.7105  0.8347
 3661TIP3    H232475   6.282   4.299  14.015  1.0396 -1.4017  0.5349
 3662TIP3   OH232476   4.934   3.250  14.137  0.1632  0.7040  0.0504
 3662TIP3    H132477   4.954   3.268  14.229 -2.2910 -1.9673  1.2669
 3662TIP3    H232478   4.961   3.159  14.124 -1.0028  0.5257 -1.3900
 3663TIP3   OH232479   0.118   6.663  12.168 -0.4013 -0.3451  0.0134
 3663TIP3    H132480   0.108   6.721  12.243 -1.1020  0.7693 -0.9099
 3663TIP3    H232481   0.076   6.709  12.096 -0.3820 -1.7113 -0.9129
 3664TIP3   OH232482   2.073   5.545   1.074 -0.4725 -0.0756 -0.0257
 3664TIP3    H132483   2.069   5.637   1.098  1.6396  0.4235 -1.2675
 3664TIP3    H232484   1.989   5.527   1.033 -1.2440  1.0406  1.0179
 3665TIP3   OH232485   6.788   4.138  16.711  0.1399  0.6643 -0.0463
 3665TIP3    H132486   6.734   4.071  16.669  1.0772 -0.6041  0.6875
 3665TIP3    H232487   6.876   4.121  16.678  0.1619  2.5632 -1.0635
 3666TIP3   OH232488   4.992   4.428  15.569  0.4361  0.9459 -0.0060
 3666TIP3    H132489   4.974   4.498  15.506  0.8269  0.1331 -1.0524
 3666TIP3    H232490   5.039   4.472  15.640  1.7819  1.5434 -1.2207
 3667TIP3   OH232491   2.005   1.649  13.583  0.2945 -0.1893  0.2847
 3667TIP3    H132492   1.959   1.586  13.527  0.7443  0.6355 -1.0884
 3667TIP3    H232493   2.019   1.603  13.665 -1.1057 -1.1857  0.0001
 3668TIP3   OH232494   6.509   0.928   5.825  0.2079 -0.3718  0.5210
 3668TIP3    H132495   6.465   0.995   5.773 -0.1550  0.7886  2.2424
 3668TIP3    H232496   6.602   0.937   5.804  0.2454  1.1701  1.2442
 3669TIP3   OH232497   5.071   3.183   2.162 -0.3747  0.3826 -0.3859
 3669TIP3    H132498   5.062   3.088   2.152  2.0988  0.2529 -2.1621
 3669TIP3    H232499   5.164   3.197   2.180 -1.0481  2.3772  2.0247
 3670TIP3   OH232500   5.098   2.678   2.366  0.1593  0.2248 -0.8735
 3670TIP3    H132501   5.007   2.665   2.339 -0.0743 -3.4257  1.1141
 3670TIP3    H232502   5.144   2.600   2.335  2.0794  0.7942  0.3340
 3671TIP3   OH232503   5.149   2.373   3.228  0.1595 -0.2135 -0.2021
 3671TIP3    H132504   5.213   2.305   3.249  0.0271 -1.1136 -2.4299
 3671TIP3    H232505   5.066   2.325   3.218 -0.4015  0.6147  0.3661
 3672TIP3   OH232506   3.811   4.091  16.164 -0.3421  0.0427 -0.5674
 3672TIP3    H132507   3.805   4.032  16.089 -0.3104 -0.1201 -0.4420
 3672TIP3    H232508   3.720   4.115  16.183 -0.5393 -1.3869  0.5050
 3673TIP3   OH232509   0.707   2.895   3.025 -0.7744 -0.2427  0.0726
 3673TIP3    H132510   0.675   2.843   3.099 -0.5687  0.5338  0.7210
 3673TIP3    H232511   0.684   2.986   3.048  2.0247  0.4029  0.6680
 3674TIP3   OH232512   5.419   0.900   1.618 -0.0922 -0.1589  0.4360
 3674TIP3    H132513   5.469   0.977   1.591 -1.1671  0.5638  0.4295
 3674TIP3    H232514   5.473   0.859   1.686  0.8060  0.2070 -0.0386
 3675TIP3   OH232515   1.801   1.781  15.051  0.0347  0.4697 -0.2701
 3675TIP3    H132516   1.864   1.726  15.004 -0.2093  0.0414 -0.1088
 3675TIP3    H232517   1.725   1.723  15.065 -0.1144  0.7623  0.1521
 3676TIP3   OH232518   4.320   3.720  13.195 -0.2082  0.7501 -0.1708
 3676TIP3    H132519   4.321   3.756  13.107  0.1825 -1.2112 -1.0208
 3676TIP3    H232520   4.396   3.662  13.198 -0.5671  0.3175  1.2562
 3677TIP3   OH232521   2.011   1.254   0.757  0.8443  0.4566  0.6138
 3677TIP3    H132522   2.037   1.339   0.723  0.5884 -0.2726 -1.5103
 3677TIP3    H232523   1.915   1.254   0.752  0.8957 -0.5254 -0.9388
 3678TIP3   OH232524   3.188   1.213  13.620  0.0587  0.6237  0.3830
 3678TIP3    H132525   3.261   1.211  13.559  1.2891 -0.0242  1.8042
 3678TIP3    H232526   3.167   1.121  13.636 -0.9623  0.8015  0.1194
 3679TIP3   OH232527   2.750   0.721  12.131 -1.1510  0.6074 -0.1094
 3679TIP3    H132528   2.780   0.730  12.041 -0.7661 -0.1013 -0.0581
 3679TIP3    H232529   2.792   0.793  12.178  2.4470 -1.6442  0.4684
 3680TIP3   OH232530   2.125   5.528  10.318 -0.1629  0.0484 -0.0923
 3680TIP3    H132531   2.182   5.452  10.328  0.4457  0.7413  2.5376
 3680TIP3    H232532   2.037   5.495  10.337  0.2073  0.0815  1.9595
 3681TIP3   OH232533   4.289   3.094   1.660  0.3325 -0.0913 -0.0628
 3681TIP3    H132534   4.355   3.142   1.710  0.4236  2.1415 -2.1280
 3681TIP3    H232535   4.331   3.010   1.640  2.1677  0.8554 -0.4247
 3682TIP3   OH232536   0.333   1.733  12.808  0.2268  0.8152 -0.3465
 3682TIP3    H132537   0.308   1.752  12.898  0.1974  1.4442 -0.4852
 3682TIP3    H232538   0.313   1.814  12.760  0.4080  0.5452 -0.8810
 3683TIP3   OH232539   3.737   5.883  15.404 -0.1534 -0.1234  0.5686
 3683TIP3    H132540   3.732   5.974  15.374 -1.2207 -0.6038 -0.7695
 3683TIP3    H232541   3.822   5.878  15.449  1.0030  0.9791 -1.3194
 3684TIP3   OH232542   1.214   6.671  11.116 -0.3369  0.0781 -0.5120
 3684TIP3    H132543   1.201   6.716  11.032 -1.3924  2.1386  0.6907
 3684TIP3    H232544   1.306   6.643  11.113 -0.2877  0.2672 -2.2566
 3685TIP3   OH232545   0.575   3.868   2.250  0.1753  0.4199 -0.2102
 3685TIP3    H132546   0.489   3.840   2.281  1.1334 -1.5463  0.9010
 3685TIP3    H232547   0.558   3.945   2.196 -2.3097 -0.2274 -0.4517
 3686TIP3   OH232548   4.178   5.036   0.157 -0.1077 -0.6283  0.5471
 3686TIP3    H132549   4.164   5.084   0.239 -0.3695 -2.6060  1.7126
 3686TIP3    H232550   4.091   5.028   0.119  0.1179  1.0557 -0.4369
 3687TIP3   OH232551   0.747   4.582   3.029 -0.0768  0.2069  0.6923
 3687TIP3    H132552   0.675   4.522   3.013  0.2209 -0.7120  2.5270
 3687TIP3    H232553   0.733   4.654   2.967 -2.5483  0.0588  1.0034
 3688TIP3   OH232554   5.736   3.333   2.257 -0.4041  0.0442 -0.4786
 3688TIP3    H132555   5.742   3.257   2.315  0.8021  0.2459 -0.3185
 3688TIP3    H232556   5.724   3.408   2.316 -1.7128 -0.0096 -0.6424
 3689TIP3   OH232557   6.656   4.821   2.321 -0.3245  0.4649  0.3339
 3689TIP3    H132558   6.735   4.801   2.371 -1.4360 -3.4464  0.8583
 3689TIP3    H232559   6.586   4.778   2.370 -2.0869 -0.0286 -2.4170
 3690TIP3   OH232560   4.111   1.527   3.624 -0.8953 -0.5681  0.2465
 3690TIP3    H132561   4.197   1.521   3.666 -0.6427 -0.1311 -0.2087
 3690TIP3    H232562   4.107   1.450   3.567 -1.3652 -1.3378  1.2868
 3691TIP3   OH232563   4.362   3.424   2.526  0.2559  0.0973 -0.0794
 3691TIP3    H132564   4.333   3.504   2.484 -0.6589  0.0474  0.4471
 3691TIP3    H232565   4.282   3.375   2.544  0.8729 -1.9035 -2.2435
 3692TIP3   OH232566   5.666   0.015  11.534 -0.0855  0.6321  0.1243
 3692TIP3    H132567   5.599  -0.050  11.513 -0.1256  0.9860 -0.8657
 3692TIP3    H232568   5.620   0.098  11.536  0.0992  0.7219  0.6791
 3693TIP3   OH232569   0.919   3.228   4.601  0.0436 -0.6270  0.1506
 3693TIP3    H132570   0.911   3.303   4.541 -0.4338 -0.2465  0.6851
 3693TIP3    H232571   0.858   3.163   4.566  0.7709 -0.9535 -0.5653
 3694TIP3   OH232572   0.762   5.084   2.773  0.2928  0.2569  0.2204
 3694TIP3    H132573   0.772   5.141   2.698  0.7145  0.5459  0.4978
 3694TIP3    H232574   0.840   5.099   2.827 -0.0687  0.1587  0.7857
 3695TIP3   OH232575   2.313   0.146  11.976  0.2913  0.2255  0.1084
 3695TIP3    H132576   2.323   0.118  11.884 -0.9498  1.6402 -0.5001
 3695TIP3    H232577   2.243   0.090  12.010 -1.1471  1.4511 -0.6664
 3696TIP3   OH232578   5.633   1.444   5.721 -0.4067 -0.1461  0.5625
 3696TIP3    H132579   5.633   1.481   5.633  0.6906  0.4176  0.7754
 3696TIP3    H232580   5.567   1.494   5.768 -1.1546 -0.6015  0.0057
 3697TIP3   OH232581   4.246   3.138  13.998  0.0294 -0.5027  0.7457
 3697TIP3    H132582   4.173   3.168  14.051  0.5148 -0.9390  1.6802
 3697TIP3    H232583   4.323   3.181  14.036  0.1213  1.2481 -1.2002
 3698TIP3   OH232584   6.264   4.927  12.605  0.0339  0.3263 -0.4491
 3698TIP3    H132585   6.238   5.007  12.652  1.3693  0.5246  0.0010
 3698TIP3    H232586   6.311   4.875  12.671 -3.7588 -2.5434  0.3594
 3699TIP3   OH232587   5.657   4.790   1.610  0.1539  0.4682 -0.0371
 3699TIP3    H132588   5.615   4.728   1.549  0.8877 -0.6420  0.5560
 3699TIP3    H232589   5.693   4.735   1.679 -1.6803  1.7867  2.0767
 3700TIP3   OH232590   0.413   3.886  14.361  0.0352  0.1070 -0.5397
 3700TIP3    H132591   0.345   3.838  14.408  1.8924 -3.3399 -0.9828
 3700TIP3    H232592   0.467   3.926  14.429 -1.5400  1.6893 -0.1525
 3701TIP3   OH232593   6.268   5.463  15.196  0.0710 -0.5170  0.1320
 3701TIP3    H132594   6.227   5.381  15.168 -0.2404 -1.2316  2.4411
 3701TIP3    H232595   6.358   5.457  15.164 -0.2783 -1.1791 -0.7810
 3702TIP3   OH232596   1.268   1.765   0.343 -0.7835  0.2574  0.2945
 3702TIP3    H132597   1.282   1.801   0.430  2.1198  0.5746 -0.1760
 3702TIP3    H232598   1.210   1.828   0.300  1.6746  2.9127  0.5001
 3703TIP3   OH232599   6.554   6.685  16.362 -0.0652 -0.6864 -0.2696
 3703TIP3    H132600   6.573   6.694  16.268 -1.4586 -1.8040 -0.6964
 3703TIP3    H232601   6.580   6.595  16.383 -0.7363 -0.7921  0.1481
 3704TIP3   OH232602   4.376   3.187   0.151  0.1864 -0.4346 -0.6415
 3704TIP3    H132603   4.434   3.204   0.078 -0.6029  1.3072 -0.9195
 3704TIP3    H232604   4.414   3.236   0.225 -0.8830  0.7617 -0.8398
 3705TIP3   OH232605   2.096   0.158   3.284 -0.4566  0.1683 -0.2088
 3705TIP3    H132606   2.165   0.223   3.292  1.0473 -1.4734  1.2505
 3705TIP3    H232607   2.040   0.173   3.361  1.0741 -1.4284  1.3321
 3706TIP3   OH232608   4.226   2.601   5.651  0.1414  0.0199 -0.1066
 3706TIP3    H132609   4.146   2.641   5.685 -1.1562 -0.8718 -1.9421
 3706TIP3    H232610   4.297   2.658   5.682 -1.3437  1.8105  0.1754
 3707TIP3   OH232611   0.417   2.202  16.001 -0.0464 -0.0844  0.4197
 3707TIP3    H132612   0.325   2.202  15.976  0.3320 -0.3157 -1.0724
 3707TIP3    H232613   0.426   2.128  16.062 -0.6588 -0.6465 -0.1624
 3708TIP3   OH232614   2.147   3.495  14.929 -0.2919  0.1661 -0.5200
 3708TIP3    H132615   2.239   3.475  14.914  0.2687  2.1606 -0.0605
 3708TIP3    H232616   2.119   3.540  14.849 -0.7449 -0.0373 -0.4810
 3709TIP3   OH232617   5.305   6.252  14.029 -0.4670 -0.2675  0.0978
 3709TIP3    H132618   5.368   6.306  13.982 -1.0193  0.1668 -0.1595
 3709TIP3    H232619   5.223   6.302  14.025 -0.5497 -0.2631  1.4471
 3710TIP3   OH232620   3.040   5.110  13.289 -0.2710 -0.6001 -0.9191
 3710TIP3    H132621   2.969   5.052  13.264 -0.8094 -0.5260  0.3537
 3710TIP3    H232622   3.099   5.055  13.340 -2.1600  0.4341  2.7263
 3711TIP3   OH232623   0.905   5.230  13.542 -0.1080  0.7128 -0.3354
 3711TIP3    H132624   0.818   5.205  13.509  0.8464  0.3845 -2.9016
 3711TIP3    H232625   0.906   5.325  13.537 -0.1536  0.6912 -0.8816
 3712TIP3   OH232626   3.400   1.072   0.637 -0.1123  0.2477  0.1218
 3712TIP3    H132627   3.409   1.008   0.708  0.3703 -0.4526 -0.5481
 3712TIP3    H232628   3.484   1.117   0.635  0.3217 -0.5517 -0.7468
 3713TIP3   OH232629   6.405   5.930  13.274 -1.1102  0.2972 -0.0067
 3713TIP3    H132630   6.498   5.951  13.278 -0.6910 -0.6910 -2.4941
 3713TIP3    H232631   6.360   6.013  13.290  0.2239  1.0677 -0.1337
 3714TIP3   OH232632   5.992   1.382  15.282  0.3686 -0.1761  0.0077
 3714TIP3    H132633   6.038   1.313  15.329  0.5254  0.8651  1.4439
 3714TIP3    H232634   5.903   1.379  15.316 -0.2047 -1.0030 -1.4567
 3715TIP3   OH232635   0.716   6.000   3.858 -0.2538  0.4050 -0.3272
 3715TIP3    H132636   0.808   6.011   3.833 -0.5009  0.5823 -1.2040
 3715TIP3    H232637   0.704   5.905   3.860 -0.1836  0.3857 -0.7342
 3716TIP3   OH232638   1.752   5.166  15.223  0.1391  0.0578  0.4571
 3716TIP3    H132639   1.782   5.172  15.132  0.1532  0.8265  0.5084
 3716TIP3    H232640   1.827   5.129  15.271  0.6320  0.9554  0.3959
 3717TIP3   OH232641   0.483   4.631  16.147 -0.1819 -0.5585 -0.0022
 3717TIP3    H132642   0.420   4.700  16.127  2.9471  2.1742 -1.3771
 3717TIP3    H232643   0.490   4.580  16.066  0.4414  0.1154 -0.3859
 3718TIP3   OH232644   3.795   6.299   2.436 -0.3764 -0.2707 -0.3891
 3718TIP3    H132645   3.798   6.278   2.343 -3.6528 -1.8691 -0.2585
 3718TIP3    H232646   3.743   6.379   2.441 -0.4978 -0.3775  0.0837
 3719TIP3   OH232647   0.779   6.711  12.193 -0.0390  0.2465 -0.0420
 3719TIP3    H132648   0.831   6.729  12.270 -0.6157  0.3533  0.3320
 3719TIP3    H232649   0.795   6.619  12.173  0.5326  0.3629 -0.1244
 3720TIP3   OH232650   5.555   2.525  15.658 -0.0239 -0.4000  0.5804
 3720TIP3    H132651   5.487   2.467  15.691  0.6568 -1.7065 -0.1933
 3720TIP3    H232652   5.634   2.470  15.655  0.4542  0.2947 -1.0057
 3721TIP3   OH232653   6.509   6.401   3.828  0.4166 -0.2585  0.1577
 3721TIP3    H132654   6.504   6.374   3.920  0.3614 -1.3542 -0.1510
 3721TIP3    H232655   6.468   6.330   3.780  1.5529 -0.2908 -0.8198
 3722TIP3   OH232656   3.075   2.708  13.928 -0.0170  0.1456  0.0170
 3722TIP3    H132657   3.126   2.637  13.967 -1.5761 -0.2715  1.4112
 3722TIP3    H232658   3.060   2.769  14.000  0.7250  1.6049 -1.0070
 3723TIP3   OH232659   6.381   2.684  11.390 -0.0211 -0.3199  0.6010
 3723TIP3    H132660   6.292   2.691  11.424  0.1064 -0.6814  1.0235
 3723TIP3    H232661   6.433   2.743  11.444 -0.4127  1.8338 -1.2237
 3724TIP3   OH232662   3.996   6.770   4.352  0.0675 -0.1957  0.1724
 3724TIP3    H132663   4.049   6.691   4.365 -1.5945 -1.0768  2.1983
 3724TIP3    H232664   3.910   6.737   4.326 -0.2763  1.0591 -0.3751
 3725TIP3   OH232665   2.331   3.469  16.432 -0.3864 -0.2256  0.4409
 3725TIP3    H132666   2.257   3.425  16.391 -1.9671  0.4568  2.3818
 3725TIP3    H232667   2.407   3.414  16.411 -2.0213 -3.1394  1.6192
 3726TIP3   OH232668   1.479   0.483  16.606  0.1561  0.0456 -0.0082
 3726TIP3    H132669   1.523   0.407  16.644  1.1473  0.8410  0.4490
 3726TIP3    H232670   1.434   0.524  16.680  1.4840  1.1760  0.2129
 3727TIP3   OH232671   4.715   0.435  14.883  0.2284 -0.6255  0.3648
 3727TIP3    H132672   4.701   0.375  14.957  0.1978 -1.4598 -0.2961
 3727TIP3    H232673   4.779   0.390  14.827  1.3606  0.6496  0.5847
 3728TIP3   OH232674   6.584   2.585  16.681  0.0156  0.2670  0.6792
 3728TIP3    H132675   6.495   2.553  16.665  0.1559 -0.3861  1.1689
 3728TIP3    H232676   6.595   2.657  16.619 -0.2009 -0.8351 -0.6753
 3729TIP3   OH232677   2.842   6.549   2.143  0.4594  0.3032 -0.7740
 3729TIP3    H132678   2.930   6.581   2.123 -0.0353  0.7313 -2.4213
 3729TIP3    H232679   2.786   6.627   2.139  0.2412  0.4278  2.3519
 3730TIP3   OH232680   4.778   5.822   5.152  0.0479 -0.0911 -0.0492
 3730TIP3    H132681   4.829   5.902   5.138 -0.5397  0.0869 -1.2970
 3730TIP3    H232682   4.687   5.853   5.159 -0.1045 -0.5821  0.1618
 3731TIP3   OH232683   4.107   4.333  14.255  0.2252  0.2557 -0.6287
 3731TIP3    H132684   4.163   4.283  14.196 -0.5609  0.4093 -1.5384
 3731TIP3    H232685   4.056   4.267  14.302 -0.1783  0.1616 -1.1861
 3732TIP3   OH232686   1.839   0.476   2.021 -0.0757  0.2490  0.1072
 3732TIP3    H132687   1.784   0.437   1.954 -1.2081  1.1515  0.4822
 3732TIP3    H232688   1.929   0.454   1.994 -0.4954  0.5953 -1.6789
 3733TIP3   OH232689   5.886   6.615   5.018  0.3507  0.3606  0.5315
 3733TIP3    H132690   5.932   6.669   5.084  0.5552 -0.2159  0.8697
 3733TIP3    H232691   5.904   6.659   4.935  1.9117 -0.0928  0.5958
 3734TIP3   OH232692   3.478   3.818  10.985 -0.4045 -0.1417 -0.2014
 3734TIP3    H132693   3.548   3.853  10.930  2.5538 -0.9137  2.7126
 3734TIP3    H232694   3.453   3.892  11.041 -1.4230 -0.0831 -0.7123
 3735TIP3   OH232695   4.943   4.113  14.185  0.1096 -0.2716 -0.0834
 3735TIP3    H132696   4.970   4.061  14.110  0.8730  0.0342 -0.0317
 3735TIP3    H232697   4.881   4.058  14.232  0.9441 -1.1563 -0.0015
 3736TIP3   OH232698   5.172   1.470  12.899 -0.3443  0.5240 -0.4475
 3736TIP3    H132699   5.157   1.429  12.814 -0.2345 -0.6592  0.0843
 3736TIP3    H232700   5.261   1.443  12.923 -0.6588  0.2044  0.3888
 3737TIP3   OH232701   0.459   3.090   3.629 -0.7374  0.1777 -0.1432
 3737TIP3    H132702   0.455   3.090   3.725 -0.5796 -1.6006 -0.0954
 3737TIP3    H232703   0.478   3.180   3.606 -1.4745  0.7904  1.4666
 3738TIP3   OH232704   4.884   5.081   1.310  0.1523  0.1414 -0.4016
 3738TIP3    H132705   4.837   5.150   1.357  0.8666 -0.1751  0.8104
 3738TIP3    H232706   4.975   5.109   1.311  0.2338 -0.0776 -1.2559
 3739TIP3   OH232707   1.247   4.169   4.856  0.2463 -0.5288 -0.3893
 3739TIP3    H132708   1.172   4.112   4.838  0.9823 -1.8480  0.5621
 3739TIP3    H232709   1.291   4.129   4.931  0.7864  1.3372  0.3606
 3740TIP3   OH232710   4.219   2.588   2.680  0.1987 -0.4455 -0.3075
 3740TIP3    H132711   4.315   2.591   2.687  0.1993  1.0499 -0.6141
 3740TIP3    H232712   4.202   2.511   2.625  1.3280  0.2488 -1.6979
 3741TIP3   OH232713   0.913   3.055  12.179 -0.0008 -0.8286  0.8434
 3741TIP3    H132714   1.005   3.075  12.195 -0.0746  0.8857 -0.5380
 3741TIP3    H232715   0.869   3.140  12.188 -0.7644 -0.6983 -2.7839
 3742TIP3   OH232716   4.286   6.455   5.363 -0.2170  0.6888  0.3639
 3742TIP3    H132717   4.277   6.386   5.428  1.7689 -0.8655 -0.8844
 3742TIP3    H232718   4.229   6.428   5.291  1.0865 -0.1274 -0.4232
 3743TIP3   OH232719   2.240   0.859   1.780 -0.1296  0.0428  0.2802
 3743TIP3    H132720   2.227   0.916   1.856 -2.7429 -0.2522  0.1441
 3743TIP3    H232721   2.299   0.908   1.723  2.9811 -0.2633  2.9542
 3744TIP3   OH232722   4.424   6.737  13.508  0.3933 -0.4111 -0.3740
 3744TIP3    H132723   4.413   6.643  13.517 -0.4132 -0.3709 -0.7823
 3744TIP3    H232724   4.504   6.758  13.556 -0.3835 -1.0410  1.2558
 3745TIP3   OH232725   2.420   2.792  16.748  0.4637  0.3769 -0.1217
 3745TIP3    H132726   2.514   2.811  16.747  0.8207 -0.9189  2.0740
 3745TIP3    H232727   2.379   2.875  16.773  0.9604  1.0702 -1.5426
 3746TIP3   OH232728   1.449   6.073   0.975  0.5487 -0.2568  1.0174
 3746TIP3    H132729   1.522   6.043   1.031  0.4745  0.0946  1.3097
 3746TIP3    H232730   1.435   6.001   0.914  0.2564 -0.8988  1.8142
 3747TIP3   OH232731   3.339   6.508   3.369  0.0404 -0.2197 -0.2517
 3747TIP3    H132732   3.350   6.443   3.438  1.7226  1.0233  0.7128
 3747TIP3    H232733   3.397   6.478   3.299  0.8791  0.2802  0.2261
 3748TIP3   OH232734   6.093   3.414  14.510 -0.0077  0.1047 -0.7325
 3748TIP3    H132735   6.093   3.320  14.493  1.3514 -0.2891  1.0749
 3748TIP3    H232736   6.183   3.442  14.490 -0.3410  0.9827 -1.0439
 3749TIP3   OH232737   4.165   6.535   3.517  0.3080 -0.5279  0.0517
 3749TIP3    H132738   4.223   6.463   3.541 -0.0228 -0.6881  0.3786
 3749TIP3    H232739   4.078   6.494   3.510 -0.0129 -0.0206  0.9871
 3750TIP3   OH232740   6.305   1.921   5.683  0.3643 -0.1990  0.1959
 3750TIP3    H132741   6.258   1.956   5.759 -0.5426  1.3989 -1.0480
 3750TIP3    H232742   6.391   1.962   5.687  0.5023 -0.5195  0.6268
 3751TIP3   OH232743   6.120   0.168   5.042 -0.3086 -0.0336  0.2390
 3751TIP3    H132744   6.146   0.209   4.959 -0.6731 -2.4224 -1.1567
 3751TIP3    H232745   6.030   0.140   5.028  0.1815 -2.0534  0.7244
 3752TIP3   OH232746   6.504   3.225  14.666  0.3260  0.2548 -0.2159
 3752TIP3    H132747   6.537   3.137  14.649  2.8451  1.1940 -0.5610
 3752TIP3    H232748   6.501   3.267  14.580 -0.8825  0.5213 -0.0602
 3753TIP3   OH232749   0.606   1.589   4.559 -0.1030 -0.9427  0.0628
 3753TIP3    H132750   0.518   1.611   4.528 -0.1002 -1.8728 -0.6699
 3753TIP3    H232751   0.605   1.494   4.569  0.4770 -0.8477  1.1750
 3754TIP3   OH232752   1.191   4.054   3.483  0.3561 -0.7341  0.7687
 3754TIP3    H132753   1.166   4.144   3.463  1.3301 -0.0955  2.2601
 3754TIP3    H232754   1.156   4.003   3.411 -1.4426  0.6519  0.6003
 3755TIP3   OH232755   5.672   4.498  15.948 -0.1603 -0.0173  0.1171
 3755TIP3    H132756   5.750   4.468  15.901 -0.4925  1.8306 -1.7860
 3755TIP3    H232757   5.695   4.489  16.041  1.4958 -1.4685 -0.3718
 3756TIP3   OH232758   5.543   1.128   0.474 -0.4686  0.2057  0.5272
 3756TIP3    H132759   5.541   1.042   0.433 -2.9410 -0.2980  1.5269
 3756TIP3    H232760   5.627   1.165   0.449 -0.1946 -1.6745 -1.6066
 3757TIP3   OH232761   2.159   6.326   1.082 -0.4520  0.9706  0.0604
 3757TIP3    H132762   2.155   6.233   1.060  1.2174  1.1162 -1.0637
 3757TIP3    H232763   2.082   6.341   1.138  0.3503 -1.5156  2.0387
 3758TIP3   OH232764   1.674   2.303  15.067 -0.4621  0.0641 -0.1196
 3758TIP3    H132765   1.701   2.233  15.008 -0.6687 -0.9560  0.9451
 3758TIP3    H232766   1.755   2.351  15.085 -0.5780  1.0400 -2.0039
 3759TIP3   OH232767   3.232   4.226   0.268 -0.2543 -0.1871 -0.0016
 3759TIP3    H132768   3.269   4.205   0.182 -2.6925  0.0561 -1.2063
 3759TIP3    H232769   3.169   4.155   0.285  0.7814 -0.6880  2.0280
 3760TIP3   OH232770   2.399   4.192   3.749 -0.3263 -0.6508  0.2038
 3760TIP3    H132771   2.418   4.258   3.682 -1.4818  0.2058  0.6826
 3760TIP3    H232772   2.429   4.110   3.712  0.3032  0.0196 -0.7967
 3761TIP3   OH232773   4.286   3.213  11.301  0.1965  0.0977 -0.7033
 3761TIP3    H132774   4.342   3.173  11.234  0.0228  1.0013 -1.4186
 3761TIP3    H232775   4.327   3.298  11.319 -0.0485  0.0809 -0.0399
 3762TIP3   OH232776   1.058   3.697  10.487  0.5651  0.2753 -0.1642
 3762TIP3    H132777   1.043   3.672  10.396 -0.2372 -1.8800  0.4849
 3762TIP3    H232778   1.005   3.775  10.500  1.1571  0.9800 -1.6615
 3763TIP3   OH232779   2.091   2.636  16.579 -0.0488  0.2388 -0.3391
 3763TIP3    H132780   2.134   2.691  16.514  0.4387  1.0099  0.5915
 3763TIP3    H232781   2.150   2.639  16.655 -1.7932  1.4902  1.0622
 3764TIP3   OH232782   0.040   0.072  15.916 -0.7779  0.0555 -0.1480
 3764TIP3    H132783   0.064   0.126  15.991  0.7749  0.2216 -0.7346
 3764TIP3    H232784   0.029   0.134  15.844 -0.7832 -0.2378 -0.4040
 3765TIP3   OH232785   3.212   0.426  16.453  0.2735  0.1782  0.0879
 3765TIP3    H132786   3.214   0.517  16.483  2.1191  0.5315 -0.9338
 3765TIP3    H232787   3.123   0.414  16.420  0.4487  2.1847 -1.3323
 3766TIP3   OH232788   5.340   1.164   0.172  0.1135 -0.2290 -0.6144
 3766TIP3    H132789   5.432   1.190   0.168  0.5087 -1.1654  1.1864
 3766TIP3    H232790   5.296   1.237   0.215  0.0290  0.1593 -1.3500
 3767TIP3   OH232791   0.130   2.175  15.277  0.6853 -0.2491 -0.2125
 3767TIP3    H132792   0.147   2.098  15.331  1.8259  0.7075  0.8549
 3767TIP3    H232793   0.035   2.176  15.266  0.6468 -1.8214 -0.3130
 3768TIP3   OH232794   4.104   2.304   3.799 -0.2395  0.0996  0.2382
 3768TIP3    H132795   4.067   2.253   3.727 -1.1517  1.6141 -0.4143
 3768TIP3    H232796   4.178   2.351   3.761 -0.5595  0.6999  0.3399
 3769TIP3   OH232797   4.192   5.579  16.457 -0.3170  0.2200  0.7400
 3769TIP3    H132798   4.154   5.509  16.510 -0.7436  0.3719  0.6489
 3769TIP3    H232799   4.257   5.536  16.402  1.2296  0.3095  2.4494
 3770TIP3   OH232800   1.098   6.043   3.383 -0.0325 -0.2725  0.5304
 3770TIP3    H132801   1.011   6.077   3.361  0.5091  1.9917  1.5412
 3770TIP3    H232802   1.107   5.962   3.332 -1.7229  0.7882 -1.5962
 3771TIP3   OH232803   0.650   2.669  14.808 -0.1817 -0.2743 -0.1108
 3771TIP3    H132804   0.684   2.584  14.837 -0.9345 -1.2810 -1.9950
 3771TIP3    H232805   0.562   2.649  14.774 -0.2698  1.2157 -0.8271
 3772TIP3   OH232806   0.350   5.498  14.746 -0.6939 -0.0694 -0.2038
 3772TIP3    H132807   0.413   5.560  14.780  0.3189  0.5696 -3.0028
 3772TIP3    H232808   0.350   5.426  14.810  1.1459  0.9409  1.0200
 3773TIP3   OH232809   6.702   3.275  12.295  0.3387 -0.1119  0.3249
 3773TIP3    H132810   6.664   3.360  12.274 -2.1841 -1.0055  0.9575
 3773TIP3    H232811   6.777   3.296  12.352  0.8526  1.7173 -0.9327
 3774TIP3   OH232812   5.335   2.169   4.155 -0.4481 -0.4836 -0.1306
 3774TIP3    H132813   5.366   2.120   4.231 -0.4639  0.5223  0.5428
 3774TIP3    H232814   5.397   2.146   4.085  0.0502 -0.7981  0.4040
 3775TIP3   OH232815   1.084   1.184   5.478 -0.0151 -0.3811 -0.0711
 3775TIP3    H132816   1.083   1.273   5.443  1.9110 -0.8330 -1.4464
 3775TIP3    H232817   1.147   1.187   5.550  0.4067 -0.7031 -0.4169
 3776TIP3   OH232818   4.731   5.561   1.968  0.0875  1.2844  0.0948
 3776TIP3    H132819   4.652   5.507   1.967 -0.5380  2.1803  0.1823
 3776TIP3    H232820   4.716   5.628   1.902  0.9855  1.1784 -0.2327
 3777TIP3   OH232821   3.076   5.589   2.853  0.2432 -0.2226  0.2616
 3777TIP3    H132822   3.144   5.647   2.817 -0.9877  1.5396  0.6937
 3777TIP3    H232823   3.081   5.601   2.947 -0.6433 -0.1188  0.2980
 3778TIP3   OH232824   2.110   1.640   5.862  0.1281 -0.2144  0.8466
 3778TIP3    H132825   2.044   1.615   5.926 -1.0477  1.6875  0.4818
 3778TIP3    H232826   2.163   1.562   5.848 -1.4959 -1.5352  1.8423
 3779TIP3   OH232827   6.135   1.074  13.923  0.0562 -0.4396  0.4424
 3779TIP3    H132828   6.205   1.136  13.900  0.1477 -0.6233  0.2117
 3779TIP3    H232829   6.177   1.011  13.982 -0.4012  0.5326  1.8489
 3780TIP3   OH232830   3.600   5.114  17.033  0.3826 -0.5673 -0.4770
 3780TIP3    H132831   3.655   5.146  16.962 -0.4519 -0.0102 -0.8873
 3780TIP3    H232832   3.616   5.020  17.036  2.1098 -0.2864  0.0764
 3781TIP3   OH232833   3.930   3.790  15.031  0.0218  0.2911 -0.0931
 3781TIP3    H132834   3.950   3.883  15.044  2.0334  0.1452 -1.7393
 3781TIP3    H232835   3.994   3.744  15.085  0.7849 -0.1397 -1.3300
 3782TIP3   OH232836   1.345   2.811  15.235 -0.1319 -0.1239  0.0999
 3782TIP3    H132837   1.274   2.758  15.270 -1.1050 -1.5887 -3.6902
 3782TIP3    H232838   1.412   2.748  15.209  0.7890  0.9063 -0.1254
 3783TIP3   OH232839   0.707   4.919  16.498 -0.1498 -0.5886 -0.2592
 3783TIP3    H132840   0.707   5.008  16.462  1.6089 -0.4561  0.0079
 3783TIP3    H232841   0.730   4.930  16.590  0.3986 -1.3423 -0.2996
 3784TIP3   OH232842   4.963   4.471  16.809  0.2485  0.2131 -0.0881
 3784TIP3    H132843   5.011   4.389  16.823  0.0374  0.0894 -0.0843
 3784TIP3    H232844   4.923   4.490  16.894 -1.0375 -0.5399 -0.4836
 3785TIP3   OH232845   4.194   3.445  13.191 -0.2494  0.4596 -0.0582
 3785TIP3    H132846   4.232   3.532  13.189 -2.2098  1.3873  0.7873
 3785TIP3    H232847   4.100   3.459  13.181 -0.5566 -1.6164 -0.6525
 3786TIP3   OH232848   5.796   6.213   2.573 -0.5770 -0.3010 -0.2000
 3786TIP3    H132849   5.845   6.295   2.574 -0.0732 -0.5989 -0.1520
 3786TIP3    H232850   5.706   6.239   2.552 -0.1544  0.1101 -1.6008
 3787TIP3   OH232851   5.445   3.011   1.988 -0.2998  0.1025 -0.1147
 3787TIP3    H132852   5.424   3.104   1.994 -0.2018  0.1597 -0.5973
 3787TIP3    H232853   5.504   2.995   2.061 -0.4665  0.3767  0.0848
 3788TIP3   OH232854   6.397   0.293  14.073  0.7716 -0.1918  0.3036
 3788TIP3    H132855   6.387   0.333  14.159  2.8955  1.9225 -0.3144
 3788TIP3    H232856   6.326   0.330  14.021 -0.3685 -1.2874  1.0294
 3789TIP3   OH232857   1.627   5.804   5.425  0.2945  0.7265  0.1126
 3789TIP3    H132858   1.687   5.868   5.386 -0.3309  2.0241  1.1877
 3789TIP3    H232859   1.680   5.724   5.433  1.3944  1.3714 -0.4066
 3790TIP3   OH232860   3.977   1.129   6.144  0.4085  0.0486  0.1412
 3790TIP3    H132861   4.056   1.145   6.092 -0.5475  0.3307 -1.2739
 3790TIP3    H232862   4.009   1.083   6.222  2.1564  1.4598  0.3313
 3791TIP3   OH232863   0.432   3.897   5.123  0.1137 -0.6481 -0.4273
 3791TIP3    H132864   0.391   3.976   5.088  3.4121  0.9331 -1.0758
 3791TIP3    H232865   0.432   3.909   5.217  3.2173  1.7642 -0.5812
 3792TIP3   OH232866   5.203   5.174   4.598  0.2606  0.0978  0.3379
 3792TIP3    H132867   5.274   5.238   4.603  0.2625  0.3904 -2.0809
 3792TIP3    H232868   5.202   5.147   4.506 -0.3598 -2.7076  1.0614
 3793TIP3   OH232869   5.662   4.805  15.754  1.2336 -0.4869  0.4747
 3793TIP3    H132870   5.639   4.892  15.723  2.3135 -0.7770 -1.2537
 3793TIP3    H232871   5.757   4.807  15.764  1.1261 -1.0385  1.8919
 3794TIP3   OH232872   6.586   0.910  14.287 -0.6224  0.3573 -0.6965
 3794TIP3    H132873   6.531   0.836  14.315  1.2406 -0.7802  0.1712
 3794TIP3    H232874   6.651   0.870  14.228 -0.2504  1.5111 -1.0885
 3795TIP3   OH232875   3.199   5.248   1.749  0.9538  0.6145 -0.0079
 3795TIP3    H132876   3.226   5.175   1.805 -1.7778 -1.5408 -1.2432
 3795TIP3    H232877   3.130   5.292   1.799  2.4607  2.3409  0.6490
 3796TIP3   OH232878   5.565   5.864   3.919  0.0044 -0.2046  0.1420
 3796TIP3    H132879   5.634   5.822   3.970  1.0042 -0.2002 -1.1591
 3796TIP3    H232880   5.494   5.877   3.981  0.4126 -2.0156  1.0599
 3797TIP3   OH232881   6.100   0.955  11.327  0.1618  0.3675 -0.5312
 3797TIP3    H132882   6.088   0.900  11.250  0.1652  0.3089 -0.4900
 3797TIP3    H232883   6.015   0.999  11.338 -0.1319 -0.3232 -0.0240
 3798TIP3   OH232884   1.330   4.506   0.195 -0.3566 -0.5900  0.7908
 3798TIP3    H132885   1.413   4.505   0.242  0.3595 -0.9922 -0.4121
 3798TIP3    H232886   1.304   4.598   0.194 -0.8851 -0.6767  2.7405
 3799TIP3   OH232887   6.666   3.638   2.782  0.1763  0.5684 -0.2425
 3799TIP3    H132888   6.749   3.591   2.794 -0.0592  0.3852  0.7864
 3799TIP3    H232889   6.623   3.593   2.709  0.6568  0.2005 -0.3075
 3800TIP3   OH232890   0.200   6.394  11.956  0.4324 -0.2872  0.9297
 3800TIP3    H132891   0.110   6.399  11.989 -0.0428  0.1364 -0.3694
 3800TIP3    H232892   0.198   6.323  11.892  0.8080  0.2730  0.2848
 3801TIP3   OH232893   1.349   3.850   0.144  0.1000  0.4196 -0.1538
 3801TIP3    H132894   1.375   3.938   0.168 -0.5591  0.2920  1.1556
 3801TIP3    H232895   1.395   3.793   0.207  1.1717 -0.2484 -1.4981
 3802TIP3   OH232896   0.862   2.034   4.407  0.7152  0.3116  0.3266
 3802TIP3    H132897   0.907   1.963   4.362  1.5444 -0.3199  2.0964
 3802TIP3    H232898   0.780   2.044   4.358  1.1695 -0.9427 -0.7585
 3803TIP3   OH232899   5.101   5.775  15.764 -0.8006  0.1967  0.2084
 3803TIP3    H132900   5.023   5.828  15.748 -0.3518  0.7213 -0.3289
 3803TIP3    H232901   5.127   5.743  15.677  0.2328  0.9903  0.1962
 3804TIP3   OH232902   4.266   3.957  12.118 -0.5689 -0.3364  0.3134
 3804TIP3    H132903   4.259   4.036  12.065 -1.3209 -1.0600 -0.7171
 3804TIP3    H232904   4.342   3.972  12.174 -1.1683  1.4374  0.7140
 3805TIP3   OH232905   2.410   3.729  13.558  0.1845  0.3383 -0.0307
 3805TIP3    H132906   2.377   3.772  13.479 -1.5543 -2.3913 -0.9475
 3805TIP3    H232907   2.505   3.724  13.545  0.0804  1.2291 -1.2574
 3806TIP3   OH232908   4.983   0.811  11.388 -0.9691 -0.6785 -0.3175
 3806TIP3    H132909   4.906   0.796  11.443  0.4076  1.9676  2.6831
 3806TIP3    H232910   5.057   0.795  11.446  0.6831 -0.0917 -2.1518
 3807TIP3   OH232911   2.389   0.375   1.283  0.4095 -0.5270  0.4613
 3807TIP3    H132912   2.377   0.330   1.199 -1.2505  1.4184 -0.4396
 3807TIP3    H232913   2.464   0.432   1.268 -0.7353  0.8780 -0.2879
 3808TIP3   OH232914   0.929   1.901  10.774  0.0774 -0.1979  0.0743
 3808TIP3    H132915   0.928   1.855  10.858 -1.2205 -0.7869 -0.2373
 3808TIP3    H232916   0.921   1.994  10.797 -2.7454 -0.4778  0.5856
 3809TIP3   OH232917   5.811   6.421  14.956 -0.8402 -0.3264 -0.4656
 3809TIP3    H132918   5.834   6.343  14.905  0.1226 -0.7078  0.5171
 3809TIP3    H232919   5.799   6.490  14.890  1.0687 -0.6290 -1.1795
 3810TIP3   OH232920   0.000   4.244  12.003 -0.1704  0.7138 -0.5795
 3810TIP3    H132921  -0.009   4.179  11.934  2.4544  0.0925 -0.4483
 3810TIP3    H232922   0.030   4.323  11.958  0.1524  0.7429 -0.3163
 3811TIP3   OH232923   0.140   0.811  16.480 -0.0409 -0.1953 -0.1817
 3811TIP3    H132924   0.122   0.905  16.479 -0.3822 -0.2557 -1.0802
 3811TIP3    H232925   0.233   0.804  16.459  0.0940 -0.0416  0.3601
 3812TIP3   OH232926   2.382   3.658  15.803 -0.5421  0.2172 -0.8199
 3812TIP3    H132927   2.407   3.658  15.896 -0.2538 -4.7228 -0.6020
 3812TIP3    H232928   2.293   3.623  15.803 -0.1829 -0.7870 -2.3958
 3813TIP3   OH232929   0.151   1.015   3.102 -0.0632  0.2542 -0.1808
 3813TIP3    H132930   0.130   1.060   3.020  3.1762  1.4745 -0.4972
 3813TIP3    H232931   0.235   0.972   3.084 -0.3284 -1.2414  1.8793
 3814TIP3   OH232932   4.825   2.338   1.588  0.7146  0.0021  0.1544
 3814TIP3    H132933   4.865   2.316   1.672  1.0407  1.0955  0.2971
 3814TIP3    H232934   4.796   2.254   1.553  0.3032 -0.4377  1.4908
 3815TIP3   OH232935   3.225   3.264   2.929 -0.5681  0.6491 -0.7397
 3815TIP3    H132936   3.299   3.238   2.985  0.2859  0.0241 -2.1039
 3815TIP3    H232937   3.221   3.359   2.937 -0.3135  0.5949  0.1876
 3816TIP3   OH232938   2.020   3.326  15.380  0.7097 -0.5644 -0.2771
 3816TIP3    H132939   1.930   3.355  15.365  0.9524  2.0491  2.4598
 3816TIP3    H232940   2.073   3.376  15.318  0.4279 -1.1963 -1.0444
 3817TIP3   OH232941   1.102   4.118  10.452  0.0005 -0.9482  0.3032
 3817TIP3    H132942   1.091   4.204  10.492 -0.3076 -0.8228 -0.0510
 3817TIP3    H232943   1.173   4.129  10.389 -0.6569 -0.7130 -0.4144
 3818TIP3   OH232944   5.305   4.020   6.299 -0.0369 -0.2008  0.4322
 3818TIP3    H132945   5.362   3.943   6.305 -0.3136 -0.5008 -0.6549
 3818TIP3    H232946   5.364   4.092   6.278  0.0175 -0.4198 -0.1857
 3819TIP3   OH232947   1.588   0.140  16.460  0.2381 -0.1064  0.1797
 3819TIP3    H132948   1.599   0.144  16.365  2.2834  0.2052  0.3912
 3819TIP3    H232949   1.658   0.194  16.495 -0.4913 -0.1971  1.8897
 3820TIP3   OH232950   4.899   1.729  13.374  0.3424 -0.2096  0.0544
 3820TIP3    H132951   4.838   1.802  13.382  0.6984  0.4008 -2.0436
 3820TIP3    H232952   4.954   1.734  13.451 -0.6122  0.7988  0.6991
 3821TIP3   OH232953   5.004   0.036   4.260  0.0071  0.4251 -0.7232
 3821TIP3    H132954   5.097   0.059   4.261  0.4724 -1.0807 -2.5029
 3821TIP3    H232955   5.003  -0.055   4.228 -2.0356  0.0803  0.1879
 3822TIP3   OH232956   6.272   3.877  10.289 -0.7669 -0.3109  0.3338
 3822TIP3    H132957   6.181   3.899  10.312 -1.0212 -1.0740  0.1022
 3822TIP3    H232958   6.325   3.925  10.352 -1.3372  0.1041  0.5079
 3823TIP3   OH232959   4.618   4.345   1.885 -0.5213 -0.3073  0.4962
 3823TIP3    H132960   4.550   4.410   1.867 -0.1177  0.1571  0.6106
 3823TIP3    H232961   4.669   4.382   1.958 -1.5215 -1.7006  1.9700
 3824TIP3   OH232962   3.524   5.517  12.527  0.7864 -0.1168  0.2169
 3824TIP3    H132963   3.546   5.424  12.522 -0.3864 -0.4140  0.1846
 3824TIP3    H232964   3.434   5.518  12.560 -0.6291  0.7960 -3.2277
 3825TIP3   OH232965   0.624   3.602  12.058  0.6157 -0.6374  0.0461
 3825TIP3    H132966   0.603   3.541  11.987 -0.5251 -1.8127  1.3200
 3825TIP3    H232967   0.587   3.685  12.030  0.0173 -1.1200 -0.6568
 3826TIP3   OH232968   2.656   6.622   3.707  0.4504  0.5318  0.2025
 3826TIP3    H132969   2.682   6.541   3.662 -2.3436 -0.5335  0.2755
 3826TIP3    H232970   2.690   6.611   3.796 -0.0224 -0.6872  0.2613
 3827TIP3   OH232971   3.587   2.909  16.825  0.1587  0.1320 -0.0594
 3827TIP3    H132972   3.584   2.886  16.918 -2.3417  2.3087  0.5323
 3827TIP3    H232973   3.606   2.827  16.780 -0.3710 -1.3519  2.2492
 3828TIP3   OH232974   4.311   6.374   4.550 -0.3295  0.2252  0.8464
 3828TIP3    H132975   4.295   6.426   4.628 -0.4663  0.7703  0.4628
 3828TIP3    H232976   4.394   6.331   4.566 -0.2684  0.4770  1.2165
 3829TIP3   OH232977   4.496   6.602   0.516 -0.1145  0.4490 -0.2064
 3829TIP3    H132978   4.564   6.580   0.579  1.6489  2.2455 -1.3529
 3829TIP3    H232979   4.513   6.545   0.441 -0.4651  0.2462 -0.1326
 3830TIP3   OH232980   2.603   2.164   1.481  0.5803 -0.6551  0.0467
 3830TIP3    H132981   2.676   2.217   1.448  0.4670 -0.3550  0.2737
 3830TIP3    H232982   2.539   2.228   1.511 -0.1337 -0.9070 -0.9208
 3831TIP3   OH232983   3.587   4.580   1.991  0.4620 -0.2726 -0.2329
 3831TIP3    H132984   3.606   4.530   1.912 -0.2598 -0.8113 -0.0815
 3831TIP3    H232985   3.591   4.514   2.061 -0.3593 -0.0971 -0.0128
 3832TIP3   OH232986   4.637   3.276  11.142  0.0975  0.2785 -0.4619
 3832TIP3    H132987   4.565   3.220  11.115 -0.6048 -0.4929  2.6039
 3832TIP3    H232988   4.649   3.337  11.069 -3.5577  0.3320 -1.2100
 3833TIP3   OH232989   5.547   3.401  11.548  0.1222  0.3202  0.0575
 3833TIP3    H132990   5.630   3.373  11.587 -0.1146 -0.1096  0.2528
 3833TIP3    H232991   5.501   3.444  11.621  0.7815  1.8931 -0.4060
 3834TIP3   OH232992   1.972   4.525   2.556  0.7206  0.1328  0.1736
 3834TIP3    H132993   2.023   4.484   2.625  0.9107 -2.5775 -1.4219
 3834TIP3    H232994   2.033   4.534   2.483  0.0881  1.2739 -0.2395
 3835TIP3   OH232995   0.188   3.411   5.907 -0.5092 -0.2072  0.5738
 3835TIP3    H132996   0.117   3.404   5.970 -1.5313 -0.0055 -0.5304
 3835TIP3    H232997   0.215   3.503   5.911  0.3443 -0.4874  1.6642
 3836TIP3   OH232998   5.781   4.802  14.878  0.4036 -0.1924 -0.9329
 3836TIP3    H132999   5.763   4.733  14.814  2.5392  0.8240 -2.7629
 3836TIP3    H233000   5.806   4.755  14.957 -1.7463 -1.4842 -0.9381
 3837TIP3   OH233001   6.037   6.228   0.307 -0.3657 -0.1404  0.1180
 3837TIP3    H133002   6.080   6.272   0.234  0.2420 -1.2985 -0.2477
 3837TIP3    H233003   6.018   6.140   0.274 -0.4378 -0.5510  1.2209
 3838TIP3   OH233004   1.330   0.059   4.259 -0.1514  0.2499  0.2810
 3838TIP3    H133005   1.282   0.052   4.177 -1.3498  1.4956  0.8278
 3838TIP3    H233006   1.315   0.150   4.288 -1.0819 -0.5723  2.6230
 3839TIP3   OH233007   0.953   6.325  15.038  0.4148 -0.7212  0.4036
 3839TIP3    H133008   0.865   6.295  15.015  0.8732 -2.2421  0.5638
 3839TIP3    H233009   0.993   6.252  15.085  1.1206  0.6324  2.0221
 3840TIP3   OH233010   4.754   6.685   2.041 -0.1848 -0.3494  0.0103
 3840TIP3    H133011   4.715   6.599   2.056  2.3127 -1.8764 -1.4781
 3840TIP3    H233012   4.787   6.712   2.127 -0.9479 -0.8827  0.4828
 3841TIP3   OH233013   2.474   0.013   2.020  0.2809  0.3834 -0.3300
 3841TIP3    H133014   2.420   0.083   2.055 -0.4762 -0.8065  0.9784
 3841TIP3    H233015   2.435  -0.067   2.054  3.3889 -0.5213  1.5321
 3842TIP3   OH233016   1.876   6.701  11.914 -0.4059  0.2780  0.0001
 3842TIP3    H133017   1.872   6.653  11.832 -1.7255  0.9390 -0.3393
 3842TIP3    H233018   1.839   6.641  11.979  0.1422 -0.0427  0.0191
 3843TIP3   OH233019   6.789   0.148  12.984  0.0026 -0.2933 -0.2750
 3843TIP3    H133020   6.740   0.066  12.993 -0.7612 -0.2150 -2.8154
 3843TIP3    H233021   6.728   0.216  13.011 -1.2037 -0.2567 -2.7616
 3844TIP3   OH233022   2.672   3.001  11.713  0.6740  0.3195 -0.2108
 3844TIP3    H133023   2.747   2.951  11.746  0.3460  0.2553  0.4576
 3844TIP3    H233024   2.612   3.005  11.787  0.7398  1.8078 -0.2200
 3845TIP3   OH233025   2.374   1.870   3.189  0.3006 -0.3841 -0.7635
 3845TIP3    H133026   2.467   1.890   3.179  0.4021 -0.8707 -0.8604
 3845TIP3    H233027   2.340   1.938   3.247  0.8445 -0.5459 -0.2484
 3846TIP3   OH233028   2.689   6.779  15.698 -0.0865  0.1465  0.0862
 3846TIP3    H133029   2.622   6.734  15.749 -0.8565 -0.3392 -1.3032
 3846TIP3    H233030   2.732   6.710  15.648  0.3432  0.6624 -0.2670
 3847TIP3   OH233031   2.502   5.843   3.370 -0.2563  0.3538 -0.0174
 3847TIP3    H133032   2.461   5.776   3.424 -0.4143 -1.2030 -1.9208
 3847TIP3    H233033   2.584   5.863   3.414 -0.1926 -1.1572  0.5988
 3848TIP3   OH233034   1.420   2.112  14.261  0.3587 -0.4100  0.2369
 3848TIP3    H133035   1.416   2.141  14.170 -0.8367  0.9112  0.6759
 3848TIP3    H233036   1.395   2.189  14.312 -0.3463 -1.5035  1.6124
 3849TIP3   OH233037   1.446   4.004   1.475  0.0234  0.1534  0.6024
 3849TIP3    H133038   1.434   3.909   1.470 -0.6425  0.3158 -1.9973
 3849TIP3    H233039   1.541   4.016   1.469  0.0536 -0.3235  0.0523
 3850TIP3   OH233040   3.928   5.393   2.312 -0.5919  0.4120  0.0641
 3850TIP3    H133041   3.940   5.380   2.218  2.0610  1.4310  0.1771
 3850TIP3    H233042   3.845   5.349   2.332 -1.0694 -0.1151 -2.6581
 3851TIP3   OH233043   0.508   4.084   0.673 -0.3288 -0.3648 -0.8586
 3851TIP3    H133044   0.425   4.132   0.669 -0.0855  0.0437 -1.0890
 3851TIP3    H233045   0.572   4.144   0.635  0.9049  1.1382  3.0329
 3852TIP3   OH233046   3.771   3.898  14.234  0.0213  0.2652 -0.6585
 3852TIP3    H133047   3.752   3.991  14.226  0.6855  0.3216 -1.7062
 3852TIP3    H233048   3.685   3.856  14.239 -0.3129  1.0289  1.4814
 3853TIP3   OH233049   4.052   3.459   1.061  0.1423  0.1092 -0.2889
 3853TIP3    H133050   4.083   3.374   1.031  0.3483  0.1898 -0.3114
 3853TIP3    H233051   3.975   3.477   1.007  0.7425  0.4343 -1.0662
 3854TIP3   OH233052   0.171   1.254   0.800 -0.0884  0.3485  0.4255
 3854TIP3    H133053   0.092   1.201   0.806 -0.1883  0.5554  0.9607
 3854TIP3    H233054   0.243   1.190   0.800 -0.2759  0.0877 -1.2503
 3855TIP3   OH233055   6.662   6.481   1.481  0.4611 -0.6999  0.3472
 3855TIP3    H133056   6.659   6.462   1.575 -1.1290 -2.2045  0.0384
 3855TIP3    H233057   6.579   6.448   1.447  1.7278 -1.8189 -1.8845
 3856TIP3   OH233058   4.791   6.531   3.104 -0.3449  0.0692  0.3350
 3856TIP3    H133059   4.877   6.501   3.133 -0.0111 -0.7988 -1.4235
 3856TIP3    H233060   4.763   6.593   3.171  0.6186 -1.3634  2.1525
 3857TIP3   OH233061   5.528   3.787  12.938 -0.0617 -0.1961 -0.6099
 3857TIP3    H133062   5.456   3.741  12.982 -1.2610  3.0434  1.2415
 3857TIP3    H233063   5.490   3.818  12.856  1.0547 -3.1412 -2.3547
 3858TIP3   OH233064   1.844   4.578   1.218 -0.1838  0.6269  0.0580
 3858TIP3    H133065   1.933   4.543   1.227 -0.6935 -0.8293 -0.3588
 3858TIP3    H233066   1.851   4.669   1.247  1.3397  0.3942  0.4904
 3859TIP3   OH233067   0.446   6.565   1.114  0.6121 -0.4389 -0.0799
 3859TIP3    H133068   0.500   6.504   1.063  0.6056 -0.6815  0.1980
 3859TIP3    H233069   0.359   6.560   1.074  1.4378  2.2434 -2.5290
 3860TIP3   OH233070   4.421   4.779   4.156 -0.1263  0.2906  0.0548
 3860TIP3    H133071   4.335   4.777   4.197  0.2473 -1.2622  0.8412
 3860TIP3    H233072   4.474   4.832   4.216 -0.1876  0.0571  0.3187
 3861TIP3   OH233073   2.420   4.917  11.122 -0.0237  0.1634 -0.4044
 3861TIP3    H133074   2.438   4.829  11.156 -0.1493  0.6264  0.9124
 3861TIP3    H233075   2.327   4.916  11.101  0.0574 -0.1318 -0.7596
 3862TIP3   OH233076   3.611   0.702  13.495  0.3006 -0.4843 -0.1602
 3862TIP3    H133077   3.702   0.729  13.484  0.0867  0.0889 -0.5677
 3862TIP3    H233078   3.610   0.655  13.578  0.9552 -0.4394 -0.1216
 3863TIP3   OH233079   1.005   5.153  13.780 -0.3749 -1.1115 -0.0275
 3863TIP3    H133080   0.972   5.156  13.870  1.5373  2.4275  0.6893
 3863TIP3    H233081   0.934   5.190  13.727 -0.5201 -0.8117  0.3764
 3864TIP3   OH233082   0.452   4.214   0.922 -0.3687 -0.2252 -0.2217
 3864TIP3    H133083   0.462   4.196   0.828  0.6502  1.0382 -0.3796
 3864TIP3    H233084   0.470   4.130   0.965  1.1420 -0.3612 -1.0641
 3865TIP3   OH233085   0.056   2.422   1.251  0.2291  0.4529 -0.2153
 3865TIP3    H133086  -0.000   2.356   1.291  0.3386  0.4662 -0.0390
 3865TIP3    H233087   0.018   2.436   1.164  0.9370 -0.7596 -0.7432
 3866TIP3   OH233088   2.913   2.002   0.287  0.3918 -0.6713  0.4649
 3866TIP3    H133089   2.963   2.031   0.211  1.2907 -0.9582  0.9340
 3866TIP3    H233090   2.836   2.059   0.288 -0.0185 -1.1681 -1.0852
 3867TIP3   OH233091   1.341   3.997  11.820  0.0232  0.0268  0.5764
 3867TIP3    H133092   1.256   4.021  11.855  0.0680 -0.7694  1.2763
 3867TIP3    H233093   1.375   4.077  11.781 -1.6442  0.0288 -1.0054
 3868TIP3   OH233094   3.204   6.575   0.898  0.1054 -0.0727 -0.1000
 3868TIP3    H133095   3.275   6.573   0.962  1.9664 -0.9927 -2.0705
 3868TIP3    H233096   3.198   6.667   0.872  1.7746 -0.1983 -1.0937
 3869TIP3   OH233097   4.014   4.359  12.367  0.1436  0.2583  0.0596
 3869TIP3    H133098   4.037   4.417  12.440  0.7918 -1.3012  1.1823
 3869TIP3    H233099   4.060   4.395  12.292 -0.8729  2.1571  0.3087
 3870TIP3   OH233100   3.874   4.791  13.216 -0.4385  0.0243  0.6847
 3870TIP3    H133101   3.926   4.867  13.241 -0.5686  0.7804 -1.2133
 3870TIP3    H233102   3.836   4.760  13.299  0.1207  1.6259  1.5882
 3871TIP3   OH233103   4.818   3.273   3.991 -0.5238 -0.1636 -0.7385
 3871TIP3    H133104   4.906   3.257   4.023 -0.7257 -1.7554 -0.9173
 3871TIP3    H233105   4.786   3.345   4.045  0.3700 -0.5315  0.3089
 3872TIP3   OH233106   4.612   3.440   3.417  0.3905  0.4280 -0.5647
 3872TIP3    H133107   4.558   3.449   3.338 -1.9153  1.9262  1.0435
 3872TIP3    H233108   4.555   3.394   3.479  2.7827 -2.3531 -0.2262
 3873TIP3   OH233109   4.528   2.019  13.415 -0.4436  0.2148  0.1101
 3873TIP3    H133110   4.549   2.094  13.359 -1.0404 -0.2426 -0.7567
 3873TIP3    H233111   4.613   1.980  13.437 -0.2100  0.3091 -0.6157
 3874TIP3   OH233112   5.224   2.586  16.951  0.0528  0.2420  0.4038
 3874TIP3    H133113   5.252   2.495  16.949 -0.5746  0.0386  0.6367
 3874TIP3    H233114   5.155   2.592  16.885 -0.7803  0.2439  1.2566
 3875TIP3   OH233115   0.233   5.930  15.774 -0.7850  0.2092  0.0003
 3875TIP3    H133116   0.272   5.906  15.858 -1.1583 -2.0038 -0.4064
 3875TIP3    H233117   0.252   5.856  15.716 -1.9024  0.9790 -1.4298
 3876TIP3   OH233118   3.604   2.390  13.083 -0.3969 -0.2869 -0.5642
 3876TIP3    H133119   3.534   2.421  13.025 -1.0688 -0.5739  0.0795
 3876TIP3    H233120   3.628   2.304  13.047  0.9529  0.5960 -1.9031
 3877TIP3   OH233121   2.620   3.066  13.882  0.0481 -0.2428 -0.1328
 3877TIP3    H133122   2.659   3.039  13.799 -0.7957  0.2959 -0.7158
 3877TIP3    H233123   2.574   2.988  13.913 -0.5564 -0.1326 -0.7291
 3878TIP3   OH233124   3.730   5.653  11.338  0.0147 -0.5482 -0.0004
 3878TIP3    H133125   3.745   5.691  11.425  1.3161  0.8678 -0.8136
 3878TIP3    H233126   3.817   5.627  11.308 -0.1319  0.7520 -1.6589
 3879TIP3   OH233127   4.049   0.090   0.028  0.1594 -0.5194 -0.2471
 3879TIP3    H133128   4.034   0.170  -0.022 -1.6327 -0.1774  0.7740
 3879TIP3    H233129   3.966   0.073   0.072  0.5302 -2.8761 -0.3199
 3880TIP3   OH233130   4.850   4.302   2.325 -0.0389  0.3467  0.2687
 3880TIP3    H133131   4.787   4.300   2.397  0.1208  2.0752  0.5001
 3880TIP3    H233132   4.929   4.339   2.364  0.1990  0.8615 -0.6921
 3881TIP3   OH233133   5.639   2.505  13.159 -0.6612  0.0160 -0.0851
 3881TIP3    H133134   5.590   2.582  13.130  0.1133  0.3389 -0.5553
 3881TIP3    H233135   5.621   2.439  13.091  0.8057  0.6362 -1.1265
 3882TIP3   OH233136   6.289   0.891   6.570  0.3335  0.0278  0.0845
 3882TIP3    H133137   6.363   0.933   6.526  1.1023 -1.8068 -0.4700
 3882TIP3    H233138   6.281   0.937   6.653  0.8474  1.5278 -0.6544
 3883TIP3   OH233139   4.703   6.391   4.959 -0.2792 -0.4701 -0.6178
 3883TIP3    H133140   4.694   6.410   4.866 -0.2393  0.4391 -0.4434
 3883TIP3    H233141   4.760   6.460   4.993 -1.3476 -0.0105  0.3255
 3884TIP3   OH233142   0.342   6.401   2.016  0.3839 -0.4143  0.1621
 3884TIP3    H133143   0.363   6.423   2.107  2.9615 -1.1690 -0.1664
 3884TIP3    H233144   0.271   6.337   2.023  0.1044  0.0213  1.6010
 3885TIP3   OH233145   1.735   2.744  15.644 -0.0437  0.8053 -0.2729
 3885TIP3    H133146   1.668   2.745  15.712  0.5412  1.6356  0.3117
 3885TIP3    H233147   1.715   2.820  15.589  0.8430  1.5216  0.3572
 3886TIP3   OH233148   5.584   2.449   0.838 -0.1869  0.3938  0.9782
 3886TIP3    H133149   5.591   2.545   0.835  0.0032  0.3698 -1.7398
 3886TIP3    H233150   5.614   2.420   0.752 -1.1962 -2.0694  1.3744
 3887TIP3   OH233151   1.006   6.254   4.395 -0.3985 -0.0832  0.2279
 3887TIP3    H133152   1.051   6.198   4.331  0.9201  0.3951  0.7048
 3887TIP3    H233153   0.947   6.308   4.342  0.2909 -0.0620 -0.5357
 3888TIP3   OH233154   3.734   0.738   1.659 -0.0824 -0.9962 -0.3240
 3888TIP3    H133155   3.682   0.659   1.675 -2.4723  0.5098 -0.1525
 3888TIP3    H233156   3.807   0.708   1.604  1.4205 -4.0235  2.9631
 3889TIP3   OH233157   3.515   6.370  14.493 -0.5445  0.2670 -0.0491
 3889TIP3    H133158   3.583   6.332  14.548 -1.6122 -0.6486  0.6761
 3889TIP3    H233159   3.509   6.311  14.418  1.2615  1.7839 -1.4806
 3890TIP3   OH233160   0.222   2.460   4.271 -0.4864  0.3006 -0.5017
 3890TIP3    H133161   0.278   2.424   4.340  1.3994  1.7634 -1.1648
 3890TIP3    H233162   0.187   2.541   4.307 -0.5544  0.4036 -0.7921
 3891TIP3   OH233163   2.020   4.790   1.993 -0.0178  0.3021 -0.1011
 3891TIP3    H133164   1.951   4.834   2.043  0.9465  2.0306 -0.1946
 3891TIP3    H233165   1.983   4.777   1.906 -0.4843  0.5071  0.0644
 3892TIP3   OH233166   1.934   6.624   0.780  0.4297  0.0569  0.8923
 3892TIP3    H133167   1.964   6.692   0.720  0.4466 -0.5457  0.2062
 3892TIP3    H233168   1.941   6.543   0.730  0.2270 -0.4295  1.6346
 3893TIP3   OH233169   5.632   4.491  14.980  0.0681  0.5963  0.4964
 3893TIP3    H133170   5.591   4.461  15.061  1.3051  0.3125  1.0367
 3893TIP3    H233171   5.667   4.411  14.941  1.3685  1.0126  0.7811
 3894TIP3   OH233172   3.607   6.521   5.273  0.2450 -0.3415 -1.0336
 3894TIP3    H133173   3.585   6.523   5.180 -1.7949  0.3328 -0.5801
 3894TIP3    H233174   3.556   6.449   5.309 -1.0684  1.0426  0.0052
 3895TIP3   OH233175   5.354   3.105   1.393 -0.1915  0.3879  0.0411
 3895TIP3    H133176   5.322   3.087   1.305  0.4704 -0.0616 -0.1085
 3895TIP3    H233177   5.343   3.023   1.441 -1.7226  0.9639  0.7548
 3896TIP3   OH233178   3.827   2.569  15.103 -0.0206  0.0100 -0.2632
 3896TIP3    H133179   3.903   2.577  15.161  0.3446 -1.1441 -0.5599
 3896TIP3    H233180   3.756   2.541  15.160 -0.2491  1.0880  0.0147
 3897TIP3   OH233181   2.097   3.665   1.822  1.0070  0.5459  0.1469
 3897TIP3    H133182   2.048   3.693   1.745 -0.7054 -0.8443  0.6811
 3897TIP3    H233183   2.179   3.631   1.787  0.9868  1.5160 -0.8946
 3898TIP3   OH233184   4.466   6.377   0.362 -0.5222  0.3414  0.4580
 3898TIP3    H133185   4.507   6.349   0.280  0.6971  2.6003  0.2079
 3898TIP3    H233186   4.373   6.358   0.350 -0.3010  0.2106 -1.2747
 3899TIP3   OH233187   6.178   0.679  12.658 -0.2421  0.4079  0.2464
 3899TIP3    H133188   6.127   0.628  12.596 -0.3630  1.7882 -0.8305
 3899TIP3    H233189   6.264   0.689  12.617 -0.3890  1.5167  0.1698
 3900TIP3   OH233190   3.856   3.427   1.609  0.0159  0.1772 -0.0612
 3900TIP3    H133191   3.940   3.436   1.654 -1.0399  0.6793  1.9479
 3900TIP3    H233192   3.859   3.492   1.539  1.2546  0.2610  0.0468
 3901TIP3   OH233193   0.895   3.380   2.314  0.5181  0.5100 -0.6828
 3901TIP3    H133194   0.917   3.335   2.396 -3.1629 -0.1078  0.1555
 3901TIP3    H233195   0.846   3.457   2.341 -0.6137  0.3983 -2.2544
 3902TIP3   OH233196   4.009   0.151   1.142  0.1807  0.1012  0.4463
 3902TIP3    H133197   4.102   0.140   1.119 -0.5951 -2.5855 -2.0554
 3902TIP3    H233198   3.970   0.189   1.063 -1.4155 -2.4595 -0.0844
 3903TIP3   OH233199   5.142   0.290  16.849 -0.1125  0.0058 -0.5481
 3903TIP3    H133200   5.077   0.221  16.831 -0.4794 -0.1473  1.2007
 3903TIP3    H233201   5.151   0.290  16.944  1.1912  1.2101 -0.6427
 3904TIP3   OH233202   0.870   3.741   2.165  0.2933  0.5096  0.1411
 3904TIP3    H133203   0.841   3.696   2.244  0.4686 -1.0238 -0.6422
 3904TIP3    H233204   0.796   3.796   2.140 -1.1931 -1.7196 -0.6278
 3905TIP3   OH233205   1.758   3.566  16.724  0.0455  0.1791  0.3788
 3905TIP3    H133206   1.669   3.535  16.710 -0.7239  2.6294 -0.6570
 3905TIP3    H233207   1.790   3.586  16.636  1.9287 -1.2850  0.6608
 3906TIP3   OH233208   1.083   5.295   1.659 -0.5043  0.3457  0.4002
 3906TIP3    H133209   1.023   5.239   1.610 -2.9461  2.5243  0.6908
 3906TIP3    H233210   1.140   5.334   1.593  0.5153 -1.5397  0.0886
 3907TIP3   OH233211   2.696   3.756  14.490  0.6366 -0.1987  0.4425
 3907TIP3    H133212   2.615   3.708  14.509  0.0723  0.5867  0.1066
 3907TIP3    H233213   2.754   3.691  14.450 -0.2196 -0.5441 -0.2854
 3908TIP3   OH233214   2.941   1.324  11.757  0.3034  0.0404  0.3001
 3908TIP3    H133215   3.003   1.301  11.687  1.9818  0.6159  1.5411
 3908TIP3    H233216   2.932   1.243  11.808  1.1945  0.3293  0.9460
 3909TIP3   OH233217   2.044   6.112   0.339  0.2541 -0.4538  0.0981
 3909TIP3    H133218   2.026   6.195   0.294  1.6353  0.3192  0.9046
 3909TIP3    H233219   2.121   6.077   0.294  1.4786  0.1912  1.6238
 3910TIP3   OH233220   5.040   5.701  12.496 -0.1695  0.6315 -0.1679
 3910TIP3    H133221   5.027   5.610  12.521 -1.1789  0.5275 -0.9911
 3910TIP3    H233222   5.133   5.707  12.474  0.1317  0.0689  0.8673
 3911TIP3   OH233223   1.885   4.567   3.772 -0.6051 -0.5985 -0.2510
 3911TIP3    H133224   1.885   4.617   3.690  1.2415 -1.7176 -1.0029
 3911TIP3    H233225   1.907   4.632   3.839  0.7282 -0.1652 -1.0714
 3912TIP3   OH233226   2.711   4.422  14.831  0.3646  0.1092 -0.1398
 3912TIP3    H133227   2.758   4.483  14.773 -0.5961  0.4321 -0.6010
 3912TIP3    H233228   2.623   4.458  14.837 -0.5019 -1.7315 -1.1545
 3913TIP3   OH233229   0.753   2.995   3.622  0.3918  0.0184 -0.1231
 3913TIP3    H133230   0.794   2.924   3.572 -0.6895 -1.9655  1.6721
 3913TIP3    H233231   0.666   3.003   3.584  0.6975  0.8350 -0.6920
 3914TIP3   OH233232   1.335   5.399   0.699  0.1248  0.0524  0.1932
 3914TIP3    H133233   1.321   5.309   0.669 -0.4026 -0.0943  0.8425
 3914TIP3    H233234   1.347   5.391   0.794  2.1106  0.4717  0.0085
 3915TIP3   OH233235   2.421   3.947  11.067  0.3987 -0.3939 -0.2718
 3915TIP3    H133236   2.388   3.875  11.120  2.0664 -2.5709 -1.9849
 3915TIP3    H233237   2.367   3.946  10.987 -0.7794  1.5474  0.4188
 3916TIP3   OH233238   5.781   3.058   3.951  0.5159  0.4811  0.3697
 3916TIP3    H133239   5.764   3.150   3.972 -0.6129  0.8349 -1.7799
 3916TIP3    H233240   5.838   3.062   3.874 -1.1677 -0.5395 -1.0015
 3917TIP3   OH233241   0.411   3.379   4.418  0.1207 -0.0913 -0.0174
 3917TIP3    H133242   0.447   3.408   4.501 -2.5538  0.4551  1.0679
 3917TIP3    H233243   0.322   3.415   4.416 -0.5420 -1.5911 -2.2917
 3918TIP3   OH233244   5.189   5.522   1.050  0.1329  0.3433  0.3268
 3918TIP3    H133245   5.127   5.449   1.059 -0.0132  0.1897 -1.6388
 3918TIP3    H233246   5.232   5.507   0.966  2.6183  0.6541  1.4414
 3919TIP3   OH233247   4.895   3.137   2.871  0.4130 -0.4083  0.3535
 3919TIP3    H133248   4.830   3.182   2.817  3.2925  2.0140 -1.4365
 3919TIP3    H233249   4.921   3.202   2.936  1.6662 -0.9657  0.4444
 3920TIP3   OH233250   3.097   4.858   0.543 -0.1911  0.0478 -0.0958
 3920TIP3    H133251   3.177   4.906   0.565 -0.7748  0.5627  0.9941
 3920TIP3    H233252   3.106   4.774   0.588 -0.3281  0.1688  0.1605
 3921TIP3   OH233253   1.085   5.875  10.369 -0.3819 -0.1989 -0.1283
 3921TIP3    H133254   1.119   5.955  10.329 -1.2299 -0.9834 -2.6439
 3921TIP3    H233255   0.990   5.888  10.371 -0.5459 -1.1856 -0.7538
 3922TIP3   OH233256   0.704   6.128   4.264 -0.0111  0.2877  0.0468
 3922TIP3    H133257   0.675   6.090   4.347  0.8574  0.9222  0.6611
 3922TIP3    H233258   0.775   6.072   4.236 -0.3156  0.0648 -0.2799
 3923TIP3   OH233259   4.929   1.010   2.529 -0.3199  0.3648  0.4218
 3923TIP3    H133260   5.018   1.038   2.550  0.3062 -0.9471 -0.3071
 3923TIP3    H233261   4.920   1.028   2.435  0.0727 -1.5989 -0.0500
 3924TIP3   OH233262   5.345   0.577  11.822  0.1690  0.1430 -0.3654
 3924TIP3    H133263   5.379   0.607  11.738 -0.0439  0.2405 -0.4182
 3924TIP3    H233264   5.408   0.512  11.852 -0.1537 -0.4725 -0.9761
 3925TIP3   OH233265   0.471   4.582   3.334 -0.1815 -0.2206 -0.0082
 3925TIP3    H133266   0.387   4.551   3.301 -1.8342  3.2125  0.4960
 3925TIP3    H233267   0.512   4.624   3.259 -0.6706  1.3003  0.5308
 3926TIP3   OH233268   0.626   5.492  14.856  0.8595 -0.2140 -0.2888
 3926TIP3    H133269   0.627   5.554  14.928  2.3628  0.6298 -0.9863
 3926TIP3    H233270   0.693   5.427  14.880 -0.5321 -1.4751  0.3223
 3927TIP3   OH233271   4.399   0.547   3.602 -0.1994  0.3648 -0.3889
 3927TIP3    H133272   4.424   0.538   3.510  0.3097  0.4673 -0.2597
 3927TIP3    H233273   4.304   0.535   3.602  0.1808 -4.2096 -0.3490
 3928TIP3   OH233274   2.566   2.510   4.416  0.3186  0.3149  0.1701
 3928TIP3    H133275   2.589   2.420   4.396 -1.6642 -0.8615  2.6732
 3928TIP3    H233276   2.496   2.532   4.354  0.5420 -0.0073 -0.1931
 3929TIP3   OH233277   2.780   1.200  10.927  0.1260 -0.2770 -0.4008
 3929TIP3    H133278   2.865   1.244  10.932 -1.1071  2.3590 -0.7835
 3929TIP3    H233279   2.797   1.118  10.881  2.7984 -0.9174  1.5171
 3930TIP3   OH233280   1.360   2.128   6.400  0.2814 -0.0982 -0.2458
 3930TIP3    H133281   1.265   2.132   6.389  0.2126 -1.9090 -0.6972
 3930TIP3    H233282   1.394   2.175   6.324 -0.2295  1.0466  0.2088
 3931TIP3   OH233283   3.635   2.084   0.248  0.1737  0.2803 -0.0511
 3931TIP3    H133284   3.678   2.124   0.324  0.7934 -0.7915  0.1668
 3931TIP3    H233285   3.593   2.006   0.283  0.1640 -0.0319 -0.7563
 3932TIP3   OH233286   3.280   3.645  16.486  0.0672 -0.2847  0.1534
 3932TIP3    H133287   3.344   3.712  16.461 -1.6075  0.9969 -0.9871
 3932TIP3    H233288   3.290   3.577  16.419 -0.3844  0.3763 -0.6180
 3933TIP3   OH233289   0.979   2.809   1.026  0.1029  0.2447 -0.2613
 3933TIP3    H133290   1.046   2.743   1.044  0.2615  0.7359  1.0893
 3933TIP3    H233291   0.951   2.838   1.112  0.3474  2.2565 -0.8202
 3934TIP3   OH233292   6.514   2.138   5.471 -0.0057 -1.0034  0.4691
 3934TIP3    H133293   6.524   2.047   5.444  0.8211 -0.9508  0.5854
 3934TIP3    H233294   6.532   2.137   5.565  0.7747 -0.6052  0.3338
 3935TIP3   OH233295   5.437   6.470  14.906 -0.3315 -0.2867 -0.6235
 3935TIP3    H133296   5.498   6.402  14.934  0.6637  1.1196  0.8064
 3935TIP3    H233297   5.366   6.465  14.970  0.2992  0.7175  0.1902
 3936TIP3   OH233298   1.600   3.817   3.849  0.9280  0.3849  0.3539
 3936TIP3    H133299   1.513   3.851   3.870  1.4527  0.1418  3.4281
 3936TIP3    H233300   1.655   3.894   3.841  0.2430  0.7051 -3.6762
 3937TIP3   OH233301   2.936   2.917  14.290 -0.5366 -0.4851 -0.4120
 3937TIP3    H133302   2.985   2.841  14.259 -1.8064 -1.1181 -0.9479
 3937TIP3    H233303   2.901   2.957  14.211  0.9098  1.2690 -0.2239
 3938TIP3   OH233304   0.724   1.077   1.662  0.4217 -0.2972  0.4372
 3938TIP3    H133305   0.644   1.103   1.707  0.9306  1.3234  0.4552
 3938TIP3    H233306   0.795   1.102   1.721  1.0098 -0.1487 -0.3126
 3939TIP3   OH233307   2.240   4.793  16.941 -0.0946 -0.4328  0.7128
 3939TIP3    H133308   2.181   4.772  16.869 -0.6884  1.8188  0.4635
 3939TIP3    H233309   2.186   4.845  17.001  1.2156  0.3919  1.2237
 3940TIP3   OH233310   1.503   1.606  14.225 -0.2943  0.0802 -0.1917
 3940TIP3    H133311   1.478   1.668  14.157 -1.2634 -0.2196 -0.1295
 3940TIP3    H233312   1.480   1.649  14.307  0.5825  0.3131 -0.0597
 3941TIP3   OH233313   3.628   0.528  16.845  0.3601  0.3628 -0.0807
 3941TIP3    H133314   3.629   0.444  16.799 -0.9694 -0.1462  0.7373
 3941TIP3    H233315   3.630   0.594  16.776 -4.9354 -0.3217 -1.3125
 3942TIP3   OH233316   5.675   2.758  16.100 -0.0474 -0.3415 -0.2807
 3942TIP3    H133317   5.599   2.814  16.119  1.4660  1.8405 -0.3392
 3942TIP3    H233318   5.671   2.744  16.005  0.1498  0.6187 -0.4444
 3943TIP3   OH233319   2.076   3.633  14.135  0.1670  0.0796  0.4379
 3943TIP3    H133320   2.130   3.712  14.143 -1.3989  1.2395 -0.0171
 3943TIP3    H233321   2.057   3.627  14.041  0.4405 -0.9740  0.4375
 3944TIP3   OH233322   4.015   3.608   6.971 -0.0988 -0.5933  0.2536
 3944TIP3    H133323   4.090   3.563   6.933 -0.7704 -2.4743  1.0343
 3944TIP3    H233324   3.965   3.539   7.016 -2.6637  0.4539 -0.7759
 3945TIP3   OH233325   6.188   0.963  12.477  0.0808  1.0579 -0.0070
 3945TIP3    H133326   6.170   0.877  12.516 -0.3374  0.9436 -0.4399
 3945TIP3    H233327   6.270   0.990  12.517 -0.3175  0.9356  0.9395
 3946TIP3   OH233328   2.602   5.474  16.243  0.0064  0.4375  0.2168
 3946TIP3    H133329   2.555   5.552  16.214  1.0824  1.5798  1.3850
 3946TIP3    H233330   2.668   5.459  16.175  1.9092  2.5463  1.4491
 3947TIP3   OH233331   5.122   1.276  10.546  0.1571 -0.2661  0.1026
 3947TIP3    H133332   5.152   1.356  10.502  1.1318 -0.9903 -0.5944
 3947TIP3    H233333   5.027   1.278  10.537  0.2445  0.3014 -0.8170
 3948TIP3   OH233334   1.132   1.770   1.197 -0.5057 -0.4382  0.8728
 3948TIP3    H133335   1.215   1.800   1.161 -0.8010 -1.0160 -0.3298
 3948TIP3    H233336   1.151   1.751   1.289  0.5139  0.0964  0.7828
 3949TIP3   OH233337   3.141   3.081  12.565  0.2856 -0.2916 -0.3412
 3949TIP3    H133338   3.182   2.998  12.542  0.0793 -0.2111 -1.0219
 3949TIP3    H233339   3.113   3.118  12.481  0.5888  0.5802 -0.0695
 3950TIP3   OH233340   5.330   2.370  11.055 -0.4196  0.2405  0.3730
 3950TIP3    H133341   5.399   2.421  11.097 -0.2811 -0.0901  0.5453
 3950TIP3    H233342   5.250   2.421  11.070 -0.5696 -0.4263  2.0309
 3951TIP3   OH233343   2.067   6.464   3.565  0.0478  0.2292  0.5609
 3951TIP3    H133344   2.092   6.555   3.581 -0.8835  0.2885  1.8635
 3951TIP3    H233345   2.143   6.426   3.521  1.0040  1.2776  1.2326
 3952TIP3   OH233346   1.803   3.349  13.702 -0.2698  0.2106 -0.0026
 3952TIP3    H133347   1.818   3.295  13.779  3.2936 -0.6919 -1.1521
 3952TIP3    H233348   1.786   3.286  13.632  1.3304  0.6540 -0.8427
 3953TIP3   OH233349   2.413   1.914  11.410  0.6029 -0.4743 -0.4681
 3953TIP3    H133350   2.321   1.938  11.413  0.9140  0.7019  1.2434
 3953TIP3    H233351   2.444   1.947  11.326 -0.5889 -1.1871 -1.2109
 3954TIP3   OH233352   3.969   5.747  14.467  0.0720 -0.0689 -0.1176
 3954TIP3    H133353   4.053   5.761  14.422  0.9252  0.6360  1.5886
 3954TIP3    H233354   3.912   5.711  14.400  1.3344  0.7292 -1.7065
 3955TIP3   OH233355   6.730   0.422  13.189  0.0236  0.3142  0.1906
 3955TIP3    H133356   6.796   0.490  13.180 -0.2372  0.3351 -2.9359
 3955TIP3    H233357   6.674   0.433  13.111 -1.3272 -2.1088  0.7073
 3956TIP3   OH233358   6.293   4.688   2.089  0.1043  0.0928  0.0981
 3956TIP3    H133359   6.309   4.641   2.008 -2.9364 -1.5949  0.3097
 3956TIP3    H233360   6.312   4.625   2.158  0.7429  0.8509  0.6393
 3957TIP3   OH233361   0.558   5.320  15.840 -0.0660 -0.1299 -0.2398
 3957TIP3    H133362   0.544   5.339  15.748  1.6391  1.3435 -0.2410
 3957TIP3    H233363   0.513   5.390  15.887 -0.4025 -0.5229  0.0335
 3958TIP3   OH233364   4.260   6.626  14.388 -0.4258  0.4281  0.1429
 3958TIP3    H133365   4.279   6.623  14.294  0.1892  1.0812  0.2360
 3958TIP3    H233366   4.234   6.536  14.410  1.1823 -0.1963 -0.2965
 3959TIP3   OH233367   3.085   1.559   5.011  0.1502 -0.6029  0.5661
 3959TIP3    H133368   3.037   1.514   4.942 -0.4834 -0.6249  1.0076
 3959TIP3    H233369   3.102   1.492   5.077 -0.5687 -0.2665  1.1082
 3960TIP3   OH233370   5.019   2.158   5.004 -0.0793  0.0447  0.1576
 3960TIP3    H133371   4.930   2.144   5.037  0.0607  1.8941  1.4955
 3960TIP3    H233372   5.074   2.104   5.060 -0.2356 -0.1073  0.1656
 3961TIP3   OH233373   6.031   6.779   2.950 -0.1952 -0.7262 -0.3253
 3961TIP3    H133374   6.040   6.766   3.044  0.3332  0.7911 -0.1296
 3961TIP3    H233375   6.116   6.753   2.914 -0.3938 -1.2972 -0.3854
 3962TIP3   OH233376   1.840   4.775  11.646  0.5211 -0.0983  0.0722
 3962TIP3    H133377   1.777   4.716  11.603  1.1738 -0.8148  0.0808
 3962TIP3    H233378   1.858   4.842  11.580 -0.2008  0.0808  0.0460
 3963TIP3   OH233379   4.944   4.119  14.649  0.1706  0.2756 -0.2549
 3963TIP3    H133380   4.910   4.140  14.562  2.0955 -3.1629 -2.0647
 3963TIP3    H233381   5.009   4.187  14.667  0.1789  0.7233 -1.8426
 3964TIP3   OH233382   1.637   2.867   5.796  0.3150 -0.6717 -0.3160
 3964TIP3    H133383   1.599   2.899   5.714 -0.6241  1.3779  0.8408
 3964TIP3    H233384   1.620   2.773   5.796  0.2581 -0.7017 -2.3992
 3965TIP3   OH233385   6.429   5.796  15.066  0.2536 -0.0751 -0.1464
 3965TIP3    H133386   6.465   5.847  15.138  0.9979 -1.6375  0.6387
 3965TIP3    H233387   6.380   5.859  15.013  0.3159  1.2333  1.3095
 3966TIP3   OH233388   0.940   3.651  11.450  0.7272  0.1049  0.3889
 3966TIP3    H133389   0.916   3.584  11.514  1.3886 -1.0023 -0.4672
 3966TIP3    H233390   0.995   3.604  11.387 -0.1669  1.0657 -1.1645
 3967TIP3   OH233391   3.994   4.492  16.097 -0.0595 -0.5481  0.2022
 3967TIP3    H133392   3.917   4.515  16.044  0.4693 -0.1640 -0.4064
 3967TIP3    H233393   4.064   4.480  16.033  0.0842 -2.2386  0.6260
 3968TIP3   OH233394   1.590   6.286  15.508 -0.7058  0.0489  0.3098
 3968TIP3    H133395   1.529   6.336  15.454 -0.7995 -1.2953 -0.9018
 3968TIP3    H233396   1.575   6.195  15.483  1.1336 -0.3994  0.6736
 3969TIP3   OH233397   3.806   3.910   2.606  0.1008 -0.5161 -0.5455
 3969TIP3    H133398   3.710   3.914   2.611  0.1750 -0.1417  2.1021
 3969TIP3    H233399   3.832   3.869   2.689  2.3492  2.2136  0.2324
 3970TIP3   OH233400   3.073   2.125  12.157  0.1122  0.8670  0.0626
 3970TIP3    H133401   2.980   2.121  12.134  0.4152  0.6934 -1.2161
 3970TIP3    H233402   3.116   2.163  12.080  1.2547 -0.2274  0.1218
 3971TIP3   OH233403   6.422   5.131  12.103 -0.1200 -0.1794  0.1262
 3971TIP3    H133404   6.454   5.062  12.044  0.2046 -0.2664  0.4017
 3971TIP3    H233405   6.502   5.169  12.141 -0.2956  0.3392 -0.0088
 3972TIP3   OH233406   6.514   0.338  16.298 -0.0114 -0.4008  0.3568
 3972TIP3    H133407   6.518   0.305  16.208 -1.6337 -0.8660  0.4176
 3972TIP3    H233408   6.484   0.263  16.350  0.3815  0.0108  1.2049
 3973TIP3   OH233409   5.306   3.692   3.442  0.7924 -0.0192 -0.1962
 3973TIP3    H133410   5.253   3.771   3.443  0.4219 -0.2581  0.9678
 3973TIP3    H233411   5.321   3.673   3.349  0.4721  1.1279 -0.4869
 3974TIP3   OH233412   3.773   4.572   5.271  0.5874  0.1341  0.6475
 3974TIP3    H133413   3.700   4.625   5.303 -1.1921 -1.5636 -0.3828
 3974TIP3    H233414   3.754   4.559   5.178  2.3752 -0.1510  0.2838
 3975TIP3   OH233415   2.589   6.496   0.994  0.1370  0.4687 -0.0035
 3975TIP3    H133416   2.666   6.529   1.039 -0.5762  0.8156  0.9798
 3975TIP3    H233417   2.611   6.503   0.901  0.8434  1.6359  0.2344
 3976TIP3   OH233418   1.269   5.171  14.266  0.0468 -0.3833  0.1871
 3976TIP3    H133419   1.202   5.158  14.199 -0.8168  0.5433  0.8414
 3976TIP3    H233420   1.334   5.102  14.249 -2.2753 -2.9395  1.0808
 3977TIP3   OH233421   6.821   0.352  14.883  0.0998  0.1650 -0.1304
 3977TIP3    H133422   6.815   0.437  14.839 -1.2425  0.3688  0.4213
 3977TIP3    H233423   6.776   0.291  14.824 -0.5514  0.1888  0.3384
 3978TIP3   OH233424   3.390   3.107   1.874 -0.6392  0.1123  0.0812
 3978TIP3    H133425   3.315   3.068   1.920  0.1500 -0.4314  0.9425
 3978TIP3    H233426   3.454   3.036   1.868  0.0077  0.7080 -0.1908
 3979TIP3   OH233427   0.798   1.716  13.134 -0.0127  0.5595 -0.0322
 3979TIP3    H133428   0.798   1.702  13.229 -1.2876  0.7882  0.0310
 3979TIP3    H233429   0.842   1.639  13.098 -1.6311 -0.7519  0.6360
 3980TIP3   OH233430   1.607   5.536  11.693  0.8722 -0.1950 -0.2316
 3980TIP3    H133431   1.604   5.554  11.787  0.2197  0.4921 -0.3708
 3980TIP3    H233432   1.674   5.469  11.683  1.9386  0.7158  0.5616
 3981TIP3   OH233433   6.643   4.704  12.200 -0.1660  0.2161  0.1443
 3981TIP3    H133434   6.642   4.715  12.295  0.7079 -2.4964  0.5610
 3981TIP3    H233435   6.727   4.739  12.172 -0.0274  0.1667  0.4970
 3982TIP3   OH233436   4.888   1.467   1.428  0.2202  0.3141 -0.7899
 3982TIP3    H133437   4.939   1.522   1.487 -1.6329  2.2628 -0.8981
 3982TIP3    H233438   4.951   1.403   1.395  1.4409 -0.8146  3.0719
 3983TIP3   OH233439   6.494   5.383  10.533 -0.4507  0.2544 -0.2469
 3983TIP3    H133440   6.465   5.453  10.591  2.0751  0.9283  0.3559
 3983TIP3    H233441   6.535   5.430  10.460 -0.8929 -0.6065 -1.0597
 3984TIP3   OH233442   5.291   3.832   5.989  0.3416  0.0131  0.3893
 3984TIP3    H133443   5.216   3.800   6.038 -0.5636 -0.8162 -1.4278
 3984TIP3    H233444   5.367   3.794   6.033 -0.4675 -1.2471  0.7521
 3985TIP3   OH233445   2.188   3.780   2.536 -0.1735  0.6920 -0.1817
 3985TIP3    H133446   2.108   3.781   2.483 -2.0198  4.1065  2.2232
 3985TIP3    H233447   2.184   3.698   2.585 -0.4394 -0.6851 -2.3919
 3986TIP3   OH233448   2.139   6.238   0.712 -0.5582 -0.2634 -0.2683
 3986TIP3    H133449   2.091   6.159   0.687  1.0408 -0.9141 -1.4123
 3986TIP3    H233450   2.204   6.251   0.642  0.9457  0.5680  1.2058
 3987TIP3   OH233451   1.454   2.376   1.692  0.1948 -0.3080  0.3114
 3987TIP3    H133452   1.520   2.307   1.693  2.4661  1.6003 -1.9285
 3987TIP3    H233453   1.388   2.345   1.629  0.5133 -0.9728  0.2958
 3988TIP3   OH233454   2.419   6.158  17.082  0.6657 -0.4688 -0.0548
 3988TIP3    H133455   2.507   6.194  17.094  0.6896  0.0819 -1.7327
 3988TIP3    H233456   2.403   6.163  16.988 -1.1759 -0.5544  0.2219
 3989TIP3   OH233457   5.756   2.710  14.892 -0.4697 -0.4291  0.0463
 3989TIP3    H133458   5.808   2.670  14.822 -0.3038  0.3022 -0.2629
 3989TIP3    H233459   5.680   2.653  14.902 -0.3228 -0.7252 -0.4965
 3990TIP3   OH233460   6.614   2.833   1.042  0.0618  1.0798 -0.8725
 3990TIP3    H133461   6.686   2.882   1.080  1.0980 -1.2860  0.4206
 3990TIP3    H233462   6.565   2.800   1.117 -0.4439 -0.0567 -1.6641
 3991TIP3   OH233463   3.772   6.070  15.808  0.4702  0.0851  0.5030
 3991TIP3    H133464   3.693   6.122  15.790 -0.3353 -1.3304 -0.2773
 3991TIP3    H233465   3.840   6.135  15.823 -1.0273  1.3903  2.2430
 3992TIP3   OH233466   2.005   2.433   5.078 -0.2904  0.3345  0.4946
 3992TIP3    H133467   2.031   2.477   4.997  0.8811  1.7004  1.5656
 3992TIP3    H233468   1.910   2.424   5.071 -0.1137 -0.4463 -1.4348
 3993TIP3   OH233469   5.040   1.562   1.630  0.5677  0.6986  0.5173
 3993TIP3    H133470   5.083   1.637   1.670  1.1474  0.1862  0.8611
 3993TIP3    H233471   5.095   1.487   1.653  0.0006  0.1670  0.1725
 3994TIP3   OH233472   2.765   5.073   4.026  0.5411  0.3227 -0.2581
 3994TIP3    H133473   2.830   5.143   4.035  0.5552  0.4126 -1.0027
 3994TIP3    H233474   2.681   5.115   4.042  0.6456  0.2200  0.6432
 3995TIP3   OH233475   1.801   3.502  15.863 -0.1143 -0.5241  0.3880
 3995TIP3    H133476   1.822   3.462  15.779 -1.3682  0.9316 -0.6608
 3995TIP3    H233477   1.877   3.557  15.883  0.3315 -1.1342  0.3919
 3996TIP3   OH233478   3.760   1.401   3.947  0.4736 -0.1741 -0.1744
 3996TIP3    H133479   3.811   1.478   3.970 -0.7105  0.5215  0.1721
 3996TIP3    H233480   3.809   1.327   3.984  1.4511  0.4319 -0.2441
 3997TIP3   OH233481   2.278   3.028   4.464 -0.1144  0.7913  0.4820
 3997TIP3    H133482   2.264   3.110   4.416  3.0743  1.1908 -0.0480
 3997TIP3    H233483   2.326   3.054   4.542  0.1140 -0.4660  0.7786
 3998TIP3   OH233484   1.235   1.102  15.170  0.1164 -0.0456  0.5928
 3998TIP3    H133485   1.329   1.085  15.171  0.2283  0.5650  0.9980
 3998TIP3    H233486   1.221   1.154  15.091  0.0714 -0.3462  0.3975
 3999TIP3   OH233487   6.203   2.584   4.219  0.0942 -0.3811 -0.0270
 3999TIP3    H133488   6.110   2.585   4.198 -0.4257  0.5349  2.0795
 3999TIP3    H233489   6.234   2.499   4.188 -1.4609 -0.7467 -0.6490
 4000TIP3   OH233490   2.077   4.073   2.311  0.5314  0.4036  0.5336
 4000TIP3    H133491   1.990   4.040   2.289  0.3935 -0.5288  2.3081
 4000TIP3    H233492   2.104   4.123   2.234 -2.0466  1.7193  0.3645
 4001TIP3   OH233493   6.648   4.522   4.360  0.3997  0.1109  0.4691
 4001TIP3    H133494   6.583   4.498   4.426 -0.5450 -0.2216 -0.5458
 4001TIP3    H233495   6.633   4.462   4.287  0.3907  1.4176 -0.6662
 4002TIP3   OH233496   6.779   4.027   3.232 -0.4238  0.1301 -0.4382
 4002TIP3    H133497   6.871   4.020   3.207  0.1206 -1.4566  1.7092
 4002TIP3    H233498   6.781   4.059   3.322 -1.9397 -0.2635 -0.2387
 4003TIP3   OH233499   5.579   2.854  11.489 -0.0627 -0.4738 -0.0686
 4003TIP3    H133500   5.570   2.807  11.406  1.5978 -0.4767 -0.2887
 4003TIP3    H233501   5.598   2.944  11.464  2.0386 -0.7833  0.2274
 4004TIP3   OH233502   0.314   5.991   1.826 -0.2054  0.3339  0.4254
 4004TIP3    H133503   0.344   6.005   1.736 -0.5428 -0.3739  0.1945
 4004TIP3    H233504   0.395   5.975   1.876 -0.1319 -1.3431 -0.1576
 4005TIP3   OH233505   1.003   1.986   0.292  0.0096  0.0938  0.4735
 4005TIP3    H133506   0.989   1.918   0.358 -0.3616 -0.3269 -0.0304
 4005TIP3    H233507   0.995   1.940   0.208  1.3662  0.4437  0.1325
 4006TIP3   OH233508   4.704   4.792  14.969 -0.6166  0.1809  0.2725
 4006TIP3    H133509   4.646   4.753  14.903  0.0396  2.0972 -1.5368
 4006TIP3    H233510   4.671   4.881  14.979 -0.3645  0.0901  2.1921
 4007TIP3   OH233511   3.010   0.815   0.305 -0.1393  0.0737  0.0009
 4007TIP3    H133512   3.099   0.844   0.287  0.3663 -0.9380  0.7883
 4007TIP3    H233513   2.973   0.796   0.219  0.7273 -0.4041 -0.2828
 4008TIP3   OH233514   0.583   0.575  10.580  0.3799 -0.2916  0.9014
 4008TIP3    H133515   0.584   0.522  10.500 -0.4518 -1.8105  1.8388
 4008TIP3    H233516   0.662   0.629  10.574 -0.1048  0.2563 -1.3238
 4009TIP3   OH233517   0.563   2.436   0.489 -0.2464 -0.9742  0.6611
 4009TIP3    H133518   0.532   2.424   0.579 -1.3588  1.1447  0.6382
 4009TIP3    H233519   0.594   2.350   0.462 -1.1057 -1.9566  2.6191
 4010TIP3   OH233520   6.046   4.726   2.880 -0.2331  0.2750  0.1669
 4010TIP3    H133521   6.093   4.806   2.855 -0.3085  0.0342 -0.8018
 4010TIP3    H233522   6.105   4.682   2.941 -0.0317  0.8963  0.4316
 4011TIP3   OH233523   1.030   4.206   1.442  0.3688 -0.5995  0.2933
 4011TIP3    H133524   1.124   4.221   1.431  0.6088 -1.3957  1.0722
 4011TIP3    H233525   1.024   4.118   1.478 -0.7796 -1.1626 -1.1647
 4012TIP3   OH233526   4.119   6.111  16.431 -0.1886  0.1835 -0.0796
 4012TIP3    H133527   4.176   6.116  16.508 -0.4202  0.9406  0.0539
 4012TIP3    H233528   4.091   6.020  16.427  1.6956 -0.4235 -0.6395
 4013TIP3   OH233529   6.727   6.095   5.951  0.5682  0.0275  0.5630
 4013TIP3    H133530   6.703   6.107   5.859  0.9485 -0.3843  0.4040
 4013TIP3    H233531   6.664   6.148   6.000  1.2336  1.3891 -0.0180
 4014TIP3   OH233532   2.810   1.172  14.326 -0.0180 -0.7343 -0.1449
 4014TIP3    H133533   2.753   1.104  14.292 -2.3676  0.9138  0.2742
 4014TIP3    H233534   2.752   1.232  14.373  2.2547  0.3599  1.4682
 4015TIP3   OH233535   4.759   0.229   4.448  0.1084 -0.1841  0.4600
 4015TIP3    H133536   4.686   0.290   4.446  0.0386  0.1945  4.6582
 4015TIP3    H233537   4.727   0.156   4.501  1.6085 -1.8482 -0.8106
 4016TIP3   OH233538   2.519   5.457  11.371  0.4807 -0.3659 -0.7987
 4016TIP3    H133539   2.427   5.435  11.360  0.0658  0.7559  0.1802
 4016TIP3    H233540   2.523   5.552  11.359  1.3327 -0.2601  0.1447
 4017TIP3   OH233541   3.826   4.230  12.187  0.4978  0.2630 -0.0243
 4017TIP3    H133542   3.762   4.298  12.166  0.0690  0.0551  0.5633
 4017TIP3    H233543   3.878   4.268  12.258  0.2767 -0.0009  0.2850
 4018TIP3   OH233544   1.059   0.532   2.317  0.0018  0.9420  0.2515
 4018TIP3    H133545   1.148   0.499   2.321 -0.1044  0.5720 -0.3999
 4018TIP3    H233546   1.055   0.583   2.236  0.2424  2.8093  1.3651
 4019TIP3   OH233547   3.052   5.983  13.262  0.0733  0.0835 -0.0906
 4019TIP3    H133548   3.059   6.038  13.185  1.8131  2.9600  1.9161
 4019TIP3    H233549   3.105   5.906  13.242 -1.5672 -0.5048 -2.6006
 4020TIP3   OH233550   3.236   1.486  14.135  0.3142 -0.1874  0.1476
 4020TIP3    H133551   3.246   1.475  14.040  0.2376 -0.5026  0.1761
 4020TIP3    H233552   3.145   1.461  14.153 -0.3708  2.0382 -0.0055
 4021TIP3   OH233553   0.063   1.151   2.860  0.2566  0.2797 -0.0515
 4021TIP3    H133554  -0.001   1.164   2.790  0.2155  0.6733  0.0596
 4021TIP3    H233555   0.042   1.217   2.926  1.6476  1.3589 -0.6370
 4022TIP3   OH233556   0.886   2.778   3.792 -0.3102  0.6442 -0.0582
 4022TIP3    H133557   0.920   2.707   3.738 -1.9621 -1.5179  1.5431
 4022TIP3    H233558   0.853   2.842   3.729 -0.3837 -0.8281 -1.5952
 4023TIP3   OH233559   5.177   2.161  13.888 -0.1638  0.0512  0.4810
 4023TIP3    H133560   5.215   2.075  13.871 -1.0637 -0.4744  1.0478
 4023TIP3    H233561   5.134   2.151  13.973 -0.0682  1.1339  0.6639
 4024TIP3   OH233562   4.612   3.476   2.643 -0.4355 -0.1956 -0.0668
 4024TIP3    H133563   4.527   3.444   2.615 -0.2376 -0.3302 -0.5242
 4024TIP3    H233564   4.623   3.559   2.598 -0.4657 -0.0190  0.2490
 4025TIP3   OH233565   3.783   3.902   3.398  0.0399 -0.0638  0.2842
 4025TIP3    H133566   3.811   3.835   3.335 -2.5336 -1.3629  0.4059
 4025TIP3    H233567   3.830   3.981   3.371  2.0839 -1.5362 -0.7408
 4026TIP3   OH233568   3.701   1.192   1.338 -0.5930  0.0961  0.2513
 4026TIP3    H133569   3.763   1.263   1.351 -0.2158  0.1530 -1.6569
 4026TIP3    H233570   3.712   1.136   1.415  0.6896  0.9221  0.6882
 4027TIP3   OH233571   6.120   1.219   1.719 -0.6194  0.1186  0.0503
 4027TIP3    H133572   6.174   1.275   1.774  0.5693 -0.8548 -0.0885
 4027TIP3    H233573   6.037   1.213   1.767  0.0876  0.0006  1.3302
 4028TIP3   OH233574   5.502   3.155   5.051  0.0075 -0.0910  0.0512
 4028TIP3    H133575   5.499   3.240   5.095 -2.1571 -1.2078  2.3432
 4028TIP3    H233576   5.410   3.132   5.036  0.4657 -2.4059  0.3289
 4029TIP3   OH233577   3.857   0.929  16.649  0.1024  0.1656 -0.4089
 4029TIP3    H133578   3.800   0.970  16.585  0.5349 -0.6083 -1.3118
 4029TIP3    H233579   3.852   0.835  16.630 -0.5301 -0.1843  1.3333
 4030TIP3   OH233580   4.858   3.852   5.456 -0.2930  0.2111 -0.4547
 4030TIP3    H133581   4.874   3.758   5.465 -1.4314  0.0545  0.1455
 4030TIP3    H233582   4.856   3.885   5.546 -1.9368  0.4352 -0.5499
 4031TIP3   OH233583   0.332   0.124   4.696  0.7270  0.1779 -0.2647
 4031TIP3    H133584   0.314   0.072   4.774  0.2391 -0.1384 -0.5807
 4031TIP3    H233585   0.259   0.105   4.637  1.5998 -0.3798 -1.1996
 4032TIP3   OH233586   5.507   1.761  16.935 -0.4083  0.4125  0.0460
 4032TIP3    H133587   5.541   1.749  16.846 -0.2624 -0.6533  0.2346
 4032TIP3    H233588   5.561   1.831  16.972  2.0060 -1.5569  0.5172
 4033TIP3   OH233589   3.613   6.525  16.504 -0.3947 -0.2306 -0.1894
 4033TIP3    H133590   3.605   6.539  16.598 -1.6837 -3.1726  0.2481
 4033TIP3    H233591   3.524   6.531  16.471  0.0362  0.7024 -1.2420
 4034TIP3   OH233592   3.790   3.891   1.212 -0.4580 -0.2679  0.2245
 4034TIP3    H133593   3.779   3.801   1.180 -0.6342  0.2488 -1.2570
 4034TIP3    H233594   3.873   3.920   1.173 -0.0176 -0.0308  1.3113
 4035TIP3   OH233595   6.153   1.130   3.902 -0.3201  0.4316 -0.5209
 4035TIP3    H133596   6.223   1.147   3.965 -0.0141  0.8275 -0.9625
 4035TIP3    H233597   6.173   1.043   3.867 -0.6061  0.1190  0.0675
 4036TIP3   OH233598   6.042   4.731   2.326 -0.4461 -0.0555 -0.5798
 4036TIP3    H133599   6.060   4.677   2.249 -0.5178 -0.5080 -0.2792
 4036TIP3    H233600   6.050   4.671   2.400  0.4744  0.5600 -0.1558
 4037TIP3   OH233601   4.816   0.843  10.371 -1.0273  0.2353 -0.4779
 4037TIP3    H133602   4.895   0.846  10.317 -1.4192  1.6395 -1.0122
 4037TIP3    H233603   4.846   0.813  10.457 -0.1483 -0.5533 -1.0366
 4038TIP3   OH233604   1.621   4.199  15.220 -0.6406 -0.1297  0.6315
 4038TIP3    H133605   1.680   4.274  15.223 -0.3698 -0.3338  0.3708
 4038TIP3    H233606   1.550   4.227  15.162 -0.5805 -0.0483  0.5974
 4039TIP3   OH233607   3.373   4.143  13.402 -0.7886 -0.3273 -0.0482
 4039TIP3    H133608   3.396   4.084  13.473 -0.2320  2.0776  1.9204
 4039TIP3    H233609   3.359   4.086  13.326  1.9035 -2.7760  1.1026
 4040TIP3   OH233610   0.725   4.136   4.078 -0.4993  0.3946  0.4227
 4040TIP3    H133611   0.770   4.058   4.110 -1.7235 -0.3655  0.3795
 4040TIP3    H233612   0.655   4.102   4.022  0.5450  1.6481 -1.7322
 4041TIP3   OH233613   5.988   2.620   1.421 -0.0803 -0.0823  0.2926
 4041TIP3    H133614   6.051   2.656   1.358  1.4995 -4.6908 -1.1386
 4041TIP3    H233615   6.025   2.643   1.507  1.8626  0.0244 -0.5180
 4042TIP3   OH233616   6.379   3.300  17.092 -0.8031  0.0375  0.4357
 4042TIP3    H133617   6.323   3.377  17.085  0.1242  1.0228  2.7692
 4042TIP3    H233618   6.368   3.270  17.183 -0.9102 -2.4424 -0.3138
 4043TIP3   OH233619   2.853   1.574   1.823  0.8121 -0.1436 -0.3182
 4043TIP3    H133620   2.914   1.601   1.892  0.7210  0.4190 -0.4510
 4043TIP3    H233621   2.843   1.652   1.768  1.3307 -0.7572 -1.2982
 4044TIP3   OH233622   6.538   2.276  10.600 -0.4794 -0.3651 -0.1423
 4044TIP3    H133623   6.570   2.366  10.607 -1.2073  0.0226 -1.5638
 4044TIP3    H233624   6.442   2.284  10.602 -0.5496 -1.1695  0.2377
 4045TIP3   OH233625   0.755   3.086  16.983  0.0889  0.1831  0.0167
 4045TIP3    H133626   0.818   3.130  16.926  1.6614 -1.1846  0.6009
 4045TIP3    H233627   0.726   3.010  16.932  1.2071 -0.8293  0.8270
 4046TIP3   OH233628   5.069   1.747   1.166  0.1669 -0.7713 -0.0865
 4046TIP3    H133629   5.035   1.826   1.125  0.1455 -0.6983  0.0706
 4046TIP3    H233630   5.070   1.767   1.260  1.2303 -0.5314 -0.1270
 4047TIP3   OH233631   0.336   0.298  14.304  0.4527 -0.2856  0.5400
 4047TIP3    H133632   0.382   0.379  14.281 -0.8447  0.6497  1.1131
 4047TIP3    H233633   0.375   0.231  14.248  2.3234  0.5005  0.8268
 4048TIP3   OH233634   0.689   0.627  15.414  0.2683  0.7310  0.0375
 4048TIP3    H133635   0.603   0.662  15.391 -0.1421  0.4921  1.1525
 4048TIP3    H233636   0.678   0.532  15.409  0.6149  0.7084 -0.3120
 4049TIP3   OH233637   6.516   3.886   3.367 -0.4153 -0.0002 -0.4753
 4049TIP3    H133638   6.454   3.831   3.319 -0.3065 -0.3215 -0.2448
 4049TIP3    H233639   6.462   3.935   3.429 -0.5862  0.5638 -1.0455
 4050TIP3   OH233640   4.586   5.146   3.769 -0.9307 -0.3020  0.3679
 4050TIP3    H133641   4.666   5.169   3.722 -2.7343  0.2233 -2.7283
 4050TIP3    H233642   4.565   5.225   3.820 -0.4296  0.2380 -0.2445
 4051TIP3   OH233643   3.864   0.774  12.793  0.1946 -0.6842  0.0847
 4051TIP3    H133644   3.779   0.815  12.809  1.9066  3.1291  0.4954
 4051TIP3    H233645   3.913   0.788  12.874  2.2971  0.3207 -1.2773
 4052TIP3   OH233646   0.967   2.544  12.079 -0.2538 -0.0287  0.0393
 4052TIP3    H133647   0.959   2.448  12.078 -1.4013 -0.0102  1.9623
 4052TIP3    H233648   0.934   2.571  11.993  2.0370 -1.4133 -1.3779
 4053TIP3   OH233649   4.639   1.377  16.930  0.3888  0.1648 -0.0361
 4053TIP3    H133650   4.728   1.348  16.947  1.0412  2.2759  0.5361
 4053TIP3    H233651   4.639   1.401  16.837 -0.0748 -1.3438 -0.4436
 4054TIP3   OH233652   3.367   6.135  15.707  0.2971 -0.5878 -0.3082
 4054TIP3    H133653   3.387   6.142  15.614  0.7463 -1.5140 -0.2937
 4054TIP3    H233654   3.442   6.175  15.751  0.9746 -1.7747 -0.3203
 4055TIP3   OH233655   2.126   6.581  15.463  0.3555  0.7614  0.0386
 4055TIP3    H133656   2.192   6.533  15.514 -1.4736 -1.0692  0.8196
 4055TIP3    H233657   2.142   6.554  15.372  0.4606  0.0144  0.2682
 4056TIP3   OH233658   0.654   0.014  14.909 -0.1952  0.3099 -0.5729
 4056TIP3    H133659   0.733  -0.040  14.918  0.8426  1.9985  1.4185
 4056TIP3    H233660   0.586  -0.034  14.957  0.7857  0.8429  1.4340
 4057TIP3   OH233661   3.854   1.912   4.673 -0.7433  0.0120 -0.1085
 4057TIP3    H133662   3.948   1.900   4.684 -0.7532  0.8388  0.9667
 4057TIP3    H233663   3.838   1.890   4.581  0.2818 -1.4125  0.0240
 4058TIP3   OH233664   4.623   5.501   6.038 -0.1813  0.6957  0.8026
 4058TIP3    H133665   4.557   5.528   6.101  1.4982  0.9379  2.5603
 4058TIP3    H233666   4.661   5.421   6.075 -0.0020  0.1300 -0.5476
 4059TIP3   OH233667   6.675   1.991   1.157 -0.3315  0.2444 -0.4187
 4059TIP3    H133668   6.665   1.904   1.195  0.7954 -0.1498 -0.9949
 4059TIP3    H233669   6.657   1.980   1.064 -0.6521  0.7262 -0.4204
 4060TIP3   OH233670   0.323   2.332  11.826  0.3147  0.0916 -0.2567
 4060TIP3    H133671   0.274   2.366  11.901  0.9598  1.6708 -0.5132
 4060TIP3    H233672   0.320   2.403  11.762  1.7707 -0.3146 -0.8011
 4061TIP3   OH233673   1.494   0.601   2.544  0.2358  0.6578  0.2101
 4061TIP3    H133674   1.489   0.536   2.474 -1.2899  0.3108  0.5899
 4061TIP3    H233675   1.405   0.604   2.579  0.4981  2.3017  0.8025
 4062TIP3   OH233676   4.097   1.701  16.441  0.3935 -0.2314 -0.3922
 4062TIP3    H133677   4.016   1.744  16.415  0.1381 -0.4382  0.0624
 4062TIP3    H233678   4.166   1.753  16.398  0.0399  0.0944 -0.5727
 4063TIP3   OH233679   0.285   6.756   1.319 -0.5734 -0.1966  0.1983
 4063TIP3    H133680   0.299   6.748   1.414 -0.9324 -2.3430  0.1404
 4063TIP3    H233681   0.195   6.787   1.311 -0.4304  0.3215  0.5549
 4064TIP3   OH233682   2.797   0.686   2.121 -0.9073 -0.1559 -0.2123
 4064TIP3    H133683   2.886   0.657   2.104  0.8859  2.6257  3.1671
 4064TIP3    H233684   2.778   0.747   2.049  0.2474 -0.1867 -0.5656
 4065TIP3   OH233685   2.325   2.131  11.841 -0.3371 -0.1653 -0.0868
 4065TIP3    H133686   2.386   2.073  11.796 -0.4873 -0.2061 -0.2401
 4065TIP3    H233687   2.260   2.072  11.879 -0.4590 -0.1019 -0.1951
 4066TIP3   OH233688   0.981   0.399   6.684 -0.4855  0.3816  0.1344
 4066TIP3    H133689   1.013   0.310   6.667 -2.6123 -0.3831 -0.2378
 4066TIP3    H233690   0.965   0.436   6.597  0.3159  1.1344  0.2907
 4067TIP3   OH233691   2.334   4.407  12.691 -0.1333 -0.1610 -0.0585
 4067TIP3    H133692   2.401   4.473  12.676 -0.6152  0.3801  0.0967
 4067TIP3    H233693   2.255   4.444  12.651 -0.5392 -0.3910  0.5114
 4068TIP3   OH233694   1.830   2.880  13.506  0.4050 -0.4661 -0.5543
 4068TIP3    H133695   1.909   2.918  13.467 -0.0565 -0.0207 -1.0735
 4068TIP3    H233696   1.861   2.804  13.554  1.0745 -0.6329 -1.2429
 4069TIP3   OH233697   5.285   2.189   6.208 -0.2315 -0.3776  0.3041
 4069TIP3    H133698   5.308   2.102   6.239 -1.2178  0.0431  2.4453
 4069TIP3    H233699   5.264   2.238   6.288  3.0998  2.7460 -0.4941
 4070TIP3   OH233700   1.903   5.943  13.519  0.6614  0.0670  0.1358
 4070TIP3    H133701   1.938   5.997  13.591 -0.3508  2.4587 -1.0737
 4070TIP3    H233702   1.977   5.933  13.460  1.4870 -1.8655  1.4108
 4071TIP3   OH233703   4.145   3.404  14.631  0.2031  0.7661  0.3639
 4071TIP3    H133704   4.227   3.405  14.582 -0.5873 -1.0313 -1.1250
 4071TIP3    H233705   4.085   3.355  14.575 -0.9144 -0.9204  2.8657
 4072TIP3   OH233706   3.502   5.435  14.669  0.1075  0.2746 -0.1266
 4072TIP3    H133707   3.421   5.450  14.718  0.7903 -1.8929  1.8624
 4072TIP3    H233708   3.571   5.463  14.729  0.8969  0.7954 -1.2513
 4073TIP3   OH233709   2.942   0.069   4.115  0.0420  0.6652  0.1725
 4073TIP3    H133710   2.931  -0.011   4.166  1.6183  0.9700  1.0602
 4073TIP3    H233711   3.012   0.048   4.053 -0.3096  1.0099 -0.3445
 4074TIP3   OH233712   3.877   5.840  17.069  0.3792  0.4620  1.6933
 4074TIP3    H133713   3.950   5.815  17.125  0.0495 -0.4506  1.7381
 4074TIP3    H233714   3.801   5.838  17.126 -0.4663 -3.3781  0.7127
 4075TIP3   OH233715   6.749   2.306  15.824  0.5324 -0.5394  0.6878
 4075TIP3    H133716   6.821   2.317  15.887  1.2469 -0.8914 -0.0522
 4075TIP3    H233717   6.793   2.293  15.740 -0.4092 -0.5633  0.1919
 4076TIP3   OH233718   0.571   4.279  14.048 -0.0434  0.4708  0.0849
 4076TIP3    H133719   0.518   4.349  14.012 -0.7139 -0.4609 -0.8099
 4076TIP3    H233720   0.527   4.254  14.129 -1.4371 -0.7496 -0.9839
 4077TIP3   OH233721   3.344   4.148   2.479  0.7334 -0.3496  0.3866
 4077TIP3    H133722   3.343   4.063   2.435 -0.3516  0.3077 -0.9117
 4077TIP3    H233723   3.319   4.128   2.570 -4.0131 -0.9926 -0.8175
 4078TIP3   OH233724   6.112   5.865   3.499 -0.0569  0.0395 -0.2746
 4078TIP3    H133725   6.186   5.814   3.466  0.9633  1.5159 -0.3460
 4078TIP3    H233726   6.085   5.919   3.425  0.1474  1.0242  0.3613
 4079TIP3   OH233727   4.483   1.792   3.980 -0.4428  0.2192  0.1133
 4079TIP3    H133728   4.481   1.795   4.076 -0.8316  0.9556  0.0931
 4079TIP3    H233729   4.419   1.858   3.953 -0.0254  0.3205 -0.6565
 4080TIP3   OH233730   3.405   4.284   3.451 -0.1691 -0.3767  0.0223
 4080TIP3    H133731   3.347   4.268   3.376  0.6161 -0.3250 -0.6093
 4080TIP3    H233732   3.351   4.333   3.513 -0.7576 -0.2012 -0.6227
 4081TIP3   OH233733   5.720   1.290  16.063  0.2356 -0.3863 -0.4581
 4081TIP3    H133734   5.774   1.234  16.007  0.2255 -3.6992  2.5324
 4081TIP3    H233735   5.782   1.350  16.104  0.8637 -0.7495 -0.8585
 4082TIP3   OH233736   4.256   4.325  15.230 -0.2258 -0.0882 -0.1071
 4082TIP3    H133737   4.173   4.325  15.278 -0.0548 -2.2343  0.2970
 4082TIP3    H233738   4.238   4.377  15.152 -1.9409 -0.4335  0.0029
 4083TIP3   OH233739   2.251   0.164   2.152 -0.0178  0.5171 -0.4102
 4083TIP3    H133740   2.189   0.152   2.224 -0.5283 -1.1287 -1.0630
 4083TIP3    H233741   2.298   0.244   2.174 -1.2878  0.9606  0.9064
 4084TIP3   OH233742   1.320   5.389  13.081 -0.0431  0.2378 -0.1007
 4084TIP3    H133743   1.321   5.384  12.985  0.2757  1.6957 -0.2011
 4084TIP3    H233744   1.312   5.483  13.099  2.1758  0.2341  1.2827
 4085TIP3   OH233745   4.028   4.060  15.112 -1.0476 -0.2548  0.3527
 4085TIP3    H133746   4.019   4.147  15.073  1.7842  0.1689  0.4108
 4085TIP3    H233747   4.115   4.031  15.085 -1.3660 -2.4884  1.5099
 4086TIP3   OH233748   4.577   0.827   4.004  0.0209  0.3149 -0.2701
 4086TIP3    H133749   4.523   0.768   3.951 -1.1886  0.3180  0.9127
 4086TIP3    H233750   4.638   0.770   4.049 -0.5443  0.0427  0.1654
 4087TIP3   OH233751   0.671   3.476  11.291  0.0835  0.0579  0.2389
 4087TIP3    H133752   0.674   3.570  11.269  0.3682  0.2413  1.0113
 4087TIP3    H233753   0.676   3.432  11.207 -1.4618  0.7429 -0.2567
 4088TIP3   OH233754   0.116   2.728   0.127 -0.0200  0.3586  0.9501
 4088TIP3    H133755   0.131   2.822   0.141  1.3755  0.1926  0.6935
 4088TIP3    H233756   0.117   2.717   0.032  0.3172  0.0260  0.9858
 4089TIP3   OH233757   2.501   2.843  13.964  0.4569 -0.0521  1.0996
 4089TIP3    H133758   2.469   2.763  13.923  0.6055  0.6023 -0.3505
 4089TIP3    H233759   2.448   2.853  14.043  1.1535 -2.1235  1.9046
 4090TIP3   OH233760   2.532   4.763  12.298  0.2349 -0.2539 -0.2247
 4090TIP3    H133761   2.603   4.806  12.344 -0.0222 -1.4116  1.3589
 4090TIP3    H233762   2.570   4.681  12.266 -0.0865 -0.3577 -0.3528
 4091TIP3   OH233763   5.728   6.394  15.607  0.5876 -0.0502  0.4037
 4091TIP3    H133764   5.694   6.332  15.543  0.1654  0.1451  0.4296
 4091TIP3    H233765   5.682   6.476  15.587  0.2258 -0.0612  1.1406
 4092TIP3   OH233766   6.763   4.726  15.118  0.6556 -0.0989  1.1076
 4092TIP3    H133767   6.813   4.706  15.197  2.1729 -0.1148  0.1873
 4092TIP3    H233768   6.822   4.779  15.065  0.0943 -0.9693 -0.4703
 4093TIP3   OH233769   4.760   6.846  16.290 -0.6001  0.0467  0.4010
 4093TIP3    H133770   4.707   6.779  16.332 -0.6408 -0.8319 -0.9795
 4093TIP3    H233771   4.701   6.921  16.279 -1.2808 -0.5664 -0.2190
 4094TIP3   OH233772   2.263   5.725   4.109  0.4676 -0.1434 -0.4972
 4094TIP3    H133773   2.313   5.714   4.190  0.9490 -3.3839 -1.0805
 4094TIP3    H233774   2.324   5.766   4.048  1.1812 -0.6349 -0.1223
 4095TIP3   OH233775   5.119   2.552   3.014 -0.9365  0.8194 -0.0142
 4095TIP3    H133776   5.110   2.629   3.070  3.1422  1.4087  0.1200
 4095TIP3    H233777   5.123   2.478   3.075  3.2567  1.4363  0.7572
 4096TIP3   OH233778   5.477   0.294   0.451  1.0000 -0.2067 -0.0232
 4096TIP3    H133779   5.396   0.335   0.481  1.7570  0.0614  1.8230
 4096TIP3    H233780   5.487   0.323   0.360 -0.0191  1.2573  0.2991
 4097TIP3   OH233781   2.943   6.051  16.524  0.4376 -0.6500 -0.0286
 4097TIP3    H133782   2.910   6.000  16.450 -0.8928  0.7866 -0.4938
 4097TIP3    H233783   2.981   6.129  16.484 -0.7670  0.4011  0.7895
 4098TIP3   OH233784   2.851   1.602   6.257  0.3226 -0.4480  0.3962
 4098TIP3    H133785   2.776   1.646   6.216  0.3815  0.6756  1.4410
 4098TIP3    H233786   2.815   1.561   6.335  0.6531 -0.5820  0.4783
 4099TIP3   OH233787   5.849   3.065  15.094 -0.0488  0.9176  0.3144
 4099TIP3    H133788   5.871   3.046  15.002  1.0850  1.0131  0.5526
 4099TIP3    H233789   5.805   2.985  15.124  1.0972  0.1966  0.1557
 4100TIP3   OH233790   4.037   1.347   2.288  0.2737 -0.2317  0.2004
 4100TIP3    H133791   4.101   1.332   2.218  1.3527 -2.3141  1.5456
 4100TIP3    H233792   3.954   1.359   2.242  1.2206  0.1526 -1.4904
 4101TIP3   OH233793   2.287   0.419  13.225  0.0070 -0.3286 -0.0423
 4101TIP3    H133794   2.278   0.487  13.158  1.5478  0.2284  0.2701
 4101TIP3    H233795   2.237   0.345  13.191 -0.2587  0.3629 -1.2251
 4102TIP3   OH233796   1.713   3.354  15.353 -0.5262 -0.2572  0.1231
 4102TIP3    H133797   1.695   3.281  15.294 -0.3820  0.2397 -0.5466
 4102TIP3    H233798   1.637   3.411  15.345 -0.0622  0.3093 -0.3596
 4103TIP3   OH233799   2.460   3.744  12.455 -0.0812  0.3480  0.5877
 4103TIP3    H133800   2.484   3.825  12.499  0.7663  0.7118 -0.4737
 4103TIP3    H233801   2.516   3.677  12.496 -1.0859  0.1993  1.7561
 4104TIP3   OH233802   1.512   4.678  16.886  0.4354 -0.5097  0.2304
 4104TIP3    H133803   1.591   4.732  16.891 -1.0599  1.7882  0.6832
 4104TIP3    H233804   1.511   4.644  16.796  1.6662 -0.1786  0.0736
 4105TIP3   OH233805   6.666   5.656   2.693 -0.2491  0.1016 -0.6920
 4105TIP3    H133806   6.665   5.648   2.597 -0.2119  0.2736 -0.7079
 4105TIP3    H233807   6.592   5.604   2.722  1.0757 -1.8551 -0.6722
 4106TIP3   OH233808   6.632   1.962   0.168  0.4544  0.0490  0.3284
 4106TIP3    H133809   6.680   1.955   0.085  0.6069  0.6736  0.3598
 4106TIP3    H233810   6.563   1.896   0.161  0.3108  0.2616 -0.4028
 4107TIP3   OH233811   4.123   2.702   3.470  0.1062  0.6791  0.1075
 4107TIP3    H133812   4.149   2.624   3.420  0.0446  0.8054 -0.1213
 4107TIP3    H233813   4.205   2.736   3.506  0.1765  0.6980 -0.0685
 4108TIP3   OH233814   6.557   5.897   0.936 -0.3636  0.1122  0.5961
 4108TIP3    H133815   6.542   5.816   0.985 -0.3279 -0.7169 -0.7150
 4108TIP3    H233816   6.501   5.889   0.859  1.4428  0.1839 -0.7958
 4109TIP3   OH233817   6.565   1.276  16.769 -0.0742 -0.5235 -0.2165
 4109TIP3    H133818   6.552   1.282  16.674 -1.4943 -0.5712 -0.0376
 4109TIP3    H233819   6.485   1.236  16.802 -0.1557  0.6752  1.1443
 4110TIP3   OH233820   6.435   5.138   2.743 -0.0189  0.6586 -0.1213
 4110TIP3    H133821   6.487   5.218   2.750 -0.9457  1.1458  2.2541
 4110TIP3    H233822   6.361   5.153   2.802 -0.0071 -2.1004  0.7152
 4111TIP3   OH233823   0.360   3.805   2.712  0.2426 -0.3335 -0.3716
 4111TIP3    H133824   0.434   3.851   2.752 -0.6262  0.4437  0.4157
 4111TIP3    H233825   0.353   3.723   2.762  0.1816 -0.1163 -0.0214
 4112TIP3   OH233826   2.275   0.565  12.989 -0.3698 -1.0056 -0.0155
 4112TIP3    H133827   2.349   0.584  12.932  0.7604  0.1043  1.7517
 4112TIP3    H233828   2.198   0.582  12.934  0.6732  0.2616 -1.1497
 4113TIP3   OH233829   2.294   5.435   4.285 -0.2789 -0.2261  0.2382
 4113TIP3    H133830   2.364   5.416   4.347 -0.0295  0.4131  0.1576
 4113TIP3    H233831   2.223   5.376   4.310  0.0554 -0.4304  0.7185
 4114TIP3   OH233832   2.409   3.869   4.009  0.4569  0.3209 -0.1075
 4114TIP3    H133833   2.340   3.935   4.017 -0.6115 -0.9056  1.2067
 4114TIP3    H233834   2.396   3.811   4.084  1.9103 -0.8914 -0.7403
 4115TIP3   OH233835   5.631   3.729   0.868  0.5484  0.3317  0.2710
 4115TIP3    H133836   5.660   3.763   0.784 -2.2794  0.2736 -0.8258
 4115TIP3    H233837   5.712   3.701   0.912  2.1692  1.0588 -2.0798
 4116TIP3   OH233838   5.977   6.426   6.651  0.2265 -0.5117 -0.2580
 4116TIP3    H133839   5.898   6.373   6.658  1.0464 -1.6968  0.3584
 4116TIP3    H233840   6.028   6.383   6.582  0.3977  0.1542 -0.5498
 4117TIP3   OH233841   6.230   1.653  12.544  0.5400 -0.0909  0.1787
 4117TIP3    H133842   6.141   1.664  12.512  1.0341 -0.6554 -1.4536
 4117TIP3    H233843   6.229   1.693  12.631 -0.9186  1.2372 -0.4106
 4118TIP3   OH233844   0.554   0.816   2.072  0.1251 -0.3949 -0.1817
 4118TIP3    H133845   0.509   0.863   2.002  0.1114  1.2158  0.8640
 4118TIP3    H233846   0.633   0.868   2.090 -0.2626 -0.3221  1.5106
 4119TIP3   OH233847   4.509   4.537  15.283 -0.0493  0.8534 -0.5532
 4119TIP3    H133848   4.416   4.533  15.260 -0.4976  2.9361  0.6381
 4119TIP3    H233849   4.554   4.498  15.208 -1.8806 -0.8116 -0.8889
 4120TIP3   OH233850   3.021   5.735   3.946 -0.9683 -0.4185  0.6999
 4120TIP3    H133851   2.925   5.743   3.944 -0.9738 -0.4918 -1.1751
 4120TIP3    H233852   3.052   5.814   3.902 -0.1668 -0.5667  0.9898
 4121TIP3   OH233853   0.045   1.864  15.263 -0.1173  0.1233  0.3473
 4121TIP3    H133854   0.115   1.896  15.320 -0.1415 -0.2660  0.5977
 4121TIP3    H233855  -0.003   1.801  15.317 -0.9494  0.7325  0.3235
 4122TIP3   OH233856   1.571   0.814  12.213  0.1528 -0.4920  0.3716
 4122TIP3    H133857   1.537   0.903  12.225 -0.1186 -0.6538  0.8096
 4122TIP3    H233858   1.595   0.785  12.301  0.3539 -0.8113  0.2158
 4123TIP3   OH233859   2.044   3.179   3.737  0.1376 -0.6101  0.2666
 4123TIP3    H133860   2.001   3.264   3.749 -0.2315 -0.5776 -1.1149
 4123TIP3    H233861   2.122   3.183   3.792  0.2311  0.7050  0.0631
 4124TIP3   OH233862   6.304   1.486   2.962  0.4121  0.3932  0.2089
 4124TIP3    H133863   6.350   1.446   2.889  2.5297 -1.1725  2.2319
 4124TIP3    H233864   6.300   1.579   2.940  1.4819  0.0606 -1.6071
 4125TIP3   OH233865   4.870   0.054   5.266 -0.3761  0.5337  0.2377
 4125TIP3    H133866   4.894   0.091   5.351  0.2366  0.2570  0.1908
 4125TIP3    H233867   4.796   0.107   5.236 -0.3699  0.8514  0.7845
 4126TIP3   OH233868   0.472   1.858   4.517  0.4284 -0.0573 -0.3847
 4126TIP3    H133869   0.516   1.935   4.553  0.7278  0.0585 -0.9827
 4126TIP3    H233870   0.542   1.809   4.473  0.3432 -0.9303  0.4051
 4127TIP3   OH233871   3.227   2.931   0.253  0.1473 -0.1176 -0.9488
 4127TIP3    H133872   3.210   2.847   0.212  0.0302 -1.2160  1.1764
 4127TIP3    H233873   3.140   2.962   0.281  0.4988 -1.4023  1.9725
 4128TIP3   OH233874   5.729   2.481   0.202  0.0367 -0.3691 -0.2826
 4128TIP3    H133875   5.747   2.387   0.201  0.7920 -0.2280 -0.3072
 4128TIP3    H233876   5.637   2.488   0.176  0.3682 -1.0212 -1.7517
 4129TIP3   OH233877   2.924   1.791  11.948  0.2380  0.1471 -0.2618
 4129TIP3    H133878   2.850   1.782  11.888 -0.3303 -0.7899  0.5403
 4129TIP3    H233879   2.927   1.708  11.995 -1.1093  1.7511  2.9849
 4130TIP3   OH233880   3.222   0.580  14.999  0.2051  0.2817 -0.3897
 4130TIP3    H133881   3.139   0.610  14.963 -0.3545 -0.4113  0.2896
 4130TIP3    H233882   3.280   0.573  14.922 -0.5337  0.2122 -0.9568
 4131TIP3   OH233883   6.014   3.766   3.766 -0.0124 -0.2426 -0.2997
 4131TIP3    H133884   6.049   3.825   3.833  0.6941 -1.0134  0.0289
 4131TIP3    H233885   6.020   3.816   3.685  0.8166  0.0579 -0.0660
 4132TIP3   OH233886   5.594   5.648   4.412  0.2114  0.0204  0.1774
 4132TIP3    H133887   5.621   5.572   4.361 -0.5112 -1.9988  2.5915
 4132TIP3    H233888   5.667   5.663   4.473  0.7570  1.9260 -0.8661
 4133TIP3   OH233889   2.045   3.029   0.585  0.4494 -0.2451 -0.6794
 4133TIP3    H133890   2.018   2.969   0.654 -0.7769  1.4096  0.3530
 4133TIP3    H233891   2.117   3.079   0.623 -1.0934  1.5956 -0.0076
 4134TIP3   OH233892   6.337   6.318  12.497  0.8662 -0.6574  0.2250
 4134TIP3    H133893   6.411   6.344  12.552  0.5001  1.7326 -0.2876
 4134TIP3    H233894   6.260   6.337  12.550  0.5207  1.3941 -0.9048
 4135TIP3   OH233895   0.758   4.292  11.945 -0.3702  0.0664  0.8701
 4135TIP3    H133896   0.762   4.197  11.941  1.3195 -0.0093  2.7283
 4135TIP3    H233897   0.850   4.320  11.941 -0.9082  1.7712 -1.4646
 4136TIP3   OH233898   0.149   3.780   5.323  0.2109  0.3267  0.2202
 4136TIP3    H133899   0.116   3.858   5.279 -1.0902 -0.1837  0.2480
 4136TIP3    H233900   0.225   3.810   5.373 -0.3211  1.5872  0.2952
 4137TIP3   OH233901   1.147   4.331   3.416  0.4986 -0.5170 -0.1968
 4137TIP3    H133902   1.183   4.409   3.457 -0.5975  0.0931 -0.3724
 4137TIP3    H233903   1.053   4.334   3.435  0.0348 -0.5164 -2.2320
 4138TIP3   OH233904   1.821   2.851  13.077 -0.2418 -0.2614  0.7308
 4138TIP3    H133905   1.865   2.936  13.087  0.4894 -0.5682  0.1682
 4138TIP3    H233906   1.788   2.852  12.987 -0.2692 -0.5623  0.7376
 4139TIP3   OH233907   0.952   1.045  13.884  0.7210  0.1092  0.0691
 4139TIP3    H133908   0.926   0.965  13.837 -0.9904  0.7355 -0.1276
 4139TIP3    H233909   0.873   1.098  13.885  1.7201  1.6377  0.5739
 4140TIP3   OH233910   5.672   3.172  16.495 -0.0126 -0.1608  0.1517
 4140TIP3    H133911   5.627   3.227  16.430  1.3755 -0.1454 -0.8245
 4140TIP3    H233912   5.728   3.234  16.543  0.3536 -0.4694  0.1217
 4141TIP3   OH233913   5.829   5.587  15.043 -0.0565 -0.0812  0.2820
 4141TIP3    H133914   5.874   5.656  14.994 -0.2920 -0.9608 -1.1969
 4141TIP3    H233915   5.809   5.520  14.979 -0.9121 -1.0129  1.4735
 4142TIP3   OH233916   1.835   5.836  16.764 -0.1426  0.0254 -0.0251
 4142TIP3    H133917   1.807   5.891  16.837  1.1469 -0.0342  0.5417
 4142TIP3    H233918   1.777   5.861  16.692 -1.0362  0.5275  0.8306
 4143TIP3   OH233919   5.062   6.077   4.972 -0.3427 -0.2391 -0.5510
 4143TIP3    H133920   5.041   6.024   4.895  1.9511 -1.2588 -0.5499
 4143TIP3    H233921   5.144   6.040   5.005 -0.8871  0.6191  1.9851
 4144TIP3   OH233922   5.971   4.207   4.568  0.0299  0.1326 -0.1698
 4144TIP3    H133923   6.007   4.230   4.654  2.7136 -1.4632 -0.7494
 4144TIP3    H233924   5.886   4.169   4.588 -0.0137  1.0462  1.6398
 4145TIP3   OH233925   4.859   0.359   3.692 -0.0681  0.3521 -0.3190
 4145TIP3    H133926   4.931   0.296   3.701  0.0913  0.6598  0.5548
 4145TIP3    H233927   4.899   0.435   3.651  0.1455  0.5826  0.3086
 4146TIP3   OH233928   3.807   0.333   0.451  0.2501  0.2675 -0.1094
 4146TIP3    H133929   3.894   0.367   0.428 -0.0237  1.7295  0.8399
 4146TIP3    H233930   3.754   0.346   0.372  0.1438  2.2039  0.2320
 4147TIP3   OH233931   6.035   6.453   4.098 -0.6748  0.6739  0.0156
 4147TIP3    H133932   6.076   6.371   4.070 -0.9954  0.1824  0.9304
 4147TIP3    H233933   5.975   6.426   4.168 -0.8823  1.6776  0.2317
 4148TIP3   OH233934   2.064   2.647   2.682  0.4994 -1.0800 -0.6916
 4148TIP3    H133935   2.051   2.741   2.693  0.0313 -1.2768  0.6060
 4148TIP3    H233936   2.154   2.639   2.651  0.4991 -0.2049 -0.9536
 4149TIP3   OH233937   3.150   4.368   4.071  0.5796  0.1972 -0.0014
 4149TIP3    H133938   3.083   4.328   4.016 -0.1752  0.1420  0.9425
 4149TIP3    H233939   3.233   4.334   4.036  0.0595 -0.5820 -0.5026
 4150TIP3   OH233940   1.051   4.814   1.090  0.5275 -0.1874  0.4417
 4150TIP3    H133941   1.080   4.847   1.005  1.7007 -0.0633  0.8664
 4150TIP3    H233942   0.957   4.833   1.093  0.5009 -0.0885 -0.7672
 4151TIP3   OH233943   6.844   1.076   0.119  0.1512  0.0543 -0.3095
 4151TIP3    H133944   6.780   1.009   0.095  0.5841 -0.4370 -0.0976
 4151TIP3    H233945   6.891   1.096   0.037  0.2201 -0.1121 -0.3102
 4152TIP3   OH233946   0.767   1.828   1.731 -0.6233 -0.3772 -0.3543
 4152TIP3    H133947   0.693   1.774   1.755 -0.6246 -0.2014  0.0353
 4152TIP3    H233948   0.843   1.783   1.768 -0.3668 -1.2652 -1.8576
 4153TIP3   OH233949   3.095   5.814   1.236 -0.1146 -0.2202 -0.1474
 4153TIP3    H133950   3.091   5.725   1.200 -0.5432 -0.0304 -0.5769
 4153TIP3    H233951   3.154   5.861   1.177 -1.1344  0.1988 -0.8536
 4154TIP3   OH233952   1.043   4.733  10.721  0.2914 -0.2185 -0.2607
 4154TIP3    H133953   1.066   4.690  10.639 -1.3287  1.6779 -1.8025
 4154TIP3    H233954   1.113   4.797  10.735  1.2760 -1.4374  0.6072
 4155TIP3   OH233955   3.070   3.250  11.737 -0.6654  0.2381 -0.6645
 4155TIP3    H133956   3.131   3.180  11.717 -0.9346 -0.7416  1.6416
 4155TIP3    H233957   3.117   3.307  11.798 -1.9565 -0.5556  1.1914
 4156TIP3   OH233958   1.205   3.756   5.473  0.4305 -0.1677  0.7857
 4156TIP3    H133959   1.148   3.833   5.467 -0.3611 -0.7251  1.0951
 4156TIP3    H233960   1.155   3.686   5.432  1.1790 -0.5122  0.4442
 4157TIP3   OH233961   4.415   1.532  15.800 -0.4147  0.0396  0.3244
 4157TIP3    H133962   4.394   1.479  15.723 -0.7311  1.2372 -0.4479
 4157TIP3    H233963   4.431   1.620  15.765  0.8718  0.3009  1.4706
 4158TIP3   OH233964   3.745   1.238  11.182  0.4840  0.7564 -0.2406
 4158TIP3    H133965   3.751   1.262  11.090 -0.6041 -3.0009 -1.4737
 4158TIP3    H233966   3.659   1.269  11.210  1.1433  2.6434 -0.1383
 4159TIP3   OH233967   3.262   0.341   5.838 -0.0518  0.2477 -0.2617
 4159TIP3    H133968   3.351   0.323   5.808 -0.0165  1.3636 -0.9129
 4159TIP3    H233969   3.206   0.299   5.772  0.0175  0.7062 -0.6246
 4160TIP3   OH233970   4.092   2.475   1.556 -0.1594  0.4000 -0.6567
 4160TIP3    H133971   4.017   2.433   1.598  1.0010 -1.9339 -0.7312
 4160TIP3    H233972   4.091   2.441   1.466  1.6484 -0.7224 -0.3129
 4161TIP3   OH233973   3.027   5.355  13.135 -0.5382  0.4886  0.0020
 4161TIP3    H133974   3.050   5.276  13.184  0.8339  1.7117  1.4510
 4161TIP3    H233975   3.079   5.350  13.056  3.5335  2.1693  2.2765
 4162TIP3   OH233976   3.424   4.361   1.022  0.6139  0.0248 -0.2034
 4162TIP3    H133977   3.339   4.393   1.053  0.2865  0.1836 -1.2309
 4162TIP3    H233978   3.415   4.266   1.018  0.8541 -0.0450  0.7307
 4163TIP3   OH233979   6.218   1.053   2.235  0.1539  0.2813 -0.1840
 4163TIP3    H133980   6.164   0.976   2.255  0.9792  0.0703  1.4458
 4163TIP3    H233981   6.180   1.123   2.289 -0.5527  1.0297 -1.6091
 4164TIP3   OH233982   2.614   3.304   4.928 -0.3063 -0.3093  1.0380
 4164TIP3    H133983   2.700   3.293   4.967 -0.4550 -0.9057  1.2036
 4164TIP3    H233984   2.620   3.260   4.843 -0.6111 -0.8312  1.2837
 4165TIP3   OH233985   6.498   2.926   4.210 -0.1449  0.5192 -0.0967
 4165TIP3    H133986   6.539   2.963   4.132 -0.4315  2.1287  0.4747
 4165TIP3    H233987   6.409   2.960   4.209 -0.0688  0.8218  1.0614
 4166TIP3   OH233988   0.041   5.309  14.519  0.3154  0.1207 -0.0790
 4166TIP3    H133989  -0.002   5.394  14.511  1.0871  0.6256  0.9560
 4166TIP3    H233990  -0.030   5.246  14.505 -0.6645  0.9269  1.0559
 4167TIP3   OH233991   1.115   4.333  16.861  0.3518 -0.3001  0.1596
 4167TIP3    H133992   1.141   4.402  16.921 -0.1794  0.4681 -0.4716
 4167TIP3    H233993   1.191   4.322  16.803 -0.1877  1.0113 -0.8471
 4168TIP3   OH233994   1.553   6.384  11.648  0.3046 -0.1258  0.2850
 4168TIP3    H133995   1.592   6.426  11.572 -0.1768 -0.6659 -0.2722
 4168TIP3    H233996   1.540   6.293  11.622  0.6104 -0.4437  1.1983
 4169TIP3   OH233997   3.710   3.879  12.317 -0.1787 -0.0627 -0.2162
 4169TIP3    H133998   3.779   3.938  12.346 -0.5121 -0.5210  1.6530
 4169TIP3    H233999   3.667   3.925  12.244  1.4106  0.6712 -0.7292
 4170TIP3   OH234000   5.990   6.123  12.636  0.1981 -0.0846 -0.8053
 4170TIP3    H134001   6.013   6.156  12.723  1.1270 -1.3918 -0.5192
 4170TIP3    H234002   5.967   6.201  12.586  1.0093  0.8433  0.2124
 4171TIP3   OH234003   2.168   0.455  15.569  0.1293 -0.4201  0.5166
 4171TIP3    H134004   2.241   0.468  15.508 -1.6733  1.1613 -1.5119
 4171TIP3    H234005   2.165   0.536  15.620 -0.5561 -0.1949  0.1356
 4172TIP3   OH234006   3.119   4.950   0.842 -0.8088  0.2879  0.0264
 4172TIP3    H134007   3.206   4.948   0.802 -0.0877  5.0661  0.7298
 4172TIP3    H234008   3.058   4.946   0.768  0.0599 -0.9815 -0.6517
 4173TIP3   OH234009   4.885   5.043  14.136  0.0476 -0.2785  0.1095
 4173TIP3    H134010   4.796   5.030  14.166 -0.0541 -0.1647 -0.1403
 4173TIP3    H234011   4.931   4.963  14.163 -0.0047 -0.1198  0.6854
 4174TIP3   OH234012   3.953   1.644   1.686  0.2976 -0.1025  0.6649
 4174TIP3    H134013   3.926   1.734   1.672  1.0165  0.1076  0.6056
 4174TIP3    H234014   3.923   1.597   1.608 -1.1686 -0.1730  1.2466
 4175TIP3   OH234015   0.380   3.636   1.320 -0.2433 -0.2048  0.2717
 4175TIP3    H134016   0.327   3.639   1.240  1.2334 -0.5774 -0.7766
 4175TIP3    H234017   0.452   3.697   1.302 -0.5842  0.7220  1.8813
 4176TIP3   OH234018   1.287   1.444  14.209 -0.4627  0.3493  0.6186
 4176TIP3    H134019   1.368   1.487  14.183 -0.6402  0.5998  0.4696
 4176TIP3    H234020   1.279   1.461  14.303 -1.5659  2.4314  0.2186
 4177TIP3   OH234021   1.980   3.398  10.977  0.2791 -0.0277 -0.4778
 4177TIP3    H134022   2.049   3.335  10.953  0.2162 -0.0923 -0.4892
 4177TIP3    H234023   1.986   3.405  11.072 -0.0396 -0.4308 -0.4222
 4178TIP3   OH234024   5.025   1.220   4.288 -0.4824  0.6599  0.1104
 4178TIP3    H134025   5.081   1.154   4.248 -0.5031  1.0131 -0.5197
 4178TIP3    H234026   5.078   1.300   4.286 -0.0054  0.4321  1.9235
 4179TIP3   OH234027   2.140   5.818   3.416 -0.2046  0.4841  0.1075
 4179TIP3    H134028   2.078   5.762   3.462 -0.3132  1.2653  0.9318
 4179TIP3    H234029   2.086   5.881   3.370 -0.0932 -0.2330 -1.0469
 4180TIP3   OH234030   2.506   2.339  16.564  0.1048  0.1738 -0.4224
 4180TIP3    H134031   2.546   2.420  16.530  0.1368 -0.2225 -1.3624
 4180TIP3    H234032   2.417   2.340  16.529 -0.8823  1.2083  1.9198
 4181TIP3   OH234033   4.828   4.299  15.236  0.3721 -0.2570 -0.1723
 4181TIP3    H134034   4.780   4.228  15.194 -1.6648  0.8006  0.2594
 4181TIP3    H234035   4.810   4.289  15.329  2.1185 -0.6017  0.1714
 4182TIP3   OH234036   6.227   3.769   6.242 -0.5093  0.2340  0.1872
 4182TIP3    H134037   6.280   3.807   6.312  0.5891 -0.2386 -0.3530
 4182TIP3    H234038   6.247   3.675   6.245 -1.0654  0.0926 -0.2438
 4183TIP3   OH234039   1.545   4.627   5.843 -0.2292 -0.2626 -0.6650
 4183TIP3    H134040   1.499   4.671   5.915  1.2554 -0.5057  0.4782
 4183TIP3    H234041   1.635   4.618   5.874  0.3919 -0.6220 -2.4649
 4184TIP3   OH234042   4.665   6.763  13.607 -0.1885 -0.6429 -0.1579
 4184TIP3    H134043   4.696   6.759  13.698 -0.7801 -0.0558  0.0791
 4184TIP3    H234044   4.668   6.856  13.585 -3.2238 -0.3041  0.4175
 4185TIP3   OH234045   1.344   4.897   3.584  0.1342 -0.9025  0.8491
 4185TIP3    H134046   1.423   4.885   3.636  3.6868  1.5881 -3.2642
 4185TIP3    H234047   1.313   4.984   3.608 -0.8120 -1.4688  1.7330
 4186TIP3   OH234048   4.448   6.088  14.612 -0.2103  0.2513  0.5257
 4186TIP3    H134049   4.371   6.126  14.570 -0.9947 -0.9549  0.8233
 4186TIP3    H234050   4.510   6.161  14.619 -1.0159  1.0525 -0.4382
 4187TIP3   OH234051   5.723   6.744  11.274  0.1123  0.4077 -0.1072
 4187TIP3    H134052   5.628   6.755  11.279  0.2824  3.1514 -1.2466
 4187TIP3    H234053   5.756   6.782  11.355  0.3094  0.9084 -0.4195
 4188TIP3   OH234054   6.646   6.702  16.055 -0.3461 -0.2289  0.0830
 4188TIP3    H134055   6.620   6.759  15.983  1.6002 -1.5759 -1.8035
 4188TIP3    H234056   6.739   6.721  16.069  0.0146 -1.9808  0.2921
 4189TIP3   OH234057   0.298   6.490  14.790  0.2114 -0.1367 -0.3487
 4189TIP3    H134058   0.344   6.479  14.873 -0.5709 -0.4053  0.0641
 4189TIP3    H234059   0.276   6.401  14.763 -1.5533  0.0452  0.3456
 4190TIP3   OH234060   4.238   4.137  12.897  0.3331  0.8629  0.1419
 4190TIP3    H134061   4.216   4.208  12.957 -2.9848 -0.6206  0.8885
 4190TIP3    H234062   4.259   4.182  12.814  1.3570  2.7731  1.3603
 4191TIP3   OH234063   1.534   0.647   3.970 -0.7540 -0.0606 -0.0467
 4191TIP3    H134064   1.512   0.647   3.877 -1.7005  0.4193  0.1670
 4191TIP3    H234065   1.629   0.650   3.972 -0.6061 -2.2575 -1.0088
 4192TIP3   OH234066   5.073   4.443  13.194  0.3461 -0.6176 -0.5674
 4192TIP3    H134067   5.022   4.386  13.252  1.4407 -1.0379  0.0091
 4192TIP3    H234068   5.153   4.394  13.176  1.2334  0.6540 -0.2151
 4193TIP3   OH234069   3.533   1.851   5.266  0.0971 -0.0529 -0.6363
 4193TIP3    H134070   3.457   1.794   5.254  0.6814 -1.0777  0.3911
 4193TIP3    H234071   3.496   1.935   5.294 -0.6039 -1.1017  1.8103
 4194TIP3   OH234072   4.173   1.000   1.320 -0.1490 -0.3312 -0.4000
 4194TIP3    H134073   4.236   1.064   1.286 -1.3041 -0.5077 -3.0981
 4194TIP3    H234074   4.129   1.045   1.392  0.7884  0.9710 -0.6126
 4195TIP3   OH234075   0.083   1.215   5.889 -0.3922  0.4481  0.3538
 4195TIP3    H134076   0.116   1.291   5.843 -2.0131  0.5567 -0.7331
 4195TIP3    H234077   0.155   1.187   5.946  0.6116  2.1025 -0.0473
 4196TIP3   OH234078   4.044   1.284   0.622  0.3690  0.0371  0.0150
 4196TIP3    H134079   4.120   1.229   0.605  0.0891 -0.6833  1.0201
 4196TIP3    H234080   4.002   1.294   0.537 -0.7681 -3.1100  0.0734
 4197TIP3   OH234081   1.535   4.270  13.008 -0.0091 -0.0834  0.1382
 4197TIP3    H134082   1.525   4.273  13.103  2.3501  0.2761  0.4603
 4197TIP3    H234083   1.593   4.196  12.992 -2.4781 -1.8425 -1.3499
 4198TIP3   OH234084   6.221   4.708   0.598 -0.4167  0.3786 -0.0306
 4198TIP3    H134085   6.148   4.704   0.660 -0.8705  2.1212 -0.4051
 4198TIP3    H234086   6.296   4.737   0.651 -0.1904 -0.5366  0.1712
 4199TIP3   OH234087   3.873   1.802  10.900 -0.2226 -0.2222 -0.0001
 4199TIP3    H134088   3.805   1.736  10.914 -0.0754 -0.4492 -0.3431
 4199TIP3    H234089   3.908   1.782  10.813  0.5077 -0.3162  0.3047
 4200TIP3   OH234090   2.795   5.365  12.866 -0.5488 -0.1112 -0.2882
 4200TIP3    H134091   2.759   5.423  12.933  1.2648  1.7633 -0.8307
 4200TIP3    H234092   2.846   5.300  12.915  0.5863  1.1133  0.2158
 4201TIP3   OH234093   4.694   3.851   4.384  0.4690 -0.9997  0.7300
 4201TIP3    H134094   4.781   3.812   4.398  1.5923  0.2733 -2.0185
 4201TIP3    H234095   4.707   3.944   4.401 -0.6969 -0.9539  1.4581
 4202TIP3   OH234096   0.032   0.102  15.365 -0.4306  0.0951 -0.2453
 4202TIP3    H134097   0.029   0.186  15.320 -3.0136 -0.2769 -0.9243
 4202TIP3    H234098   0.113   0.105  15.416  1.1995  1.6460 -2.7293
 4203TIP3   OH234099   2.202   5.401   5.618 -0.1300  0.3953 -0.7883
 4203TIP3    H134100   2.172   5.330   5.562 -0.1872  1.0787 -1.6484
 4203TIP3    H234101   2.203   5.478   5.561  0.0028  1.0719  0.1005
 4204TIP3   OH234102   4.479   4.810  10.610  0.3923 -0.1147 -0.1336
 4204TIP3    H134103   4.546   4.786  10.545  0.3040 -0.0510 -0.2490
 4204TIP3    H234104   4.459   4.728  10.655 -0.7446 -0.5120 -1.3092
 4205TIP3   OH234105   0.437   1.333  13.464  0.6357 -0.7296  0.5601
 4205TIP3    H134106   0.379   1.331  13.388 -0.3620 -1.1097  1.3080
 4205TIP3    H234107   0.452   1.241  13.485  2.5201 -0.6809 -0.3359
 4206TIP3   OH234108   2.488   3.353   5.247 -0.0571  0.1448 -0.1999
 4206TIP3    H134109   2.546   3.427   5.229 -1.9053  1.4160 -1.2823
 4206TIP3    H234110   2.404   3.380   5.211 -0.9574 -2.2505 -0.0413
 4207TIP3   OH234111   3.365   3.977  13.797  0.1194  0.1744 -0.3462
 4207TIP3    H134112   3.389   3.992  13.888 -0.1076 -1.1182 -0.0557
 4207TIP3    H234113   3.443   3.999  13.747  0.4661  0.2169  0.2091
 4208TIP3   OH234114   0.114   4.288   1.808  0.3242 -0.1144 -0.0064
 4208TIP3    H134115   0.069   4.280   1.724 -1.8919  3.3223  0.6809
 4208TIP3    H234116   0.079   4.216   1.861  0.0801 -0.9693 -1.2820
 4209TIP3   OH234117   1.910   1.925   1.743 -0.3307  0.4228 -0.1116
 4209TIP3    H134118   1.967   1.873   1.799 -0.8877  0.8880  0.9064
 4209TIP3    H234119   1.953   1.923   1.657  0.4469 -0.4331  0.2838
 4210TIP3   OH234120   5.163   3.044   5.326  0.5046  0.3497  0.6084
 4210TIP3    H134121   5.076   3.010   5.305  0.6500  1.1905 -1.5369
 4210TIP3    H234122   5.146   3.119   5.383 -0.2050  0.6674 -0.0048
 4211TIP3   OH234123   1.910   6.440  14.463 -0.3585 -0.3027 -0.2687
 4211TIP3    H134124   1.941   6.351  14.480 -3.2457 -1.4482 -0.4209
 4211TIP3    H234125   1.977   6.497  14.502  0.4227 -2.5670  1.9584
 4212TIP3   OH234126   1.662   0.087   2.317  0.3542  0.3202  0.0960
 4212TIP3    H134127   1.752   0.054   2.315  0.6500  1.0947  0.0494
 4212TIP3    H234128   1.628   0.059   2.402 -0.0178 -1.6147 -0.6519
 4213TIP3   OH234129   5.112   1.325   5.332  0.0257 -0.1899 -0.1998
 4213TIP3    H134130   5.109   1.400   5.272 -1.5303  0.8379  1.0939
 4213TIP3    H234131   5.022   1.292   5.333 -0.0582 -0.0048  1.7410
 4214TIP3   OH234132   2.458   3.780  16.891 -0.0432 -0.3157  0.5142
 4214TIP3    H134133   2.550   3.800  16.870 -0.3893  0.0616 -0.6967
 4214TIP3    H234134   2.408   3.845  16.843 -0.9707 -0.6404  1.0205
 4215TIP3   OH234135   0.227   2.905   3.162  0.3887 -0.0530 -0.3549
 4215TIP3    H134136   0.199   2.916   3.253  1.7427  2.2578 -0.1400
 4215TIP3    H234137   0.148   2.920   3.110  0.4021  3.1274  0.3481
 4216TIP3   OH234138   4.692   5.431   4.141  0.5037  0.5205  0.1398
 4216TIP3    H134139   4.714   5.432   4.235  0.2654  1.2605  0.1928
 4216TIP3    H234140   4.774   5.455   4.098  0.2324  1.7218  0.2539
 4217TIP3   OH234141   3.341   0.235   4.304  0.0003 -0.3817 -0.1631
 4217TIP3    H134142   3.256   0.278   4.302 -0.0606 -0.3977  1.0493
 4217TIP3    H234143   3.324   0.147   4.338  0.6229  0.0293  1.3274
 4218TIP3   OH234144   4.191   3.930   3.885  0.0295  0.3660 -0.0411
 4218TIP3    H134145   4.127   3.956   3.951  0.6357  0.2849  0.5846
 4218TIP3    H234146   4.253   4.002   3.881  0.5875 -0.0876  0.2469
 4219TIP3   OH234147   2.889   4.960  13.468  0.4534 -0.3536  0.3951
 4219TIP3    H134148   2.836   5.009  13.531  1.1855  0.3011  0.5166
 4219TIP3    H234149   2.912   4.880  13.515  1.1378  0.2078  1.0467
 4220TIP3   OH234150   1.252   4.740  16.250 -0.1000  0.4053 -0.2459
 4220TIP3    H134151   1.169   4.741  16.298 -1.0013 -1.4133 -1.6408
 4220TIP3    H234152   1.240   4.802  16.179 -0.0176  0.6058 -0.0868
 4221TIP3   OH234153   4.198   3.707  12.635  0.1209  0.1781  0.5347
 4221TIP3    H134154   4.112   3.706  12.593  1.5285 -1.6045 -2.6307
 4221TIP3    H234155   4.187   3.655  12.715 -1.8330  0.4913  0.5102
 4222TIP3   OH234156   0.503   3.246  17.028 -0.2718  0.3624  0.0870
 4222TIP3    H134157   0.497   3.166  16.976  1.2844  0.3826 -0.1559
 4222TIP3    H234158   0.476   3.220  17.116  0.3131 -0.4659  0.0314
 4223TIP3   OH234159   6.776   4.873   1.310 -0.0283  0.7005 -0.5785
 4223TIP3    H134160   6.758   4.861   1.217 -4.7635 -1.6306  0.3278
 4223TIP3    H234161   6.711   4.937   1.339  0.7897  0.7679  1.2519
 4224TIP3   OH234162   5.445   1.456  12.933 -0.5740  0.1451  0.4409
 4224TIP3    H134163   5.439   1.549  12.957 -0.5300 -0.3706  2.7016
 4224TIP3    H234164   5.523   1.425  12.980 -1.4680 -1.3701  0.9678
 4225TIP3   OH234165   5.631   5.809   1.492  0.7468 -0.7786  0.4506
 4225TIP3    H134166   5.725   5.822   1.480  0.7164 -0.7014  0.3026
 4225TIP3    H234167   5.626   5.739   1.557  0.9071 -0.6773  0.5756
 4226TIP3   OH234168   3.476   3.176   3.850 -0.4648  0.1073 -0.0802
 4226TIP3    H134169   3.473   3.081   3.858  0.7669 -0.1983 -2.4864
 4226TIP3    H234170   3.388   3.201   3.821 -0.0402 -0.6802 -2.2161
 4227TIP3   OH234171   0.377   3.696   0.533 -0.2306 -0.1423  0.2015
 4227TIP3    H134172   0.454   3.710   0.477  0.5167  0.5933  1.3885
 4227TIP3    H234173   0.312   3.759   0.500  0.7660  1.4543  1.1480
 4228TIP3   OH234174   3.047   3.668  13.158  0.3311 -0.0691 -0.6900
 4228TIP3    H134175   3.099   3.728  13.105  0.8979 -0.3567 -0.4693
 4228TIP3    H234176   3.036   3.590  13.103 -0.2258  0.1467 -0.8945
 4229TIP3   OH234177   3.944   5.089  16.289  0.1886  0.0734 -0.2509
 4229TIP3    H134178   4.003   5.049  16.225  0.4011  1.1399 -0.7373
 4229TIP3    H234179   3.946   5.183  16.268 -0.7215  0.2718  0.5147
 4230TIP3   OH234180   5.746   4.443  16.228 -0.0654 -0.1861  0.0395
 4230TIP3    H134181   5.712   4.362  16.268 -2.5897  0.3276 -0.8491
 4230TIP3    H234182   5.729   4.511  16.294  1.3913 -0.2320  0.4922
 4231TIP3   OH234183   0.206   4.622  15.227 -0.1943  0.0314  0.5305
 4231TIP3    H134184   0.204   4.581  15.140 -0.4402  0.6598  0.2324
 4231TIP3    H234185   0.289   4.670  15.229 -0.2382  0.1050  0.6018
 4232TIP3   OH234186   2.203   0.282   1.612  0.3915  0.0165 -0.1162
 4232TIP3    H134187   2.229   0.374   1.609 -2.1283  0.7949 -0.5121
 4232TIP3    H234188   2.200   0.261   1.705  0.8465  0.3741 -0.0160
 4233TIP3   OH234189   2.437   6.153   3.873  0.3049  0.1918  0.3742
 4233TIP3    H134190   2.491   6.185   3.945  1.3692 -0.8674  0.0800
 4233TIP3    H234191   2.353   6.130   3.914  1.0181 -0.7470  1.3577
 4234TIP3   OH234192   4.409   4.584   6.643 -0.2762  0.3382  0.1008
 4234TIP3    H134193   4.481   4.617   6.589 -0.8070 -0.5972 -1.2330
 4234TIP3    H234194   4.446   4.581   6.732  1.3748 -0.2150 -0.5556
 4235TIP3   OH234195   3.575   2.541  16.375  0.9700  0.2360 -0.2390
 4235TIP3    H134196   3.659   2.564  16.337  1.2402  0.0438  0.2317
 4235TIP3    H234197   3.540   2.624  16.407  0.8982  0.3433 -0.5977
 4236TIP3   OH234198   4.210   3.504   6.030 -0.2973  0.1740 -0.2946
 4236TIP3    H134199   4.139   3.558   5.998  0.4040  1.9543  1.0097
 4236TIP3    H234200   4.182   3.476   6.117  0.8660  1.5426  0.5621
 4237TIP3   OH234201   4.671   0.670  13.285  0.3219  0.3763 -0.2794
 4237TIP3    H134202   4.745   0.693  13.341 -0.0414  1.5471 -0.2453
 4237TIP3    H234203   4.650   0.751  13.239 -0.5324 -0.1029 -0.7650
 4238TIP3   OH234204   6.108   6.132   1.576  0.6631  0.5948 -0.2323
 4238TIP3    H134205   6.063   6.216   1.572 -1.1771 -0.2472  1.2554
 4238TIP3    H234206   6.093   6.091   1.491 -0.9599  0.5833  0.0294
 4239TIP3   OH234207   3.155   0.505   5.556  0.0388 -0.1238 -0.0624
 4239TIP3    H134208   3.237   0.554   5.547  0.1682 -0.6233 -2.0574
 4239TIP3    H234209   3.181   0.422   5.597  0.4671 -0.1402 -0.3636
 4240TIP3   OH234210   6.255   2.264  10.196 -0.1487  0.1809  0.3383
 4240TIP3    H134211   6.345   2.267  10.165  0.3103 -0.3110  1.5543
 4240TIP3    H234212   6.252   2.327  10.269 -0.1849 -1.3157  1.7003
 4241TIP3   OH234213   2.592   4.984   3.540 -0.0894 -0.2671  0.0435
 4241TIP3    H134214   2.653   5.040   3.588 -0.0758 -0.9923  0.8874
 4241TIP3    H234215   2.519   4.971   3.601 -0.8966  0.2275 -0.7897
 4242TIP3   OH234216   2.893   3.197   2.925 -0.0989  0.4049 -0.0560
 4242TIP3    H134217   2.858   3.284   2.902  2.0258  1.0056 -1.3177
 4242TIP3    H234218   2.962   3.182   2.861  1.2497 -1.1442  1.6618
 4243TIP3   OH234219   3.054   4.685  16.960 -0.0436 -0.6300 -0.2002
 4243TIP3    H134220   3.058   4.716  16.870 -0.1598  1.3904  0.4218
 4243TIP3    H234221   2.961   4.694  16.984 -0.1122 -1.6874 -0.0412
 4244TIP3   OH234222   1.677   0.399   4.670  0.2430  0.4478  0.2492
 4244TIP3    H134223   1.586   0.417   4.646  1.4097  4.8728 -1.9950
 4244TIP3    H234224   1.705   0.331   4.609 -1.5924 -1.4137  1.3660
 4245TIP3   OH234225   1.601   6.839  14.129 -0.3245  0.1282 -0.3315
 4245TIP3    H134226   1.621   6.760  14.179 -3.3480 -0.8756 -0.4925
 4245TIP3    H234227   1.550   6.893  14.189  0.4737  1.3410 -0.6993
 4246TIP3   OH234228   5.298   3.394   0.256 -0.0072 -0.2630  0.1046
 4246TIP3    H134229   5.315   3.462   0.191  0.8089 -0.1240  0.4539
 4246TIP3    H234230   5.383   3.381   0.299 -0.8384  0.6680  2.1342
 4247TIP3   OH234231   4.641   4.083  12.871 -0.2958  0.3200 -0.5469
 4247TIP3    H134232   4.607   4.080  12.960 -0.7050 -4.4055 -0.5841
 4247TIP3    H234233   4.704   4.155  12.871 -1.3500  1.4512  3.0682
 4248TIP3   OH234234   3.437   0.445   1.755  0.1500 -0.0532 -0.6340
 4248TIP3    H134235   3.499   0.457   1.683  2.1274  0.1178  1.0088
 4248TIP3    H234236   3.462   0.361   1.794  0.6399  0.8990  1.2102
 4249TIP3   OH234237   1.582   3.833  15.080 -0.1379 -0.1319 -0.0591
 4249TIP3    H134238   1.603   3.792  14.996 -3.4482 -1.6777 -0.3242
 4249TIP3    H234239   1.567   3.925  15.059  2.1742  0.2080 -0.4834
 4250TIP3   OH234240   6.288   5.883   2.527 -0.3946  0.0731 -0.3162
 4250TIP3    H134241   6.305   5.829   2.605  1.8903 -0.1675 -0.9274
 4250TIP3    H234242   6.202   5.922   2.544 -0.5672 -1.0396  1.7040
 4251TIP3   OH234243   5.424   3.866  11.806  0.1882  0.0399 -0.1349
 4251TIP3    H134244   5.507   3.857  11.759 -0.4619 -0.8517 -1.1556
 4251TIP3    H234245   5.384   3.945  11.770 -0.2681 -0.5926 -1.0607
 4252TIP3   OH234246   1.571   0.157   4.862 -0.2839 -0.1862 -0.2820
 4252TIP3    H134247   1.645   0.212   4.888 -1.0085  0.2903  0.8725
 4252TIP3    H234248   1.559   0.175   4.769 -0.2158  1.2964 -0.0383
 4253TIP3   OH234249   5.518   5.433   5.523 -0.2123  0.4202  0.2671
 4253TIP3    H134250   5.594   5.479   5.488 -1.3876  2.6909  0.4783
 4253TIP3    H234251   5.481   5.494   5.587 -1.2419 -1.3353  1.4235
 4254TIP3   OH234252   4.683   2.291  15.267  0.0683 -0.1812 -0.0370
 4254TIP3    H134253   4.712   2.230  15.199 -2.6650 -1.2493 -0.3714
 4254TIP3    H234254   4.627   2.353  15.220  0.4827  0.8414  0.7971
 4255TIP3   OH234255   1.452   5.047  11.539  0.3774  0.0319  0.0355
 4255TIP3    H134256   1.435   4.955  11.516  2.1288 -0.3620  0.1389
 4255TIP3    H234257   1.429   5.096  11.460  0.6194 -0.6450 -0.4676
 4256TIP3   OH234258   0.785   2.037  16.513  0.1692  0.2973 -0.2900
 4256TIP3    H134259   0.753   1.948  16.505  0.3045  0.3712 -1.8903
 4256TIP3    H234260   0.866   2.029  16.564 -0.4965 -0.3064  0.6997
 4257TIP3   OH234261   3.193   2.902  16.853 -0.2785  0.5370  0.0362
 4257TIP3    H134262   3.119   2.864  16.901  0.5835 -1.6886 -0.3093
 4257TIP3    H234263   3.244   2.948  16.919 -0.2563 -0.6739  0.8855
 4258TIP3   OH234264   0.496   5.159  16.955  0.2452  0.0985 -0.0818
 4258TIP3    H134265   0.551   5.228  16.917 -0.3374  1.4343  1.4129
 4258TIP3    H234266   0.543   5.132  17.033 -0.1429 -0.3468 -0.0012
 4259TIP3   OH234267   3.146   4.270  13.524 -0.3266 -0.5946 -0.0166
 4259TIP3    H134268   3.214   4.232  13.469 -0.3202 -0.3937 -0.1533
 4259TIP3    H234269   3.067   4.269  13.468 -0.0719  0.5874 -0.4254
 4260TIP3   OH234270   2.441   6.024  14.801  0.0921 -0.2802  0.2786
 4260TIP3    H134271   2.406   6.072  14.876 -1.3723 -0.0142 -0.5421
 4260TIP3    H234272   2.536   6.027  14.813 -0.0531  1.0549  1.3134
 4261TIP3   OH234273   0.589   0.774   4.659 -0.1840 -0.2850  0.1529
 4261TIP3    H134274   0.497   0.753   4.642 -0.2760 -0.1302  0.4400
 4261TIP3    H234275   0.635   0.690   4.650 -0.3999 -0.4235  0.3077
 4262TIP3   OH234276   4.811   1.650   4.066  0.0177 -0.1529  0.2088
 4262TIP3    H134277   4.868   1.574   4.062  0.6006  0.3005 -0.3300
 4262TIP3    H234278   4.870   1.725   4.062 -0.6562  0.3439 -2.2475
 4263TIP3   OH234279   2.334   5.175   3.266  0.3240  0.3616 -0.2383
 4263TIP3    H134280   2.282   5.095   3.263  1.2223 -0.2566  0.4549
 4263TIP3    H234281   2.279   5.240   3.223 -1.2643 -0.1361  0.9385
 4264TIP3   OH234282   5.470   4.017   0.205  0.0171  0.3259 -0.4294
 4264TIP3    H134283   5.400   3.968   0.162  0.0005 -0.3762  0.3970
 4264TIP3    H234284   5.549   3.992   0.158 -0.1928  0.6946 -0.9996
 4265TIP3   OH234285   6.467   5.856  12.585  0.2043 -0.1306  0.7094
 4265TIP3    H134286   6.379   5.848  12.624 -0.6336  0.3829 -0.9830
 4265TIP3    H234287   6.525   5.863  12.661 -1.2166 -0.3732  1.8887
 4266TIP3   OH234288   6.706   2.148  12.615  0.0151 -0.1113 -0.0410
 4266TIP3    H134289   6.658   2.215  12.664 -0.1020  0.7669 -1.3074
 4266TIP3    H234290   6.797   2.158  12.645 -0.1299  0.1076  0.3295
 4267TIP3   OH234291   2.526   6.813  15.188  0.8225  0.4608  0.5801
 4267TIP3    H134292   2.525   6.748  15.259 -2.1894  2.8009  2.9356
 4267TIP3    H234293   2.600   6.870  15.208  0.1249  0.9722  1.8023
 4268TIP3   OH234294   6.127   5.264   4.439 -0.4580  0.8476  0.2209
 4268TIP3    H134295   6.207   5.254   4.387 -0.6564 -1.0431  0.1811
 4268TIP3    H234296   6.070   5.317   4.385 -0.7194 -1.1975 -1.6731
 4269TIP3   OH234297   6.029   0.113  12.033 -0.7274 -0.2014  0.2000
 4269TIP3    H134298   6.063   0.177  11.972  1.1241  0.2428  1.6281
 4269TIP3    H234299   5.974   0.056  11.979  1.5595 -0.4205 -2.0914
 4270TIP3   OH234300   1.743   1.118  14.508 -0.6527 -0.3490 -0.1320
 4270TIP3    H134301   1.706   1.195  14.551 -0.5615  1.0133 -2.3602
 4270TIP3    H234302   1.668   1.075  14.467 -0.5978 -1.0913  0.5125
 4271TIP3   OH234303   4.978   5.783  10.603 -0.8570 -0.0584 -0.7971
 4271TIP3    H134304   4.904   5.817  10.654 -1.7662 -0.6663 -1.6618
 4271TIP3    H234305   5.028   5.730  10.665 -0.1434  1.7735  0.2381
 4272TIP3   OH234306   0.940   0.089  12.112  0.0296 -0.0733  0.4256
 4272TIP3    H134307   0.912   0.001  12.087  1.9644 -0.7998  0.6625
 4272TIP3    H234308   0.978   0.126  12.033  2.4602 -0.8400  1.1722
 4273TIP3   OH234309   0.146   4.601  16.269 -0.6352 -0.0107  0.3071
 4273TIP3    H134310   0.198   4.642  16.200  0.6322 -1.6016  0.2582
 4273TIP3    H234311   0.168   4.650  16.348  1.2068 -0.7788  0.3332
 4274TIP3   OH234312   4.525   1.556  14.351  0.3588 -0.1256  0.0063
 4274TIP3    H134313   4.493   1.466  14.347 -1.0270  0.3412  0.0561
 4274TIP3    H234314   4.475   1.596  14.422 -0.4816  1.2083 -1.2684
 4275TIP3   OH234315   3.241   3.894  14.359 -0.8533 -0.2808  0.1853
 4275TIP3    H134316   3.314   3.948  14.390  3.6067 -4.1618 -2.1173
 4275TIP3    H234317   3.206   3.854  14.439  1.5854 -0.3692  1.3155
 4276TIP3   OH234318   3.555   3.441   1.057 -0.4203  0.2774 -0.7024
 4276TIP3    H134319   3.549   3.362   1.002  0.5578  0.1226 -0.6012
 4276TIP3    H234320   3.510   3.418   1.138  0.8813 -0.6038 -0.2060
 4277TIP3   OH234321   4.594   3.146   0.841 -0.0849 -0.0436  0.2852
 4277TIP3    H134322   4.532   3.089   0.886 -0.1733 -0.0302  0.1838
 4277TIP3    H234323   4.554   3.233   0.844 -0.5378 -0.2026 -0.6100
 4278TIP3   OH234324   0.726   0.136   3.769  0.2238  0.0802 -0.3632
 4278TIP3    H134325   0.771   0.166   3.847  0.7841 -0.6972 -0.3761
 4278TIP3    H234326   0.693   0.216   3.728  1.1718  0.6208 -0.1007
 4279TIP3   OH234327   0.329   2.228  14.154 -0.4989 -0.1363 -0.4393
 4279TIP3    H134328   0.251   2.281  14.141 -0.6570 -0.5986 -1.4553
 4279TIP3    H234329   0.342   2.183  14.071  0.8909 -0.0108 -0.3155
 4280TIP3   OH234330   0.952   5.834  12.449  0.3138  0.1256  0.1523
 4280TIP3    H134331   0.912   5.753  12.418  0.0207  0.2391  0.2368
 4280TIP3    H234332   0.881   5.883  12.490  0.3127  0.7973 -0.6277
 4281TIP3   OH234333   1.417   0.636   0.789 -0.6185 -0.5817  0.3114
 4281TIP3    H134334   1.440   0.717   0.835  0.4265 -0.9564  0.4742
 4281TIP3    H234335   1.498   0.585   0.789 -1.3596 -1.7922  0.5404
 4282TIP3   OH234336   6.726   2.596   5.158  0.1511 -0.0282 -0.5747
 4282TIP3    H134337   6.720   2.691   5.160  1.0082  0.0467  1.6505
 4282TIP3    H234338   6.785   2.574   5.231 -0.5924 -2.3011 -0.5754
 4283TIP3   OH234339   5.587   5.626   3.346  0.4856 -0.0309  0.2805
 4283TIP3    H134340   5.570   5.720   3.346 -2.0358 -0.3974 -1.0292
 4283TIP3    H234341   5.656   5.614   3.281 -1.1520  0.6976 -1.7013
 4284TIP3   OH234342   5.462   4.976  12.951 -0.3702  0.2044 -0.3162
 4284TIP3    H134343   5.527   4.978  13.021  1.3454  2.1102 -1.8330
 4284TIP3    H234344   5.453   5.067  12.923 -2.1787 -0.2839 -1.5385
 4285TIP3   OH234345   5.136   5.523   4.080 -0.1182 -0.0057 -0.1529
 4285TIP3    H134346   5.166   5.455   4.140 -3.7524 -1.3871  0.4076
 4285TIP3    H234347   5.076   5.477   4.021 -0.2777  2.1954 -1.8471
 4286TIP3   OH234348   4.715   1.544   2.758 -0.2947 -0.3913 -0.0243
 4286TIP3    H134349   4.705   1.626   2.710  1.1006 -0.6130 -0.7382
 4286TIP3    H234350   4.782   1.496   2.710 -2.7364 -3.0428 -1.0567
 4287TIP3   OH234351   0.529   1.661  11.361  0.2175 -0.1933 -0.4698
 4287TIP3    H134352   0.543   1.614  11.443  0.0764  0.0424 -0.3086
 4287TIP3    H234353   0.491   1.745  11.387  1.0920  0.2876 -0.7046
 4288TIP3   OH234354   4.786   4.653  15.840  0.4627 -0.4169 -0.0496
 4288TIP3    H134355   4.765   4.584  15.777 -1.5788 -0.1800  0.3189
 4288TIP3    H234356   4.816   4.726  15.786 -1.4917 -0.1242 -0.8311
 4289TIP3   OH234357   1.079   1.667   5.882  0.3661  0.5583  0.1132
 4289TIP3    H134358   1.028   1.700   5.808 -0.0752 -0.2263  0.0506
 4289TIP3    H234359   1.017   1.617   5.934  1.0116 -0.2029  0.1781
 4290TIP3   OH234360   2.382   1.713  11.791 -0.3327  0.1322 -0.5855
 4290TIP3    H134361   2.419   1.800  11.779  1.8104 -0.5680  0.4545
 4290TIP3    H234362   2.393   1.670  11.706  2.2407 -0.3612 -0.0755
 4291TIP3   OH234363   5.678   4.164   2.391 -0.2924 -0.4468 -0.0849
 4291TIP3    H134364   5.633   4.080   2.392 -0.0157 -0.5955 -0.0660
 4291TIP3    H234365   5.715   4.170   2.303  0.5733 -0.8203  0.2463
 4292TIP3   OH234366   3.317   3.334   3.673  0.3732 -0.4842  0.0692
 4292TIP3    H134367   3.329   3.421   3.709 -2.2939  1.1087 -2.4653
 4292TIP3    H234368   3.395   3.319   3.619  0.8099  0.3531  0.4565
 4293TIP3   OH234369   4.084   6.556  15.773  0.0855 -0.5177  0.2660
 4293TIP3    H134370   4.101   6.624  15.707 -0.0395  0.9410  1.6840
 4293TIP3    H234371   4.171   6.519  15.790  0.4455  0.4961  0.7293
 4294TIP3   OH234372   1.084   6.543  15.390  0.3716 -0.1116 -0.0255
 4294TIP3    H134373   1.029   6.467  15.406 -0.9292  1.0164  1.1278
 4294TIP3    H234374   1.150   6.513  15.327  0.1244 -2.2691  0.6765
 4295TIP3   OH234375   5.990   3.348   4.159 -0.0482 -0.0648 -0.1963
 4295TIP3    H134376   5.902   3.317   4.138  0.9038 -2.4840 -0.9475
 4295TIP3    H234377   6.000   3.331   4.253 -0.9430  1.8853  0.3075
 4296TIP3   OH234378   0.191   2.393   0.329  0.8036  0.4520  0.1964
 4296TIP3    H134379   0.171   2.300   0.339  0.6089  0.4468 -0.2221
 4296TIP3    H234380   0.112   2.438   0.361  1.1154  0.4881  0.9282
 4297TIP3   OH234381   6.752   2.464   4.145  0.5163  0.0135 -0.1404
 4297TIP3    H134382   6.832   2.516   4.147  0.6243 -0.1306 -0.6659
 4297TIP3    H234383   6.720   2.466   4.236  1.0830  0.1134  0.0606
 4298TIP3   OH234384   0.296   4.949   5.261  0.1609 -0.2502 -0.2998
 4298TIP3    H134385   0.280   4.922   5.352 -0.3698  0.4130 -0.1872
 4298TIP3    H234386   0.213   4.932   5.216 -0.1933  1.1808 -0.2206
 4299TIP3   OH234387   3.657   5.511  14.860  0.7681  0.3752  0.4780
 4299TIP3    H134388   3.642   5.604  14.841 -0.7310 -0.1200 -0.9565
 4299TIP3    H234389   3.750   5.497  14.843  0.3208  0.8520 -2.9161
 4300TIP3   OH234390   5.764   0.233  10.672  0.4469 -0.6265  0.0450
 4300TIP3    H134391   5.676   0.249  10.704 -0.2093 -0.4460 -1.7362
 4300TIP3    H234392   5.777   0.299  10.604  2.3261 -0.0450  0.8930
 4301TIP3   OH234393   3.178   0.135   2.732 -0.5301 -0.1827  0.7453
 4301TIP3    H134394   3.262   0.179   2.721 -1.5447  1.6831 -0.0390
 4301TIP3    H234395   3.195   0.044   2.708  0.8601  0.5402 -1.2812
 4302TIP3   OH234396   3.803   0.739  11.166 -0.0223 -0.9337 -0.0330
 4302TIP3    H134397   3.833   0.669  11.223 -0.1526 -0.6026  0.4485
 4302TIP3    H234398   3.780   0.695  11.084  3.1423 -1.0643 -1.0023
 4303TIP3   OH234399   1.328   2.617  14.815 -0.2172 -0.2338  0.3062
 4303TIP3    H134400   1.392   2.618  14.886  0.5364 -0.1056 -0.3592
 4303TIP3    H234401   1.369   2.667  14.744 -0.3270 -1.5766 -0.7432
 4304TIP3   OH234402   6.648   0.243   4.528  0.4158 -0.0540 -0.6551
 4304TIP3    H134403   6.656   0.335   4.554  1.2151 -0.2423 -0.1964
 4304TIP3    H234404   6.574   0.210   4.580  0.1325  0.3245 -0.8143
 4305TIP3   OH234405   1.543   1.038  16.385  0.1557  0.2910 -0.3632
 4305TIP3    H134406   1.476   1.082  16.437 -0.9440  0.8123 -2.1519
 4305TIP3    H234407   1.591   1.110  16.343  1.3378 -0.1095  0.2228
 4306TIP3   OH234408   6.207   2.981  14.193  0.1390 -0.3666 -0.8070
 4306TIP3    H134409   6.194   3.049  14.127 -0.3377 -2.0143 -2.4898
 4306TIP3    H234410   6.299   2.955  14.184 -0.2484 -1.5117 -1.8227
 4307TIP3   OH234411   5.553   2.432  16.577  0.3161 -0.3891  0.2506
 4307TIP3    H134412   5.465   2.467  16.569 -0.3743 -1.6619  1.6714
 4307TIP3    H234413   5.595   2.487  16.644  0.6378  0.2594 -0.4770
 4308TIP3   OH234414   2.963   3.128  11.364  0.2102  0.4194 -0.0783
 4308TIP3    H134415   2.954   3.153  11.272 -2.5498  0.3268  0.0915
 4308TIP3    H234416   2.931   3.204  11.413  0.9779  0.1979  0.8072
 4309TIP3   OH234417   5.334   6.487   0.124 -0.1175  0.4068  0.4358
 4309TIP3    H134418   5.299   6.524   0.044 -2.9239 -1.1354  0.8075
 4309TIP3    H234419   5.425   6.517   0.128 -0.4028  1.9006 -2.4013
 4310TIP3   OH234420   6.351   4.527  14.614 -0.7380  0.2593  0.2512
 4310TIP3    H134421   6.388   4.579  14.685 -0.0259 -0.6000  0.5268
 4310TIP3    H234422   6.272   4.489  14.651 -0.9026  0.6136  0.2638
 4311TIP3   OH234423   5.506   2.542  14.943 -0.4781  0.2789 -0.5539
 4311TIP3    H134424   5.414   2.566  14.931 -0.6542  0.0926  0.3914
 4311TIP3    H234425   5.509   2.502  15.030  0.1483 -1.4393 -1.3243
 4312TIP3   OH234426   6.619   6.189  14.200  0.0989  0.1100 -0.3437
 4312TIP3    H134427   6.548   6.125  14.203 -1.8787  2.1530 -0.8598
 4312TIP3    H234428   6.656   6.180  14.112 -0.7009  0.2210 -0.6952
 4313TIP3   OH234429   0.547   1.151  12.038 -0.2221 -0.2998 -0.3140
 4313TIP3    H134430   0.465   1.101  12.034 -0.1423 -0.6071  1.2565
 4313TIP3    H234431   0.529   1.221  12.101  0.3942  0.2967 -0.7837
 4314TIP3   OH234432   0.932   6.639   5.131  0.7735 -0.4845 -0.0523
 4314TIP3    H134433   1.010   6.593   5.101 -0.5004 -1.9730 -1.2489
 4314TIP3    H234434   0.915   6.704   5.063 -0.0609 -1.4193 -0.7576
 4315TIP3   OH234435   0.326   4.087   4.568 -0.4389  0.6304 -0.4417
 4315TIP3    H134436   0.351   4.134   4.647 -0.6827  0.6776 -0.3908
 4315TIP3    H234437   0.237   4.056   4.585  0.1802 -0.9625  0.0311
 4316TIP3   OH234438   1.996   0.421   4.546  0.3759  0.0336  0.1469
 4316TIP3    H134439   1.961   0.332   4.544  0.9966 -0.1923 -1.5458
 4316TIP3    H234440   2.037   0.433   4.461  1.5336  1.4579  0.8729
 4317TIP3   OH234441   3.435   0.118   1.827  0.6183 -0.1568 -0.0564
 4317TIP3    H134442   3.514   0.076   1.859  1.3632  0.8510 -0.5379
 4317TIP3    H234443   3.408   0.064   1.752 -0.6018 -1.9691  1.5730
 4318TIP3   OH234444   1.743   6.054   0.301  1.2327 -0.2218 -0.3344
 4318TIP3    H134445   1.836   6.055   0.322  1.2737  2.1423 -0.2954
 4318TIP3    H234446   1.734   6.119   0.231 -0.5978  1.0093  0.9563
 4319TIP3   OH234447   3.424   4.566  11.773  0.7501 -0.2589  0.5540
 4319TIP3    H134448   3.466   4.503  11.715  0.6668 -0.5967  0.8507
 4319TIP3    H234449   3.393   4.513  11.847  0.5254  0.1047  0.7251
 4320TIP3   OH234450   1.541   4.342  16.295 -0.0735 -0.1203 -0.1651
 4320TIP3    H134451   1.465   4.299  16.333  0.7117 -2.0759 -0.6817
 4320TIP3    H234452   1.505   4.404  16.231 -1.2581  0.4950  1.0607
 4321TIP3   OH234453   1.577   1.130  12.883 -0.1193 -0.5335  0.3990
 4321TIP3    H134454   1.613   1.042  12.873  0.4166 -0.2458 -0.3605
 4321TIP3    H234455   1.517   1.139  12.808  0.4233  0.0165  0.0202
 4322TIP3   OH234456   4.666   3.443   1.484  0.6222 -0.2694 -0.4367
 4322TIP3    H134457   4.642   3.440   1.391  1.0765 -0.8017 -0.5402
 4322TIP3    H234458   4.730   3.373   1.494  0.5792 -0.2072  0.2810
 4323TIP3   OH234459   3.561   0.917   1.771  0.5565 -0.6679  0.3338
 4323TIP3    H134460   3.627   0.947   1.834  1.6662 -2.6997  0.2381
 4323TIP3    H234461   3.611   0.865   1.708 -0.3947  1.8427 -2.7417
 4324TIP3   OH234462   6.433   5.097   0.584 -0.5342 -0.2855 -0.2839
 4324TIP3    H134463   6.446   5.015   0.630 -0.8880 -0.5953 -0.7246
 4324TIP3    H234464   6.511   5.149   0.603  0.3133 -1.2351 -1.0953
 4325TIP3   OH234465   1.402   1.396  11.643  0.2238  0.0585  0.9812
 4325TIP3    H134466   1.430   1.315  11.600  1.2959  0.0453  1.6581
 4325TIP3    H234467   1.408   1.463  11.575  1.9068  0.0422  1.0628
 4326TIP3   OH234468   3.978   6.584   1.136  0.3472 -0.2653 -0.7028
 4326TIP3    H134469   3.894   6.538   1.130  1.8476 -3.2422 -0.6889
 4326TIP3    H234470   4.002   6.603   1.045 -0.1790  0.3165 -0.7248
 4327TIP3   OH234471   3.992   0.585  10.780  0.0080  0.2200  0.0107
 4327TIP3    H134472   4.083   0.612  10.792 -0.2448  0.1798  2.5030
 4327TIP3    H234473   3.994   0.490  10.785  0.1771 -0.1071 -3.4001
 4328TIP3   OH234474   1.959   6.650   5.720 -0.1001 -0.1840  0.4456
 4328TIP3    H134475   1.946   6.592   5.795 -1.8707  1.7741  1.7636
 4328TIP3    H234476   1.988   6.733   5.758 -0.2686  0.6252 -1.1009
 4329TIP3   OH234477   1.077   4.178  13.061  0.0608 -0.1271 -0.8957
 4329TIP3    H134478   1.149   4.200  13.001  1.5439  0.9771  1.1662
 4329TIP3    H234479   1.028   4.110  13.015  3.0263 -1.6993 -2.0065
 4330TIP3   OH234480   1.151   4.079  16.049 -0.0717  0.2946  0.0959
 4330TIP3    H134481   1.092   4.069  16.124 -0.9888  0.2527 -0.6074
 4330TIP3    H234482   1.124   4.009  15.989  0.0380  0.8879 -0.6578
 4331TIP3   OH234483   6.528   1.810   3.920 -0.0000  0.0480 -0.0115
 4331TIP3    H134484   6.588   1.884   3.931  2.3388 -1.2180 -2.8055
 4331TIP3    H234485   6.542   1.756   3.997 -0.2248  1.4744  1.0789
 4332TIP3   OH234486   3.802   1.470  16.139 -0.1362 -0.3906 -0.2348
 4332TIP3    H134487   3.874   1.470  16.202 -0.7406  1.0305  0.5102
 4332TIP3    H234488   3.729   1.428  16.185 -0.7307  1.0970  0.2564
 4333TIP3   OH234489   5.321   0.708  12.270 -0.0775  0.2991  0.5812
 4333TIP3    H134490   5.345   0.648  12.199  0.7035  1.6558 -0.3407
 4333TIP3    H234491   5.236   0.744  12.244 -0.1545  0.2175  0.7189
 4334TIP3   OH234492   0.869   1.684   4.538  0.4185 -0.2718 -0.0473
 4334TIP3    H134493   0.889   1.739   4.463  0.7822  0.7714  0.7934
 4334TIP3    H234494   0.783   1.646   4.518  1.5503 -1.9848 -2.0898
 4335TIP3   OH234495   6.753   2.557   5.875  0.7467  0.0845 -0.8467
 4335TIP3    H134496   6.820   2.488   5.878  0.6949 -0.0402  3.0353
 4335TIP3    H234497   6.670   2.510   5.883  0.2478  0.3970 -3.3261
 4336TIP3   OH234498   0.031   0.149  11.629 -0.2758  0.0515 -0.0060
 4336TIP3    H134499  -0.024   0.158  11.551  1.1754  0.8008 -1.0050
 4336TIP3    H234500   0.009   0.225  11.683 -0.5844  0.0658 -0.1484
 4337TIP3   OH234501   2.783   3.352   2.264  0.2268  0.5555 -0.1594
 4337TIP3    H134502   2.736   3.369   2.346  1.5431  0.9412  0.5338
 4337TIP3    H234503   2.714   3.350   2.198 -0.9586 -0.5064  1.0392
 4338TIP3   OH234504   0.611   4.792  12.130 -1.4489  0.5230  0.3742
 4338TIP3    H134505   0.653   4.821  12.211 -1.3700  1.4714  0.0101
 4338TIP3    H234506   0.550   4.723  12.158 -2.0544  1.4192  1.3681
 4339TIP3   OH234507   3.572   4.893   3.450  0.0675 -0.0850  0.2296
 4339TIP3    H134508   3.519   4.956   3.401 -0.3084  0.0688  0.8312
 4339TIP3    H234509   3.648   4.942   3.480  0.7810 -0.4017 -0.9812
 4340TIP3   OH234510   4.990   1.801   4.923  0.1324  0.1790 -0.5219
 4340TIP3    H134511   5.078   1.827   4.950  0.2766  0.8408 -1.5446
 4340TIP3    H234512   4.932   1.843   4.986  0.5431 -0.2823  0.1742
 4341TIP3   OH234513   0.578   4.578   3.577 -0.0288 -0.4742  0.4829
 4341TIP3    H134514   0.502   4.560   3.633  0.0174 -0.3861  0.5740
 4341TIP3    H234515   0.542   4.588   3.489  0.2688 -5.3157 -0.5007
 4342TIP3   OH234516   5.342   4.595  12.322  0.0606  0.3323  0.0465
 4342TIP3    H134517   5.361   4.552  12.406  0.4019 -0.8993 -0.6278
 4342TIP3    H234518   5.273   4.658  12.342  1.5912  1.6075  1.6737
 4343TIP3   OH234519   5.668   3.600  13.545 -0.2641  0.2410 -0.4388
 4343TIP3    H134520   5.760   3.579  13.561 -0.3630  0.0891 -0.0432
 4343TIP3    H234521   5.665   3.696  13.544 -0.4355  0.3149  1.7863
 4344TIP3   OH234522   3.534   3.883   3.485  0.3543  0.3217 -0.0263
 4344TIP3    H134523   3.515   3.789   3.479 -0.9760  0.5505  0.1442
 4344TIP3    H234524   3.624   3.892   3.456  0.2816 -0.9323 -0.6953
 4345TIP3   OH234525   2.347   3.063  16.761  0.2946  0.1070  0.1648
 4345TIP3    H134526   2.300   3.123  16.820  1.5256 -0.1934  1.5135
 4345TIP3    H234527   2.333   3.100  16.674 -0.2682  1.4858  0.7983
 4346TIP3   OH234528   4.889   3.161   6.769 -0.5353 -0.6601 -0.3144
 4346TIP3    H134529   4.801   3.123   6.774  0.5613 -3.3100  1.0813
 4346TIP3    H234530   4.899   3.207   6.852 -0.7400  0.0465 -0.6731
 4347TIP3   OH234531   5.391   6.326  11.705 -0.2971  0.1558 -0.2132
 4347TIP3    H134532   5.445   6.334  11.626  0.1664 -0.1585  0.0684
 4347TIP3    H234533   5.329   6.257  11.684 -1.3303  1.2760 -0.9520
 4348TIP3   OH234534   4.289   5.342   5.288 -0.3886 -0.6508  0.2276
 4348TIP3    H134535   4.290   5.267   5.229  1.0966 -0.8461  0.4685
 4348TIP3    H234536   4.301   5.304   5.375  2.1175 -0.0820  0.2131
 4349TIP3   OH234537   5.779   6.642   3.644  0.2860  0.1837 -0.5166
 4349TIP3    H134538   5.727   6.706   3.692  1.6016 -0.3513  1.7393
 4349TIP3    H234539   5.812   6.582   3.711  2.0161 -0.7679 -2.1251
 4350TIP3   OH234540   5.127   1.212   4.583  0.3085 -0.5192 -0.2607
 4350TIP3    H134541   5.193   1.281   4.578 -0.2806  0.0912  0.3546
 4350TIP3    H234542   5.067   1.230   4.511 -0.0399 -0.1899  0.1139
 4351TIP3   OH234543   4.871   2.671   0.266 -0.3159  0.2348 -0.0247
 4351TIP3    H134544   4.943   2.691   0.326  0.8268  0.8672 -1.5371
 4351TIP3    H234545   4.911   2.620   0.196 -1.9428 -1.9211  0.4874
 4352TIP3   OH234546   1.480   5.770  16.653  0.1909  0.5951  0.5602
 4352TIP3    H134547   1.545   5.833  16.622 -0.4752  0.8779 -0.3322
 4352TIP3    H234548   1.473   5.787  16.747  3.2461 -1.1808  1.2250
 4353TIP3   OH234549   5.866   2.389  12.976 -0.0759 -0.7238 -0.5022
 4353TIP3    H134550   5.920   2.399  13.054 -1.7906  2.0127  0.4714
 4353TIP3    H234551   5.929   2.391  12.903  1.2811  1.0828  0.6360
 4354TIP3   OH234552   0.719   2.869   1.942 -0.7862 -0.2264  0.2584
 4354TIP3    H134553   0.687   2.837   2.026 -0.8420 -0.9946 -0.0506
 4354TIP3    H234554   0.652   2.844   1.879 -1.0991  0.9930  0.0802
 4355TIP3   OH234555   0.169   2.155  11.130  0.0268 -0.0372  0.6915
 4355TIP3    H134556   0.185   2.159  11.224  0.0479 -0.8396  0.7268
 4355TIP3    H234557   0.082   2.194  11.119  0.3545  0.7885  0.9417
 4356TIP3   OH234558   4.870   4.460  11.279  0.3489 -0.3108  0.5751
 4356TIP3    H134559   4.784   4.501  11.278  0.2440 -0.5006 -1.0945
 4356TIP3    H234560   4.931   4.534  11.281  0.1445 -0.1357  0.4472
 4357TIP3   OH234561   2.802   4.801   4.930 -0.0715  0.3790 -0.3269
 4357TIP3    H134562   2.826   4.835   5.017  2.5494  2.0973 -1.5984
 4357TIP3    H234563   2.806   4.706   4.940  0.1677  0.5377  1.4270
 4358TIP3   OH234564   2.143   1.052   0.622 -0.3073  0.2033 -0.1826
 4358TIP3    H134565   2.203   1.105   0.570 -1.1059  1.0457 -0.2680
 4358TIP3    H234566   2.098   1.114   0.678  1.3269 -0.7890  2.3986
 4359TIP3   OH234567   0.508   1.949  11.234  0.5424 -0.4678 -0.7020
 4359TIP3    H134568   0.435   1.920  11.179 -0.0990  0.1657 -0.1988
 4359TIP3    H234569   0.487   2.039  11.257 -0.2024 -1.2594  2.1469
 4360TIP3   OH234570   3.406   6.819   3.351 -0.0918  0.3295  0.2291
 4360TIP3    H134571   3.338   6.755   3.331 -1.2523  2.3465 -3.1084
 4360TIP3    H234572   3.477   6.798   3.290  0.0421  1.4072 -0.0065
 4361TIP3   OH234573   4.149   5.924   5.303 -0.4114  0.1707 -0.2007
 4361TIP3    H134574   4.220   5.955   5.246 -1.0221  2.0493 -0.0214
 4361TIP3    H234575   4.071   5.926   5.247 -0.5782 -0.5056 -0.0016
 4362TIP3   OH234576   0.092   4.008   1.131  0.2077 -0.8398  0.3875
 4362TIP3    H134577   0.152   4.035   1.201 -0.1821  1.4289 -0.0606
 4362TIP3    H234578   0.150   3.983   1.059  0.7551  1.8154 -0.2214
 4363TIP3   OH234579   0.626   4.578  12.885 -0.0531  0.6643 -0.1370
 4363TIP3    H134580   0.718   4.572  12.909 -0.4529  0.5901  1.5258
 4363TIP3    H234581   0.581   4.521  12.947 -1.3131  1.4666 -0.2648
 4364TIP3   OH234582   2.310   5.678   1.702 -0.3198  0.3348  0.3672
 4364TIP3    H134583   2.219   5.663   1.730 -0.3343 -0.2629  0.0130
 4364TIP3    H234584   2.353   5.594   1.715 -0.8949 -0.7855 -3.6250
 4365TIP3   OH234585   6.339   0.943   5.454  0.7258  0.5008 -0.3262
 4365TIP3    H134586   6.305   0.981   5.535 -3.9376  0.2645 -1.9194
 4365TIP3    H234587   6.390   1.013   5.414 -0.2213  1.9893  0.9640
 4366TIP3   OH234588   2.942   4.724  14.931  0.1545 -1.0970  0.0405
 4366TIP3    H134589   2.944   4.689  15.020  0.3466  1.0464  0.9412
 4366TIP3    H234590   2.927   4.818  14.942 -2.0197 -1.0550 -2.2881
 4367TIP3   OH234591   1.124   5.887   5.976  0.5200 -0.1205 -0.5457
 4367TIP3    H134592   1.125   5.819   5.908 -2.7026 -1.0525  0.1546
 4367TIP3    H234593   1.072   5.849   6.047  0.0395  2.4351  0.5833
 4368TIP3   OH234594   0.167   3.071  13.492  0.1008 -0.3376  0.2467
 4368TIP3    H134595   0.156   2.982  13.528  0.6135  0.1403  1.6736
 4368TIP3    H234596   0.261   3.088  13.500  0.0687  0.1774 -0.4273
 4369TIP3   OH234597   0.936   3.770  17.052  0.3108 -0.3343  0.0100
 4369TIP3    H134598   0.948   3.845  16.994 -0.6555  0.0927  0.3498
 4369TIP3    H234599   1.021   3.758  17.094 -0.1585  2.2344  1.9280
 4370TIP3   OH234600   5.144   4.820   3.683 -0.6260  0.1508 -0.1560
 4370TIP3    H134601   5.075   4.815   3.749 -0.5108  3.1744  0.3237
 4370TIP3    H234602   5.209   4.756   3.712 -2.2550 -1.2828  0.5241
 4371TIP3   OH234603   0.846   0.610   1.268  0.0515 -0.3373  0.3980
 4371TIP3    H134604   0.864   0.657   1.349  1.0192 -2.6259  1.5886
 4371TIP3    H234605   0.930   0.573   1.242 -0.4171 -0.3429 -1.2033
 4372TIP3   OH234606   3.791   3.530   5.272 -0.0094 -0.3506  0.4581
 4372TIP3    H134607   3.814   3.549   5.362  0.5876 -0.5639  0.3552
 4372TIP3    H234608   3.808   3.436   5.262 -2.2417 -0.8507  0.7660
 4373TIP3   OH234609   4.992   5.727  16.957  0.2667 -0.5951  0.1946
 4373TIP3    H134610   5.014   5.693  16.871 -1.3663  0.4968 -0.6932
 4373TIP3    H234611   4.993   5.823  16.947 -1.9654 -0.4554  0.8099
 4374TIP3   OH234612   2.582   3.721  16.288  0.0158 -0.8924 -0.4541
 4374TIP3    H134613   2.510   3.719  16.351 -0.3387 -1.4349 -0.8662
 4374TIP3    H234614   2.616   3.810  16.292  1.4611 -1.4395  2.1458
 4375TIP3   OH234615   4.277   2.862  14.253 -0.2398 -0.5739 -0.0796
 4375TIP3    H134616   4.239   2.949  14.264  0.5113 -0.3288  0.6328
 4375TIP3    H234617   4.247   2.834  14.166 -0.6138  0.3221 -0.2500
 4376TIP3   OH234618   3.085   1.516   6.168 -0.0757  0.5713  1.0186
 4376TIP3    H134619   3.101   1.422   6.162 -0.7488  0.3093  2.6661
 4376TIP3    H234620   2.999   1.523   6.210 -0.2282  1.9237  0.5191
 4377TIP3   OH234621   1.465   2.691  13.990  0.2408  0.1204 -0.9414
 4377TIP3    H134622   1.467   2.749  14.066 -0.0578 -0.6899 -0.3151
 4377TIP3    H234623   1.557   2.679  13.967  0.2932  1.5790 -1.6660
 4378TIP3   OH234624   3.739   3.997   4.966  0.2623 -0.1329 -0.0055
 4378TIP3    H134625   3.786   3.917   4.989 -0.2238 -0.2552  0.5875
 4378TIP3    H234626   3.726   4.043   5.049 -1.9946 -0.8308  0.1006
 4379TIP3   OH234627   2.428   3.062   4.693  0.6447  0.2603 -0.4296
 4379TIP3    H134628   2.519   3.069   4.724 -0.0790 -0.2091  2.0348
 4379TIP3    H234629   2.405   2.970   4.707 -0.6751  0.6982  0.5150
 4380TIP3   OH234630   0.676   3.568  10.896 -0.2199  0.0186  0.2841
 4380TIP3    H134631   0.764   3.606  10.902  1.1824 -2.3370 -2.6281
 4380TIP3    H234632   0.628   3.630  10.841  0.1815  0.4351  0.3916
 4381TIP3   OH234633   3.124   2.150  13.880  0.0780 -0.4887 -0.1811
 4381TIP3    H134634   3.133   2.225  13.938 -1.0507  0.1462 -0.8000
 4381TIP3    H234635   3.211   2.110  13.878  0.1763 -0.4657  1.8453
 4382TIP3   OH234636   1.296   2.094   3.087 -0.5982 -0.0032  0.2754
 4382TIP3    H134637   1.298   2.070   2.994  2.0493  0.5115  0.1404
 4382TIP3    H234638   1.282   2.189   3.087 -0.5979 -0.0029  0.4275
 4383TIP3   OH234639   4.569   0.810   3.193  0.0454  0.1691 -0.3735
 4383TIP3    H134640   4.576   0.742   3.260  1.7906  2.7028  2.2573
 4383TIP3    H234641   4.658   0.819   3.158 -0.2910  0.7013 -1.1244
 4384TIP3   OH234642   6.531   5.324  14.039 -0.0769 -0.6022 -0.5694
 4384TIP3    H134643   6.538   5.234  14.009  0.6953 -0.6438 -0.3019
 4384TIP3    H234644   6.619   5.360  14.026 -0.4457  0.2030 -0.9480
 4385TIP3   OH234645   1.971   0.538   0.121  0.1611  0.1558 -0.1686
 4385TIP3    H134646   2.063   0.514   0.112  0.0864  0.2254 -1.3557
 4385TIP3    H234647   1.966   0.587   0.203  1.1616  0.0737 -0.0506
 4386TIP3   OH234648   3.607   3.951  16.885  0.2329  0.1570 -0.4119
 4386TIP3    H134649   3.514   3.975  16.880  0.3741  0.7031 -0.5783
 4386TIP3    H234650   3.645   4.017  16.943  0.9365  1.3660 -2.1512
 4387TIP3   OH234651   3.647   5.849   2.787  0.2686  0.3563 -0.6781
 4387TIP3    H134652   3.708   5.908   2.742 -0.0860 -0.2680 -2.0497
 4387TIP3    H234653   3.585   5.822   2.718 -1.2891  0.6235  0.5718
 4388TIP3   OH234654   6.842   0.533   3.911 -0.5759  0.1145 -0.2905
 4388TIP3    H134655   6.812   0.622   3.891 -1.4405 -0.5157 -2.0150
 4388TIP3    H234656   6.816   0.518   4.002 -3.2013  0.5692 -0.8967
 4389TIP3   OH234657   6.486   4.697  12.980  0.1227  0.0917  0.2652
 4389TIP3    H134658   6.560   4.745  12.943  0.6880  1.7479  3.2439
 4389TIP3    H234659   6.525   4.616  13.015  0.4373  0.5995  1.1296
 4390TIP3   OH234660   1.160   0.626   4.133 -0.0104 -0.1098  0.1937
 4390TIP3    H134661   1.140   0.678   4.210 -0.2379 -2.1941  1.6456
 4390TIP3    H234662   1.202   0.547   4.168  1.7888 -0.2432 -1.9991
 4391TIP3   OH234663   5.743   5.616   0.419 -0.0475  0.7547  0.1052
 4391TIP3    H134664   5.749   5.698   0.371  0.2427  0.7754  0.1696
 4391TIP3    H234665   5.661   5.576   0.391  0.5285  0.3418 -1.0761
 4392TIP3   OH234666   2.991   0.565  11.934  0.6692  0.2845 -0.0672
 4392TIP3    H134667   2.929   0.635  11.909  1.9428  1.5709  0.2281
 4392TIP3    H234668   3.053   0.561  11.861 -0.2587 -1.6603 -0.7973
 4393TIP3   OH234669   6.475   4.036  10.442  0.2059  0.1109  0.4148
 4393TIP3    H134670   6.562   4.033  10.481  0.7830 -2.0971 -0.8784
 4393TIP3    H234671   6.491   4.063  10.351 -0.6775  1.2866  0.5815
 4394TIP3   OH234672   6.567   2.314   2.948 -0.2959  0.1487  0.3953
 4394TIP3    H134673   6.608   2.348   3.028 -1.2666 -2.4470  2.0918
 4394TIP3    H234674   6.513   2.242   2.977 -1.9083  0.0676 -2.4766
 4395TIP3   OH234675   0.125   2.616  13.059 -0.7300  0.2592 -0.0831
 4395TIP3    H134676   0.191   2.682  13.036 -1.4721  0.8958 -0.4316
 4395TIP3    H234677   0.044   2.666  13.071 -1.6024 -0.7111 -1.5840
 4396TIP3   OH234678   6.716   6.346   5.216  0.3792 -0.2488  0.1064
 4396TIP3    H134679   6.630   6.319   5.247 -0.2098  2.1112  0.7367
 4396TIP3    H234680   6.699   6.396   5.136  1.0742  0.6221  0.4759
 4397TIP3   OH234681   1.589   4.929   5.929  0.2952 -0.6600  0.4337
 4397TIP3    H134682   1.501   4.894   5.938 -0.0907 -0.0687 -0.8357
 4397TIP3    H234683   1.595   4.999   5.995 -1.2777  1.3410 -1.3917
 4398TIP3   OH234684   0.138   5.403   3.989 -0.0018  0.0722 -0.1114
 4398TIP3    H134685   0.082   5.351   3.932  2.0637 -1.0358 -1.2770
 4398TIP3    H234686   0.127   5.365   4.075 -1.9927  0.7571 -0.0124
 4399TIP3   OH234687   3.103   0.871   2.465  0.1249 -0.4973 -0.0070
 4399TIP3    H134688   3.075   0.934   2.531  2.0708 -1.2243  1.6348
 4399TIP3    H234689   3.117   0.790   2.514  0.9488 -1.2565 -1.4338
 4400TIP3   OH234690   0.354   3.916   1.726 -0.2710  0.4673  0.2085
 4400TIP3    H134691   0.391   3.914   1.638  2.1968  1.0608  1.1380
 4400TIP3    H234692   0.361   4.007   1.753 -1.2698  0.3474  0.9341
 4401TIP3   OH234693   1.079   1.898   1.614 -0.0413  0.1698 -0.5210
 4401TIP3    H134694   1.109   1.935   1.697  1.2826 -1.9295 -0.0011
 4401TIP3    H234695   1.147   1.924   1.551 -0.7034  1.1873 -0.8477
 4402TIP3   OH234696   3.513   0.662  12.057  0.8916  0.2639 -0.3004
 4402TIP3    H134697   3.487   0.671  11.965  1.0459 -1.6351 -0.5815
 4402TIP3    H234698   3.579   0.593  12.056  0.4752 -0.1979  1.3185
 4403TIP3   OH234699   3.881   5.006   1.056  0.4318  0.2877  0.2547
 4403TIP3    H134700   3.954   4.979   1.000  1.3692  2.5892  0.2544
 4403TIP3    H234701   3.900   5.098   1.077 -1.5108  0.3897  1.8087
 4404TIP3   OH234702   0.041   5.403  12.798  0.0383  0.5131  0.0171
 4404TIP3    H134703   0.010   5.447  12.719  0.5250  2.0731  0.6667
 4404TIP3    H234704  -0.039   5.367  12.838 -0.1156 -1.1394 -1.6117
 4405TIP3   OH234705   5.542   1.956   3.440  0.1825  0.4048 -0.5140
 4405TIP3    H134706   5.556   2.039   3.485 -0.0293  0.6258 -0.8514
 4405TIP3    H234707   5.605   1.896   3.480 -3.7733 -1.1413  4.3229
 4406TIP3   OH234708   2.738   1.185  14.877 -0.2045  0.1285  0.0767
 4406TIP3    H134709   2.813   1.213  14.824 -0.7575  2.7578  0.5311
 4406TIP3    H234710   2.777   1.144  14.954  0.7571  0.4644 -0.2168
 4407TIP3   OH234711   0.400   2.967  12.476 -0.4822 -0.2763  0.2076
 4407TIP3    H134712   0.475   3.014  12.440 -0.4449 -0.5113 -0.0252
 4407TIP3    H234713   0.423   2.874  12.467 -0.2752 -0.3341  1.2550
 4408TIP3   OH234714   3.623   4.765  12.393  0.2653  0.2010 -0.0703
 4408TIP3    H134715   3.673   4.784  12.314 -1.0022  2.9074 -0.3353
 4408TIP3    H234716   3.535   4.743  12.361  0.3968 -1.3450  0.5263
 4409TIP3   OH234717   2.057   1.650  12.672 -0.3660 -0.1612 -0.0114
 4409TIP3    H134718   1.998   1.620  12.602  0.9713  0.3012 -1.3958
 4409TIP3    H234719   2.017   1.731  12.704 -2.1941 -1.5375  1.3902
 4410TIP3   OH234720   1.135   0.011  17.017 -0.2455 -0.0731  0.3225
 4410TIP3    H134721   1.212  -0.041  16.993 -0.4321 -0.7103  1.0721
 4410TIP3    H234722   1.168   0.075  17.081  0.1275  1.2346 -1.0915
 4411TIP3   OH234723   0.236   2.887  14.884  0.1265 -0.4026  0.6211
 4411TIP3    H134724   0.250   2.808  14.936 -0.7081 -0.1201  1.2910
 4411TIP3    H234725   0.152   2.921  14.914 -1.3051 -1.2065 -2.1848
 4412TIP3   OH234726   4.632   1.708  11.332 -0.1747 -0.2925  0.2814
 4412TIP3    H134727   4.597   1.782  11.381 -0.3060  1.2822 -2.0539
 4412TIP3    H234728   4.559   1.645  11.331 -1.1562  0.8085 -0.2062
 4413TIP3   OH234729   5.404   2.645   1.633 -0.0143  0.0568 -0.1407
 4413TIP3    H134730   5.373   2.561   1.599  0.1553 -0.2526  0.4508
 4413TIP3    H234731   5.327   2.702   1.631 -1.3953 -1.3642  3.5725
 4414TIP3   OH234732   6.187   6.593   4.361  0.1703 -0.0972  0.3450
 4414TIP3    H134733   6.214   6.602   4.270  0.9536  2.8116  0.7721
 4414TIP3    H234734   6.197   6.499   4.380  1.6296 -0.4995 -2.0532
 4415TIP3   OH234735   6.374   2.566   2.809  0.7401 -0.4029  0.7805
 4415TIP3    H134736   6.337   2.573   2.721 -0.1593  0.0853  1.1858
 4415TIP3    H234737   6.448   2.627   2.809  1.3498 -1.1120  0.0821
 4416TIP3   OH234738   5.223   5.035   4.346 -0.2619 -0.1068  0.2770
 4416TIP3    H134739   5.229   5.117   4.298 -0.0164 -0.9117 -1.1025
 4416TIP3    H234740   5.274   4.972   4.294  0.3923 -0.9100  1.8157
 4417TIP3   OH234741   4.062   4.254  15.412  0.3744  0.1463 -0.2952
 4417TIP3    H134742   4.128   4.254  15.481 -0.7365 -2.0197  0.8794
 4417TIP3    H234743   3.995   4.314  15.444 -0.8743 -1.9956  1.4084
 4418TIP3   OH234744   2.003   3.703  11.133  0.1848 -0.3646 -0.0076
 4418TIP3    H134745   1.985   3.609  11.143  0.4011 -0.3083  1.0601
 4418TIP3    H234746   1.921   3.746  11.158 -0.4756 -0.2869 -2.1276
 4419TIP3   OH234747   5.535   6.625   6.573 -0.2489  0.1335 -0.2900
 4419TIP3    H134748   5.460   6.685   6.576  0.7272  1.4268 -0.3984
 4419TIP3    H234749   5.499   6.540   6.595 -1.6613  0.8062  0.1425
 4420TIP3   OH234750   0.964   1.426  14.810  0.1731  0.2604  0.1009
 4420TIP3    H134751   0.915   1.496  14.767  1.2772  1.6778  1.0103
 4420TIP3    H234752   0.914   1.346  14.793 -1.3824  1.3369 -0.5946
 4421TIP3   OH234753   1.872   2.372   3.580 -0.0319 -0.0465  0.1945
 4421TIP3    H134754   1.841   2.407   3.497  1.9091  2.1178  0.3054
 4421TIP3    H234755   1.837   2.283   3.583 -0.9632  0.1608 -2.4608
 4422TIP3   OH234756   4.820   3.820  16.600  0.0405 -0.6676 -0.2231
 4422TIP3    H134757   4.838   3.741  16.651 -1.7140  0.1882  1.8992
 4422TIP3    H234758   4.792   3.787  16.514 -2.5967 -2.5621  1.2074
 4423TIP3   OH234759   2.905   1.022  13.567 -0.1771  0.2561  0.1978
 4423TIP3    H134760   2.870   1.106  13.599 -0.7759 -0.4008  1.3145
 4423TIP3    H234761   2.980   1.005  13.624 -2.0952 -1.6290  2.3753
 4424TIP3   OH234762   6.459   3.437  11.108  0.4629 -0.3219  0.3344
 4424TIP3    H134763   6.518   3.507  11.137 -0.4820  0.8751 -0.5137
 4424TIP3    H234764   6.508   3.391  11.040  1.1799 -0.6465  1.0559
 4425TIP3   OH234765   0.859   6.395   5.304 -0.2005  0.0366 -0.0079
 4425TIP3    H134766   0.879   6.440   5.222 -0.1461  0.1208  0.0516
 4425TIP3    H234767   0.939   6.404   5.356  0.6741 -2.1298 -0.8829
 4426TIP3   OH234768   4.892   3.182   4.625  0.3957 -0.0759 -0.1063
 4426TIP3    H134769   4.852   3.261   4.588  1.4558  0.0393 -1.0642
 4426TIP3    H234770   4.890   3.119   4.554  0.2531 -0.6682  0.4158
 4427TIP3   OH234771   3.441   2.944  10.858  0.8716  0.1261  0.0705
 4427TIP3    H134772   3.523   2.938  10.810 -0.8749 -1.7019 -3.0696
 4427TIP3    H234773   3.388   3.006  10.808  0.1486  0.9546  1.7792
 4428TIP3   OH234774   3.380   0.745   1.081 -0.1555  0.4069  0.5284
 4428TIP3    H134775   3.467   0.785   1.084  0.1178 -0.2097  1.1314
 4428TIP3    H234776   3.374   0.707   0.994  0.2619  0.2765  0.5548
 4429TIP3   OH234777   4.241   1.284  13.071  0.4457 -0.2879  0.2974
 4429TIP3    H134778   4.257   1.341  12.995 -0.3086 -2.6817 -1.7742
 4429TIP3    H234779   4.172   1.328  13.120  0.1592  0.7796 -1.0119
 4430TIP3   OH234780   6.125   2.762  15.412  0.2738  0.1286  0.2934
 4430TIP3    H134781   6.032   2.743  15.424  0.3794 -0.6973 -0.0892
 4430TIP3    H234782   6.127   2.830  15.344 -0.0154 -1.0666 -0.9741
 4431TIP3   OH234783   3.813   5.824   0.980 -0.1618 -0.2676 -0.0555
 4431TIP3    H134784   3.784   5.913   0.960  0.7865  0.0541 -0.0435
 4431TIP3    H234785   3.867   5.834   1.058  1.4989 -0.5713 -1.1367
 4432TIP3   OH234786   6.820   2.643  13.627  0.5056 -0.2587 -0.1737
 4432TIP3    H134787   6.892   2.605  13.575  0.6629  0.7887 -0.7594
 4432TIP3    H234788   6.758   2.675  13.561  0.5703  0.8365  0.2834
 4433TIP3   OH234789   2.240   0.588  16.864  0.3424 -0.0266  0.5001
 4433TIP3    H134790   2.308   0.534  16.823 -2.0722 -2.3710 -0.7549
 4433TIP3    H234791   2.222   0.545  16.947 -0.3590 -0.0849  0.3197
 4434TIP3   OH234792   4.606   1.361   2.161  0.2098  0.1084  0.5548
 4434TIP3    H134793   4.583   1.437   2.109 -0.6758  0.6175  1.6453
 4434TIP3    H234794   4.609   1.393   2.251  0.3355 -1.0327  0.9795
 4435TIP3   OH234795   1.635   0.289  12.478  0.3736 -0.0786  0.4808
 4435TIP3    H134796   1.627   0.333  12.394  1.6945 -0.3709  0.1796
 4435TIP3    H234797   1.714   0.235  12.470  1.9287  1.6654  2.6725
 4436TIP3   OH234798   1.755   2.343  15.852  0.0482 -0.2954 -0.1415
 4436TIP3    H134799   1.692   2.334  15.923  2.2959  1.6811  2.2831
 4436TIP3    H234800   1.758   2.437  15.834  2.1869 -0.3184 -0.2097
 4437TIP3   OH234801   0.104   4.520  11.885 -0.0221  0.2387 -0.5544
 4437TIP3    H134802   0.156   4.585  11.934 -0.4912  1.2819 -1.3931
 4437TIP3    H234803   0.153   4.509  11.803 -1.3965  1.7206 -1.6354
 4438TIP3   OH234804   3.827   6.130   5.324  0.4377  0.5931 -0.1323
 4438TIP3    H134805   3.810   6.204   5.266 -1.1853  0.5662  0.2483
 4438TIP3    H234806   3.891   6.076   5.278  1.4257  2.0748 -0.5441
 4439TIP3   OH234807   4.819   0.041  14.649 -0.0887  0.0763 -0.4261
 4439TIP3    H134808   4.872   0.013  14.575  0.1193 -0.2212 -0.1694
 4439TIP3    H234809   4.729   0.044  14.615  0.0013 -0.0945 -0.6782
 4440TIP3   OH234810   6.650   5.941  16.934  0.4694 -0.3246  0.2287
 4440TIP3    H134811   6.582   5.954  16.867  1.9692 -1.3371 -1.5979
 4440TIP3    H234812   6.724   5.993  16.903  0.9818 -0.2574  1.4965
 4441TIP3   OH234813   5.002   2.577  13.843 -0.4261  0.2892  0.4203
 4441TIP3    H134814   5.018   2.487  13.814  1.5267  0.7240 -0.0459
 4441TIP3    H234815   4.916   2.575  13.885 -0.9734 -1.5164 -0.6867
 4442TIP3   OH234816   3.206   0.809   5.042  0.0635  0.2793 -0.2914
 4442TIP3    H134817   3.291   0.795   5.082 -0.8260 -1.3630  1.1200
 4442TIP3    H234818   3.148   0.746   5.084 -1.5945  0.4900 -2.0987
 4443TIP3   OH234819   5.282   1.409  10.860  0.4593  0.0179 -0.0508
 4443TIP3    H134820   5.283   1.477  10.927  1.1763  0.6070 -0.6535
 4443TIP3    H234821   5.312   1.452  10.781 -0.0773 -0.7531 -0.6873
 4444TIP3   OH234822   4.871   5.731   1.296  0.0196  0.7911 -0.2421
 4444TIP3    H134823   4.818   5.713   1.218  2.0763  1.7108 -1.9483
 4444TIP3    H234824   4.890   5.824   1.291  1.4368  0.5683  0.5435
 4445TIP3   OH234825   3.804   4.899  14.749  0.2216  0.0083  0.0845
 4445TIP3    H134826   3.790   4.914  14.656 -1.3536  1.7772  0.5367
 4445TIP3    H234827   3.852   4.977  14.778  0.4989 -0.4155  0.7902
 4446TIP3   OH234828   6.130   2.063   4.755  0.0925 -0.1707 -0.3624
 4446TIP3    H134829   6.149   1.975   4.788 -0.1443 -0.2955 -0.5592
 4446TIP3    H234830   6.052   2.053   4.701 -0.3194  0.2767  0.1304
 4447TIP3   OH234831   6.471   5.977   1.480  0.0890 -0.0712 -0.4583
 4447TIP3    H134832   6.451   6.040   1.550  1.7978 -1.1642  1.1184
 4447TIP3    H234833   6.462   6.027   1.399 -1.1071  1.4909  0.5687
 4448TIP3   OH234834   5.874   6.364   2.111  0.6872 -0.2610  0.0673
 4448TIP3    H134835   5.923   6.405   2.181 -1.1744  1.3623  0.5199
 4448TIP3    H234836   5.883   6.424   2.036 -0.8752  0.3130  0.2953
 4449TIP3   OH234837   1.071   2.352   2.919 -0.3532 -0.0454 -0.4386
 4449TIP3    H134838   1.135   2.297   2.873 -0.1811 -0.4364  0.2551
 4449TIP3    H234839   1.111   2.368   3.004 -0.2483  1.4511 -0.7412
 4450TIP3   OH234840   3.980   6.716   0.272 -0.1153 -0.2016 -0.1712
 4450TIP3    H134841   3.937   6.765   0.343 -1.5123 -2.0958  0.3849
 4450TIP3    H234842   3.907   6.676   0.224  0.8827 -0.0844 -1.8415
 4451TIP3   OH234843   3.633   2.898   1.600 -0.7124 -0.1286  0.2100
 4451TIP3    H134844   3.653   2.986   1.567 -2.8382  0.5449  0.5700
 4451TIP3    H234845   3.538   2.897   1.610 -0.4620 -1.1398  3.9473
 4452TIP3   OH234846   2.194   2.524   2.321  0.1906  0.2758 -0.3192
 4452TIP3    H134847   2.205   2.616   2.347 -0.2633  0.6796 -1.5045
 4452TIP3    H234848   2.271   2.480   2.357  2.7317  1.9004 -3.2866
 4453TIP3   OH234849   0.068   5.762  11.721 -0.6696 -0.1426 -0.1902
 4453TIP3    H134850  -0.021   5.796  11.725 -0.5843  0.0000  0.5340
 4453TIP3    H234851   0.123   5.834  11.750 -0.2666 -0.0798 -1.0671
 4454TIP3   OH234852   4.607   5.555  13.138  0.3830 -0.2454  0.0695
 4454TIP3    H134853   4.526   5.603  13.152  0.0793 -0.3247 -1.2676
 4454TIP3    H234854   4.657   5.609  13.077  1.0088 -0.5587  0.2929
 4455TIP3   OH234855   2.262   3.627   6.369 -0.3010 -0.0799  0.6499
 4455TIP3    H134856   2.187   3.651   6.423  0.2877  0.1183  1.3916
 4455TIP3    H234857   2.244   3.536   6.344  0.0153 -0.6114  2.2425
 4456TIP3   OH234858   5.571   1.317   0.015  0.2462  0.3862  0.4862
 4456TIP3    H134859   5.605   1.395   0.058  0.3612 -0.6840  2.4139
 4456TIP3    H234860   5.481   1.340  -0.010 -0.1912  0.7113  2.2637
 4457TIP3   OH234861   1.066   3.488   0.848 -0.3080  0.2258  0.4754
 4457TIP3    H134862   1.065   3.581   0.874  0.0250  0.7588 -1.2710
 4457TIP3    H234863   0.974   3.462   0.849 -0.2175 -0.4681  4.2246
 4458TIP3   OH234864   6.532   1.517  12.200  0.9393 -0.3733  0.1741
 4458TIP3    H134865   6.556   1.446  12.141 -0.3119  0.9557 -2.0442
 4458TIP3    H234866   6.604   1.579  12.193  0.0648  0.5104 -1.2256
 4459TIP3   OH234867   3.205   5.001   3.645  0.4012 -0.3499  0.1684
 4459TIP3    H134868   3.131   4.998   3.586  0.3137 -2.4463  0.3131
 4459TIP3    H234869   3.182   4.942   3.716  1.8947 -0.4651  0.6036
 4460TIP3   OH234870   6.482   4.377   1.102  0.3027  0.0865 -0.5930
 4460TIP3    H134871   6.517   4.334   1.180  0.2894  1.2168  0.0626
 4460TIP3    H234872   6.415   4.318   1.069 -0.8944  0.3485  1.2427
 4461TIP3   OH234873   0.744   2.711  12.467 -0.2842 -0.3249 -0.5064
 4461TIP3    H134874   0.667   2.654  12.465  0.1526 -0.9254 -0.4722
 4461TIP3    H234875   0.759   2.733  12.375 -2.1496  2.1009 -0.3406
 4462TIP3   OH234876   3.670   5.822  14.440  0.1168 -0.2183 -1.3319
 4462TIP3    H134877   3.691   5.742  14.487  0.5980 -0.4727 -1.9678
 4462TIP3    H234878   3.742   5.832  14.377  0.4182  1.0598 -0.8247
 4463TIP3   OH234879   2.166   1.687   3.244 -0.1997  0.2702 -0.0475
 4463TIP3    H134880   2.123   1.674   3.328 -0.2048 -0.5016 -0.1654
 4463TIP3    H234881   2.237   1.748   3.263  0.0547 -0.2103  0.6051
 4464TIP3   OH234882   3.707   5.914   5.422 -0.1534  0.2362 -0.3964
 4464TIP3    H134883   3.632   5.963   5.457 -1.2980 -0.8361 -1.2773
 4464TIP3    H234884   3.764   5.982   5.384  0.2906  1.2521  1.9204
 4465TIP3   OH234885   0.181   3.329   4.122 -0.0782 -0.4108  0.0453
 4465TIP3    H134886   0.218   3.247   4.154 -0.4744 -1.0092 -0.9557
 4465TIP3    H234887   0.236   3.398   4.160 -0.1310 -1.0972  1.4081
 4466TIP3   OH234888   6.798   2.281  11.274  0.4237  0.1457  0.3157
 4466TIP3    H134889   6.763   2.275  11.363  0.2775 -0.3748  0.2254
 4466TIP3    H234890   6.856   2.357  11.277  1.6929 -0.7999  1.3188
 4467TIP3   OH234891   1.041   5.799   0.655 -0.6369 -0.0320 -0.2331
 4467TIP3    H134892   0.962   5.834   0.695 -2.1498 -2.2036 -1.1482
 4467TIP3    H234893   1.047   5.709   0.688  1.2179 -0.0582 -0.5311
 4468TIP3   OH234894   1.081   5.685   2.739 -0.2252  0.0396 -0.1367
 4468TIP3    H134895   1.022   5.654   2.671  0.7239 -0.1590 -0.8936
 4468TIP3    H234896   1.062   5.629   2.815  0.3802 -1.3915 -1.0018
 4469TIP3   OH234897   6.438   5.839   0.668  0.5252  0.6325 -0.1910
 4469TIP3    H134898   6.438   5.910   0.603 -0.5379  1.5389  0.7569
 4469TIP3    H234899   6.502   5.776   0.634  0.6853  1.5151 -1.6290
 4470TIP3   OH234900   4.334   6.358   3.651  0.0342  0.5777  0.1530
 4470TIP3    H134901   4.305   6.395   3.735 -0.9657  0.4051 -0.0964
 4470TIP3    H234902   4.291   6.273   3.647  3.7357 -1.5730  1.5664
 4471TIP3   OH234903   5.897   6.583  10.533  0.3796 -0.2142 -0.1314
 4471TIP3    H134904   5.915   6.489  10.538  2.1470 -0.0076 -1.5019
 4471TIP3    H234905   5.818   6.595  10.586 -1.8489 -2.9336 -2.4947
 4472TIP3   OH234906   1.015   2.477  16.752  0.0383 -0.4076 -0.5375
 4472TIP3    H134907   1.097   2.525  16.739 -0.6208  0.7889 -0.4861
 4472TIP3    H234908   0.971   2.525  16.822 -1.8350  0.5796 -2.2588
 4473TIP3   OH234909   6.621   3.592   3.061 -0.5271  0.0653 -0.2083
 4473TIP3    H134910   6.713   3.568   3.046  0.6408  1.5209  3.4665
 4473TIP3    H234911   6.603   3.659   2.995  1.7115  1.0562  0.0685
 4474TIP3   OH234912   3.050   6.688   2.079 -0.6560  0.5750  0.1077
 4474TIP3    H134913   3.015   6.775   2.058  2.1260  2.0167  0.9241
 4474TIP3    H234914   3.108   6.667   2.005 -1.2029 -0.5660 -0.0205
 4475TIP3   OH234915   6.303   3.815  11.505 -0.7475  0.0471  0.5905
 4475TIP3    H134916   6.252   3.751  11.456 -1.1665  0.0058  1.0706
 4475TIP3    H234917   6.256   3.897  11.494 -0.4591  0.1831  0.3518
 4476TIP3   OH234918   1.787   3.471   1.576  0.3398  0.3839 -0.1405
 4476TIP3    H134919   1.762   3.390   1.530  0.2859  0.1188  0.3439
 4476TIP3    H234920   1.761   3.455   1.667 -0.1560  1.1531 -0.1361
 4477TIP3   OH234921   0.563   6.852   4.029  0.3386 -0.5551 -0.2860
 4477TIP3    H134922   0.543   6.941   3.998  0.6862 -0.0873  0.7974
 4477TIP3    H234923   0.551   6.797   3.951 -1.4091  0.2070 -0.6047
 4478TIP3   OH234924   2.809   6.541  16.179 -0.2144  0.4914  0.0401
 4478TIP3    H134925   2.781   6.518  16.267 -1.4258 -1.5068 -0.8154
 4478TIP3    H234926   2.753   6.615  16.154  0.6617  1.5795  1.1824
 4479TIP3   OH234927   0.285   6.025   0.774  0.0732 -0.2369 -0.0920
 4479TIP3    H134928   0.322   6.046   0.688 -1.4702  1.5678 -0.3613
 4479TIP3    H234929   0.356   6.046   0.836  0.0373  1.8587 -0.6877
 4480TIP3   OH234930   2.839   1.097  11.208 -0.4997  0.0589  0.4279
 4480TIP3    H134931   2.929   1.123  11.187 -0.7087  1.5215  1.2241
 4480TIP3    H234932   2.816   1.036  11.138  1.7226 -1.8274  1.2108
 4481TIP3   OH234933   6.464   1.068   3.733  0.3127  0.2790  0.0093
 4481TIP3    H134934   6.483   1.155   3.768  0.4703 -0.2681  1.3541
 4481TIP3    H234935   6.371   1.055   3.749  0.0096  0.6817 -1.3357
 4482TIP3   OH234936   5.844   3.260   2.730 -0.3996  0.2527  0.3958
 4482TIP3    H134937   5.834   3.218   2.816 -0.5173 -0.3983  0.0750
 4482TIP3    H234938   5.914   3.210   2.688  0.6968  1.5089  0.6626
 4483TIP3   OH234939   5.178   2.215  14.667 -0.0975 -0.0722 -0.4186
 4483TIP3    H134940   5.141   2.269  14.597  0.9088  0.4100 -0.6094
 4483TIP3    H234941   5.104   2.191  14.722 -0.6799  0.8601 -0.7788
 4484TIP3   OH234942   6.543   4.912  15.404  0.3662 -0.1564 -0.8632
 4484TIP3    H134943   6.467   4.958  15.440 -0.6724 -1.6562 -1.0297
 4484TIP3    H234944   6.506   4.832  15.367  2.3728 -2.4693  1.7694
 4485TIP3   OH234945   5.873   1.240  10.511 -0.2427  0.5654  0.2711
 4485TIP3    H134946   5.872   1.334  10.526 -0.5165  1.2470 -3.1022
 4485TIP3    H234947   5.966   1.217  10.507 -0.1661  0.8978  0.1324
 4486TIP3   OH234948   3.129   4.732  15.687  0.1328 -0.2781  0.5334
 4486TIP3    H134949   3.134   4.650  15.736  1.8924 -1.7423 -1.8933
 4486TIP3    H234950   3.048   4.725  15.637 -0.0325 -0.2533  0.7970
 4487TIP3   OH234951   4.656   4.230  16.154  0.4041 -0.7765  0.4118
 4487TIP3    H134952   4.690   4.169  16.221  0.3695  1.0413  2.1782
 4487TIP3    H234953   4.627   4.306  16.204 -1.3336 -0.0607 -1.5519
 4488TIP3   OH234954   6.262   1.766   6.313  0.1705  0.8356  0.0480
 4488TIP3    H134955   6.267   1.861   6.298 -0.2897  0.9742  0.7333
 4488TIP3    H234956   6.288   1.728   6.230 -1.2547  1.5740 -0.7916
 4489TIP3   OH234957   3.870   0.571  12.464 -0.1805 -0.2827  0.5018
 4489TIP3    H134958   3.873   0.646  12.404 -1.2495  0.5579  1.4775
 4489TIP3    H234959   3.777   0.556  12.480  0.0057 -1.9192  0.2335
 4490TIP3   OH234960   6.364   4.296   4.655 -0.2975 -0.7120 -0.4123
 4490TIP3    H134961   6.320   4.226   4.606  0.5896 -0.8862 -0.9759
 4490TIP3    H234962   6.365   4.265   4.745  0.8096 -1.8105 -0.7850
 4491TIP3   OH234963   2.908   0.331  15.926  0.1179 -0.3556 -0.1511
 4491TIP3    H134964   2.931   0.247  15.965 -0.1793 -1.0223 -1.3735
 4491TIP3    H234965   2.984   0.355  15.873 -0.5302 -0.8309 -1.3539
 4492TIP3   OH234966   2.614   3.157   2.650  1.0293 -0.3723 -0.8097
 4492TIP3    H134967   2.613   3.250   2.674 -0.3547 -0.5898  0.0645
 4492TIP3    H234968   2.582   3.111   2.727  1.1069 -1.5315 -1.4404
 4493TIP3   OH234969   5.341   3.804   1.352 -0.4476  0.6876 -0.6145
 4493TIP3    H134970   5.254   3.798   1.311 -0.1779 -2.4599 -0.9792
 4493TIP3    H234971   5.339   3.738   1.422  1.0466  1.9184  0.6643
 4494TIP3   OH234972   5.458   0.447   2.616 -0.8414 -0.1076  0.1729
 4494TIP3    H134973   5.394   0.483   2.677 -2.1587 -0.9514 -0.6707
 4494TIP3    H234974   5.447   0.499   2.536 -1.4967 -1.1679 -0.4485
 4495TIP3   OH234975   0.842   3.796  12.505  0.1629  0.4757  0.1409
 4495TIP3    H134976   0.799   3.758  12.428  0.8840  1.8659 -0.9979
 4495TIP3    H234977   0.791   3.764  12.579 -0.6572 -0.7724 -0.9245
 4496TIP3   OH234978   6.456   5.137  16.567 -0.6243  0.0903 -0.1285
 4496TIP3    H134979   6.403   5.080  16.511  0.2933 -1.7068  0.7628
 4496TIP3    H234980   6.451   5.097  16.653  0.9610  0.7398  0.2908
 4497TIP3   OH234981   4.301   3.828  16.784  0.1527  0.4307 -0.0128
 4497TIP3    H134982   4.346   3.801  16.864  1.5474  0.6762 -0.6889
 4497TIP3    H234983   4.234   3.889  16.815  0.7703  0.6481  0.9636
 4498TIP3   OH234984   6.223   6.007  15.929 -0.4346 -0.0682 -0.1007
 4498TIP3    H134985   6.189   5.991  15.841 -0.5240  0.0686 -0.0899
 4498TIP3    H234986   6.284   6.081  15.918  1.7614 -1.8288 -0.5833
 4499TIP3   OH234987   1.949   2.122   2.997 -0.0600  0.0782  0.0763
 4499TIP3    H134988   1.985   2.114   2.909  0.8619  1.6324  0.2767
 4499TIP3    H234989   1.994   2.054   3.047  0.9464  0.5015 -0.2121
 4500TIP3   OH234990   0.021   2.603   0.353  0.5912 -0.6927  0.3031
 4500TIP3    H134991   0.051   2.627   0.441  0.1048 -1.7313  0.7577
 4500TIP3    H234992   0.080   2.652   0.294  0.7591  0.2068  1.1891
 4501TIP3   OH234993   2.284   5.443   5.231  0.0731 -0.3540  0.2515
 4501TIP3    H134994   2.353   5.411   5.290 -1.3453 -0.9871  1.6273
 4501TIP3    H234995   2.264   5.368   5.174  1.0963  0.1042 -0.7518
 4502TIP3   OH234996   3.554   3.414   5.071  0.8840 -0.2324 -0.6037
 4502TIP3    H134997   3.572   3.460   4.989  0.1409 -1.9388 -1.7859
 4502TIP3    H234998   3.575   3.477   5.140  1.7633  1.1640 -2.0973
 4503TIP3   OH234999   2.502   4.359   3.205  0.0744 -0.1940 -0.0638
 4503TIP3    H135000   2.439   4.407   3.151 -1.2231 -2.3837 -0.6355
 4503TIP3    H235001   2.449   4.294   3.252  1.6797 -0.8827  0.9045
 4504TIP3   OH235002   0.172   3.485   1.595 -0.3214 -0.2112 -0.0052
 4504TIP3    H135003   0.104   3.471   1.661 -1.4261  1.2206 -0.8054
 4504TIP3    H235004   0.129   3.468   1.511  0.1808  1.1282 -0.5513
 4505TIP3   OH235005   1.783   3.787  12.913  0.3729 -0.1028 -0.1460
 4505TIP3    H135006   1.715   3.822  12.855  0.0383  0.2592  0.4563
 4505TIP3    H235007   1.736   3.763  12.993  1.1911  1.7293  0.9331
 4506TIP3   OH235008   4.754   5.691   4.561  0.2104 -0.4076 -0.7134
 4506TIP3    H135009   4.832   5.650   4.601 -0.8349 -1.2300  0.5642
 4506TIP3    H235010   4.719   5.747   4.631 -0.4622 -0.2055 -1.2079
 4507TIP3   OH235011   2.463   5.606   0.846  0.0837  0.6254  0.3892
 4507TIP3    H135012   2.508   5.533   0.804 -1.8008  0.3064 -1.2357
 4507TIP3    H235013   2.500   5.684   0.804  1.4337  0.6038  1.4635
 4508TIP3   OH235014   6.184   3.840  14.389  0.0183  0.2743  0.4014
 4508TIP3    H135015   6.187   3.934  14.408 -2.3010  0.5472 -0.2538
 4508TIP3    H235016   6.124   3.804  14.454  1.6841 -1.0049  1.3244
 4509TIP3   OH235017   3.006   5.023   4.445  0.7426 -0.6572  0.3733
 4509TIP3    H135018   2.960   5.082   4.506  0.8268  1.0573 -1.1441
 4509TIP3    H235019   3.098   5.048   4.451  0.6016  0.3685 -1.3027
 4510TIP3   OH235020   4.376   5.571  13.976 -0.1253  0.7350  0.0033
 4510TIP3    H135021   4.435   5.496  13.981  1.2028  1.8249  2.2367
 4510TIP3    H235022   4.339   5.566  13.888  0.5717 -2.0135 -0.2245
 4511TIP3   OH235023   6.215   4.251  15.669 -0.1589  0.1600 -0.3588
 4511TIP3    H135024   6.292   4.255  15.725 -0.7323 -0.3490  0.4907
 4511TIP3    H235025   6.162   4.326  15.696  0.4576  1.0906 -1.6139
 4512TIP3   OH235026   4.829   6.581   6.421  0.1130  0.5899  0.1257
 4512TIP3    H135027   4.793   6.566   6.508  0.2964 -1.5194 -0.1130
 4512TIP3    H235028   4.924   6.576   6.432  0.3425  3.3270  0.2576
 4513TIP3   OH235029   3.633   4.630  13.124  0.2124  0.0129 -0.8186
 4513TIP3    H135030   3.604   4.704  13.177  1.1455  0.6892 -1.2086
 4513TIP3    H235031   3.714   4.601  13.166  0.5890  0.1111 -1.4658
 4514TIP3   OH235032   0.447   2.221  13.015 -0.0326 -0.2445 -0.2213
 4514TIP3    H135033   0.523   2.269  12.982 -0.5955 -0.7031 -2.3416
 4514TIP3    H235034   0.455   2.227  13.111  1.4797  1.5447 -0.3856
 4515TIP3   OH235035   5.939   5.694  16.991 -0.0342 -0.3264 -0.1767
 4515TIP3    H135036   5.906   5.784  16.991  0.9907  0.0759 -1.2428
 4515TIP3    H235037   5.917   5.660  16.904  1.1372 -0.4939 -0.4238
 4516TIP3   OH235038   0.426   1.976   0.748 -0.1811  0.3330 -0.2422
 4516TIP3    H135039   0.405   2.069   0.751  1.2303  0.6547  0.2682
 4516TIP3    H235040   0.351   1.936   0.704 -1.2823  1.5622  0.4625
 4517TIP3   OH235041   4.435   1.175  13.871  0.9374  0.1851  0.0173
 4517TIP3    H135042   4.457   1.099  13.926  1.8250  0.3450 -0.1090
 4517TIP3    H235043   4.351   1.151  13.831  0.8024 -0.3847  0.6106
 4518TIP3   OH235044   1.847   1.778  14.540  0.7802  0.5330 -0.4353
 4518TIP3    H135045   1.856   1.873  14.547  1.5250  0.4604 -0.2452
 4518TIP3    H235046   1.935   1.745  14.560  0.1285 -0.2850  1.2790
 4519TIP3   OH235047   2.360   4.548  16.152 -0.2554 -0.1645  0.1740
 4519TIP3    H135048   2.406   4.529  16.070 -1.1430  1.0950 -0.6489
 4519TIP3    H235049   2.427   4.536  16.220 -0.2833 -4.6326 -0.2590
 4520TIP3   OH235050   3.354   6.348   5.420 -0.1530  0.2706  0.4401
 4520TIP3    H135051   3.394   6.265   5.444  3.1923  1.3627 -0.7863
 4520TIP3    H235052   3.300   6.372   5.496 -2.0167 -3.3445  0.4385
 4521TIP3   OH235053   5.185   3.113   4.457  0.3588 -0.1608  0.1716
 4521TIP3    H135054   5.167   3.175   4.528 -1.1169 -1.9340  1.4516
 4521TIP3    H235055   5.138   3.034   4.483 -0.1979 -0.9054 -2.7960
 4522TIP3   OH235056   0.685   0.723  10.291  0.4604  0.2261  0.3465
 4522TIP3    H135057   0.590   0.718  10.291  0.4806 -0.6087  1.5464
 4522TIP3    H235058   0.709   0.735  10.383  1.5456 -0.1907  0.1393
 4523TIP3   OH235059   0.120   5.867   6.125 -0.0953 -0.4978  0.1746
 4523TIP3    H135060   0.116   5.963   6.129  1.6119 -0.4288  1.7618
 4523TIP3    H235061   0.058   5.837   6.191  0.4804 -0.4056  0.7769
 4524TIP3   OH235062   3.750   0.950   1.500  0.3468  0.0645  0.8424
 4524TIP3    H135063   3.713   0.893   1.433 -1.2836 -0.8705  2.4569
 4524TIP3    H235064   3.748   0.898   1.580  0.6322  1.7163  1.9760
 4525TIP3   OH235065   3.258   2.470  13.427 -0.3457 -0.1040  0.0591
 4525TIP3    H135066   3.285   2.467  13.519 -0.6313 -0.2773  0.1400
 4525TIP3    H235067   3.299   2.394  13.387 -1.0521 -0.6119  0.2792
 4526TIP3   OH235068   0.494   0.358  16.838  0.1852  0.6651  0.1313
 4526TIP3    H135069   0.477   0.383  16.747 -0.5050 -0.4561 -0.0644
 4526TIP3    H235070   0.545   0.277  16.832 -2.0830 -0.9102  0.6743
 4527TIP3   OH235071   0.320   2.799   4.562  0.0919 -0.4777 -0.1129
 4527TIP3    H135072   0.246   2.839   4.517  0.4997  1.4814  0.8404
 4527TIP3    H235073   0.290   2.788   4.653  1.1007  0.8061  0.4040
 4528TIP3   OH235074   0.895   6.441   5.915  1.0062 -0.6207  0.1886
 4528TIP3    H135075   0.943   6.489   5.982 -0.7045 -0.4185  1.3468
 4528TIP3    H235076   0.906   6.493   5.835  1.6769  0.0620  0.7131
 4529TIP3   OH235077   4.093   0.753  15.974  0.5760  0.2342  0.5603
 4529TIP3    H135078   4.046   0.673  15.997  2.5103 -0.7472  1.3274
 4529TIP3    H235079   4.092   0.805  16.054  1.2839 -0.0724  0.7807
 4530TIP3   OH235080   3.169   3.796  16.676 -0.0693 -0.0577  0.2717
 4530TIP3    H135081   3.092   3.749  16.707 -0.5050 -0.5526 -1.4397
 4530TIP3    H235082   3.208   3.738  16.611  0.5185  1.0913 -0.4389
 4531TIP3   OH235083   6.121   3.234  15.089  0.0061 -0.1084 -0.5024
 4531TIP3    H135084   6.164   3.319  15.097  1.8533 -0.9977 -0.3928
 4531TIP3    H235085   6.045   3.251  15.033 -0.5292  1.8723  0.7048
 4532TIP3   OH235086   0.009   0.017   4.344 -0.3522  0.1265 -0.5053
 4532TIP3    H135087  -0.058   0.063   4.293 -1.1568 -1.3856 -0.8711
 4532TIP3    H235088   0.090   0.030   4.295 -1.0519 -1.0156 -2.0202
 4533TIP3   OH235089   3.844   6.306  15.461 -0.3000 -0.1132  0.4848
 4533TIP3    H135090   3.753   6.279  15.464 -0.3966  0.1682  0.1357
 4533TIP3    H235091   3.842   6.397  15.430  0.1137 -0.1843  0.2366
 4534TIP3   OH235092   4.735   4.031   6.201  0.3706  0.7267 -0.0786
 4534TIP3    H135093   4.752   4.030   6.295 -2.1191 -1.1144  0.4606
 4534TIP3    H235094   4.718   3.939   6.178  0.3525  1.1941 -2.2125
 4535TIP3   OH235095   5.750   3.004   0.850 -0.1735  0.1058 -0.4755
 4535TIP3    H135096   5.841   2.990   0.879 -0.6951 -1.3723  0.5270
 4535TIP3    H235097   5.736   3.098   0.864  1.2475  0.4051 -0.8140
 4536TIP3   OH235098   1.350   4.012  11.452 -0.5617  0.1559 -0.3157
 4536TIP3    H135099   1.363   4.098  11.493  0.5462 -1.2750  2.5897
 4536TIP3    H235100   1.259   3.990  11.469 -0.3608 -0.0101  0.5714
 4537TIP3   OH235101   1.509   0.995  14.449  0.1451  0.0998 -0.5217
 4537TIP3    H135102   1.443   0.955  14.392  0.7556 -0.2797 -0.9757
 4537TIP3    H235103   1.501   0.948  14.532  0.6307 -0.7573 -0.9458
 4538TIP3   OH235104   3.690   6.206   4.238 -0.2408 -0.3445  0.1699
 4538TIP3    H135105   3.647   6.120   4.236  1.1140 -1.0487  0.4713
 4538TIP3    H235106   3.713   6.223   4.147 -1.9467  0.4722 -0.1416
 4539TIP3   OH235107   5.796   1.340   2.060  0.2088 -0.5201 -0.1171
 4539TIP3    H135108   5.817   1.301   2.145  0.8265 -0.7401 -0.3639
 4539TIP3    H235109   5.739   1.276   2.018 -1.3282  0.2536  0.7131
 4540TIP3   OH235110   4.479   2.441  11.943 -0.2929 -0.2724  0.2564
 4540TIP3    H135111   4.413   2.494  11.988 -0.0716  0.8046 -0.6488
 4540TIP3    H235112   4.537   2.410  12.013 -2.4841 -2.4054  1.2850
 4541TIP3   OH235113   0.025   0.543   6.150 -0.0976  0.2108 -0.6219
 4541TIP3    H135114  -0.015   0.591   6.077 -0.1520  1.6840  0.3323
 4541TIP3    H235115  -0.025   0.569   6.227  2.6105  2.1752  0.6442
 4542TIP3   OH235116   5.215   5.289   6.117  0.2686  0.0284  0.5883
 4542TIP3    H135117   5.307   5.283   6.089  0.1820  0.9398  0.0887
 4542TIP3    H235118   5.220   5.321   6.207  0.5035 -1.8983  1.3174
 4543TIP3   OH235119   1.905   3.362  16.926 -0.2267  0.1680 -0.1959
 4543TIP3    H135120   1.872   3.343  17.013  0.6105  0.2732  0.1545
 4543TIP3    H235121   1.828   3.388  16.876 -0.5826  1.1022  0.7916
 4544TIP3   OH235122   4.287   4.535  15.719  0.0455 -0.3396  0.3756
 4544TIP3    H135123   4.197   4.522  15.691  0.0863  0.2462 -0.0267
 4544TIP3    H235124   4.335   4.558  15.639  0.4923 -0.3378  0.6361
 4545TIP3   OH235125   2.628   3.723  13.823 -0.0965  0.8032  0.6683
 4545TIP3    H135126   2.669   3.637  13.824 -1.4880  0.0513 -1.0867
 4545TIP3    H235127   2.650   3.758  13.737  0.7388  2.3908  1.4867
 4546TIP3   OH235128   4.708   6.726   1.596  0.0493  0.5628 -0.7153
 4546TIP3    H135129   4.673   6.641   1.621 -1.7682  1.2698 -0.7049
 4546TIP3    H235130   4.792   6.732   1.641 -0.2808 -0.7930  0.1209
 4547TIP3   OH235131   2.066   0.742   1.375  0.2989  0.7246  0.3758
 4547TIP3    H135132   2.042   0.813   1.435  0.6140 -0.3086  1.7617
 4547TIP3    H235133   2.161   0.744   1.372  0.2667  1.8323 -1.4554
 4548TIP3   OH235134   5.350   1.112   4.231  0.4067 -0.4472 -0.4044
 4548TIP3    H135135   5.418   1.179   4.229  0.3660 -0.3531  0.7539
 4548TIP3    H235136   5.327   1.099   4.139  0.8011  0.7315 -0.6952
 4549TIP3   OH235137   6.609   4.059  14.855 -0.5015  0.0313  0.3219
 4549TIP3    H135138   6.525   4.020  14.879 -0.7737  1.7694  2.5263
 4549TIP3    H235139   6.591   4.153  14.848  0.8696  0.2292 -1.1897
 4550TIP3   OH235140   1.537   3.674  13.427  0.2571 -0.8191 -0.3296
 4550TIP3    H135141   1.571   3.754  13.467 -1.2806 -1.0668  1.6048
 4550TIP3    H235142   1.593   3.605  13.463  0.3573 -0.8175 -0.4798
 4551TIP3   OH235143   0.378   3.996   2.074  0.2163 -0.1742  0.2781
 4551TIP3    H135144   0.299   4.042   2.103 -1.7566 -0.4129 -3.9415
 4551TIP3    H235145   0.353   3.904   2.073  0.4910 -0.2600 -0.9896
 4552TIP3   OH235146   5.987   6.094  10.864 -0.6030 -0.2676  0.4886
 4552TIP3    H135147   5.892   6.089  10.868 -0.5793 -0.1435  1.2174
 4552TIP3    H235148   6.017   6.053  10.945 -0.0839  1.1274  1.0134
 4553TIP3   OH235149   3.689   6.084  14.872  0.5332 -0.6787 -0.1817
 4553TIP3    H135150   3.626   6.119  14.935  0.3383 -0.4754 -0.4902
 4553TIP3    H235151   3.690   6.148  14.801  1.4053 -0.4546  0.0165
 4554TIP3   OH235152   4.913   4.620  13.473  0.4922 -0.2760 -0.4030
 4554TIP3    H135153   4.966   4.640  13.396 -0.4408  0.5303 -0.8569
 4554TIP3    H235154   4.952   4.671  13.544  0.9450 -0.4998 -0.4890
 4555TIP3   OH235155   3.662   2.819  10.776  0.0242 -0.1967 -0.7918
 4555TIP3    H135156   3.651   2.724  10.765  2.0376 -0.4757 -0.8548
 4555TIP3    H235157   3.751   2.836  10.744  0.3360  1.4501  0.7852
 4556TIP3   OH235158   0.474   5.586  11.320  0.2841  0.5177  0.4823
 4556TIP3    H135159   0.493   5.511  11.264 -0.9741 -0.8025  1.7131
 4556TIP3    H235160   0.525   5.571  11.400  0.1867  1.0778  0.6579
 4557TIP3   OH235161   0.228   4.562  14.907  0.4623  0.2460  0.1721
 4557TIP3    H135162   0.298   4.497  14.895  1.9929  2.2370 -3.1546
 4557TIP3    H235163   0.274   4.646  14.910 -1.6738  1.5571 -1.0867
 4558TIP3   OH235164   4.241   5.247  13.858  0.1085 -0.4221  0.2102
 4558TIP3    H135165   4.272   5.163  13.824 -0.2724 -0.7393  0.6301
 4558TIP3    H235166   4.203   5.291  13.782  1.2331 -0.1804 -0.2346
 4559TIP3   OH235167   2.113   1.436  13.359  0.1793 -0.2623 -0.4852
 4559TIP3    H135168   2.022   1.416  13.336  0.4342 -0.6192 -1.2240
 4559TIP3    H235169   2.140   1.364  13.415 -0.1411  0.0943  0.1301
 4560TIP3   OH235170   2.920   4.690   6.908  0.0691 -0.4231  0.1010
 4560TIP3    H135171   2.999   4.648   6.943  0.0176 -1.5769 -1.0787
 4560TIP3    H235172   2.953   4.768   6.863  0.6627 -1.2767 -1.0046
 4561TIP3   OH235173   1.083   2.785  13.275  0.1236  0.3151  0.1803
 4561TIP3    H135174   1.096   2.819  13.363 -1.0819  2.7035 -0.4539
 4561TIP3    H235175   1.162   2.734  13.256  1.0468  0.9494  2.1078
 4562TIP3   OH235176   1.006   0.559  14.138 -0.0829 -0.4751 -0.4155
 4562TIP3    H135177   1.074   0.492  14.135  0.0655 -0.3483  0.0296
 4562TIP3    H235178   0.948   0.538  14.065  1.5049  0.5451 -2.0365
 4563TIP3   OH235179   4.044   2.355  13.618  0.7299 -0.0135 -0.5288
 4563TIP3    H135180   4.112   2.288  13.626 -0.9724 -2.1349 -2.6544
 4563TIP3    H235181   3.983   2.336  13.689  0.8699  0.0894 -0.3784
 4564TIP3   OH235182   0.341   2.452   2.720 -0.0441 -0.0217 -0.1062
 4564TIP3    H135183   0.352   2.547   2.725  0.2527 -0.0641  0.0652
 4564TIP3    H235184   0.280   2.431   2.791 -0.3410  0.0766 -0.3322
 4565TIP3   OH235185   0.252   2.848  16.635  0.2064 -0.5260 -0.1980
 4565TIP3    H135186   0.235   2.940  16.613  0.3095 -0.6341 -0.7276
 4565TIP3    H235187   0.260   2.804  16.551  0.7479 -0.9138  0.0517
 4566TIP3   OH235188   3.694   1.307   4.582 -0.2060  0.4945  0.6999
 4566TIP3    H135189   3.670   1.376   4.521 -3.4002  0.1683  1.4199
 4566TIP3    H235190   3.730   1.238   4.527  2.5200  2.3615 -0.0896
 4567TIP3   OH235191   1.852   0.041   1.943 -0.1550  0.2137 -0.1086
 4567TIP3    H135192   1.908   0.039   2.020 -0.7834  1.1079  0.3890
 4567TIP3    H235193   1.912   0.034   1.869  0.4713 -0.4226  0.4475
 4568TIP3   OH235194   0.887   3.924   4.147 -0.2887 -0.0265  0.5068
 4568TIP3    H135195   0.906   3.842   4.100  0.4868 -0.0088  0.7752
 4568TIP3    H235196   0.926   3.911   4.233  0.5128  0.9216  0.3009
 4569TIP3   OH235197   6.250   4.006   2.988 -0.3887  0.3497 -0.2664
 4569TIP3    H135198   6.298   4.037   3.064  0.5778  2.2063 -1.5436
 4569TIP3    H235199   6.307   3.939   2.950 -0.7338 -0.3648  0.4529
 4570TIP3   OH235200   3.046   6.408  14.832  0.6954 -0.0793  0.0554
 4570TIP3    H135201   3.058   6.410  14.737  0.0444  0.9001 -0.0265
 4570TIP3    H235202   2.954   6.385  14.844  0.0823  2.2699  0.3456
 4571TIP3   OH235203   6.224   2.980   0.640 -0.2037  0.0311 -0.2642
 4571TIP3    H135204   6.301   2.975   0.697  0.6192 -0.4197 -1.3607
 4571TIP3    H235205   6.218   2.893   0.601  0.1580  0.7273 -1.9655
 4572TIP3   OH235206   1.009   3.219   2.833 -0.3299  0.2729  0.1880
 4572TIP3    H135207   0.914   3.217   2.821 -0.3599  2.1556 -0.1298
 4572TIP3    H235208   1.042   3.263   2.755  0.7119  0.4918  0.7380
 4573TIP3   OH235209   3.116   1.636  12.782  0.6305  0.0538 -0.0752
 4573TIP3    H135210   3.066   1.705  12.826 -1.4592 -1.5888  0.3181
 4573TIP3    H235211   3.185   1.682  12.734 -2.9119  2.8864 -3.0545
 4574TIP3   OH235212   3.991   0.258   4.956 -0.4583  0.3317 -0.2637
 4574TIP3    H135213   3.973   0.317   4.884 -0.7879  0.8466  0.2342
 4574TIP3    H235214   4.008   0.173   4.915  1.7819  1.1327 -1.1338
 4575TIP3   OH235215   1.139   6.578   5.966  0.2667 -0.2982 -0.0568
 4575TIP3    H135216   1.232   6.560   5.982  0.3510  0.0831 -0.1073
 4575TIP3    H235217   1.135   6.674   5.957 -0.6434  0.1519  3.5538
 4576TIP3   OH235218   4.735   5.157  13.932  0.2720 -0.4903  0.1761
 4576TIP3    H135219   4.811   5.153  13.990  0.3370  0.5498  0.1836
 4576TIP3    H235220   4.767   5.203  13.854 -0.1297 -0.7881 -0.1673
 4577TIP3   OH235221   2.583   0.513  13.930  0.2251 -0.1289  0.0491
 4577TIP3    H135222   2.664   0.485  13.889  0.5090  0.4777  0.1867
 4577TIP3    H235223   2.544   0.575  13.868  0.3841  0.3685  0.4389
 4578TIP3   OH235224   2.439   1.988   4.144 -0.3163 -0.2131 -0.2013
 4578TIP3    H135225   2.389   1.907   4.136 -0.3693 -0.2668  0.6238
 4578TIP3    H235226   2.402   2.032   4.220 -0.3814  0.6622 -0.7255
 4579TIP3   OH235227   0.848   6.160  15.899  0.7565  0.1849 -0.2172
 4579TIP3    H135228   0.905   6.195  15.830 -1.3671  0.5353 -1.9311
 4579TIP3    H235229   0.825   6.237  15.952 -1.8048  1.0845 -2.4032
 4580TIP3   OH235230   3.392   6.650   1.332  1.4173 -0.1309 -0.1644
 4580TIP3    H135231   3.296   6.654   1.332  1.0067 -1.6876  5.7727
 4580TIP3    H235232   3.419   6.739   1.354  1.5271  0.4525 -2.4048
 4581TIP3   OH235233   2.252   5.667   2.613  0.2968 -0.1518  1.0515
 4581TIP3    H135234   2.310   5.649   2.539 -0.8682 -0.5538  0.2000
 4581TIP3    H235235   2.255   5.762   2.623 -1.4543  0.2297 -1.2051
 4582TIP3   OH235236   6.680   5.156  11.565 -0.2289 -0.1057 -0.0348
 4582TIP3    H135237   6.670   5.224  11.632  0.7791 -1.2019  1.3084
 4582TIP3    H235238   6.745   5.192  11.505 -1.1189  0.8839 -0.4350
 4583TIP3   OH235239   1.887   5.137  15.723  0.3545 -0.4255  0.0179
 4583TIP3    H135240   1.907   5.211  15.665 -0.0951  0.3858  0.8686
 4583TIP3    H235241   1.794   5.148  15.745  0.6792 -0.3384  1.4134
 4584TIP3   OH235242   1.948   1.126  17.006  0.1382  0.1661 -0.2254
 4584TIP3    H135243   1.945   1.068  17.082  0.4921 -1.8439 -1.6521
 4584TIP3    H235244   2.034   1.168  17.010  0.6294 -0.8259 -0.1268
 4585TIP3   OH235245   4.137   6.361   2.245  0.1067  0.0967  0.8536
 4585TIP3    H135246   4.119   6.312   2.165  1.3032 -0.6051  1.0047
 4585TIP3    H235247   4.126   6.453   2.218 -0.2956 -0.1550  0.1013
 4586TIP3   OH235248   0.591   4.125   2.648  0.1054 -0.6272  0.4230
 4586TIP3    H135249   0.524   4.078   2.597 -0.3429 -0.5925  0.9628
 4586TIP3    H235250   0.543   4.161   2.722  0.1984  1.7259 -0.5720
 4587TIP3   OH235251   6.181   3.340  10.586 -0.2657  0.4589  0.4292
 4587TIP3    H135252   6.130   3.259  10.588 -1.9384  1.4344 -0.4554
 4587TIP3    H235253   6.168   3.374  10.497  1.9229  0.7862  0.1932
 4588TIP3   OH235254   0.012   0.228   0.172  0.2068 -0.2836 -0.8469
 4588TIP3    H135255   0.022   0.282   0.093  0.7216  0.1309 -0.5023
 4588TIP3    H235256  -0.037   0.283   0.233  1.8315  0.3020 -0.0281
 4589TIP3   OH235257   4.204   3.080  12.948  0.3726  0.0344  0.4069
 4589TIP3    H135258   4.161   3.035  13.020 -0.2597  0.2788  0.1883
 4589TIP3    H235259   4.214   3.013  12.880 -1.4641  0.4320 -0.3016
 4590TIP3   OH235260   0.253   2.567  17.034  0.0325  0.6369  0.1485
 4590TIP3    H135261   0.310   2.622  16.980 -0.1829  1.2239  0.5099
 4590TIP3    H235262   0.299   2.559  17.117 -0.0143  0.3922  0.1541
 4591TIP3   OH235263   3.005   6.815  10.291  0.8151 -0.0150 -0.2634
 4591TIP3    H135264   2.928   6.772  10.255  0.5978  0.9688 -1.0264
 4591TIP3    H235265   2.986   6.909  10.283  1.9334  0.2418 -0.1228
 4592TIP3   OH235266   4.553   6.190  13.187 -0.1384  0.3142 -0.1576
 4592TIP3    H135267   4.643   6.212  13.161 -0.1380 -0.4434 -0.8573
 4592TIP3    H235268   4.499   6.257  13.145 -0.0215 -0.1413 -1.0555
 4593TIP3   OH235269   2.613   1.050   3.560  0.0710  0.1155  0.1455
 4593TIP3    H135270   2.620   0.977   3.499 -0.5419 -0.4557  0.7447
 4593TIP3    H235271   2.702   1.062   3.594 -0.0830 -1.3721  1.1838
 4594TIP3   OH235272   4.083   0.062  12.951  0.1904  0.3647 -0.1160
 4594TIP3    H135273   4.021   0.128  12.920  0.0901  0.6370  0.6488
 4594TIP3    H235274   4.093   0.002  12.877  0.9117  1.6744 -1.1365
 4595TIP3   OH235275   3.342   0.603   0.134 -0.0406  0.3338 -0.1943
 4595TIP3    H135276   3.301   0.535   0.080  1.9701 -1.5011  0.4269
 4595TIP3    H235277   3.433   0.605   0.104  0.9336 -0.1288  2.4438
 4596TIP3   OH235278   2.004   4.180  12.305 -0.3950 -0.1261 -0.3075
 4596TIP3    H135279   1.962   4.262  12.277  1.6927  0.9231 -0.5991
 4596TIP3    H235280   1.971   4.114  12.244 -2.9875  0.1992  0.6158
 4597TIP3   OH235281   5.305   0.304   1.535  0.1451 -0.7825 -0.7753
 4597TIP3    H135282   5.387   0.324   1.581 -0.9342  1.2333  0.3914
 4597TIP3    H235283   5.333   0.259   1.455  2.4252  0.3432 -0.6861
 4598TIP3   OH235284   5.397   1.960   5.251  0.1106  0.0591 -0.1085
 4598TIP3    H135285   5.398   1.970   5.346 -0.0152 -0.4373 -0.0504
 4598TIP3    H235286   5.484   1.928   5.229  0.0152 -0.2070 -0.1107
 4599TIP3   OH235287   5.850   5.442   2.369 -0.6364 -0.4466 -0.1765
 4599TIP3    H135288   5.800   5.520   2.343 -0.6674 -0.8256 -1.3081
 4599TIP3    H235289   5.941   5.465   2.352 -0.4832 -0.0738  1.0580
 4600TIP3   OH235290   2.620   5.360   1.459  0.0327  0.2143 -0.5658
 4600TIP3    H135291   2.643   5.271   1.488  0.6397  0.3398 -0.6509
 4600TIP3    H235292   2.585   5.348   1.371  2.0003  0.2542 -1.3976
 4601TIP3   OH235293   3.292   5.221   3.224 -0.1735 -0.1111 -0.0402
 4601TIP3    H135294   3.381   5.192   3.245  0.0694  0.1799 -0.6483
 4601TIP3    H235295   3.291   5.228   3.128 -0.7242  0.2859 -0.0106
 4602TIP3   OH235296   1.979   3.332   3.124 -0.3302 -0.5600 -0.2349
 4602TIP3    H135297   2.013   3.414   3.158 -2.0779 -0.2875  1.0311
 4602TIP3    H235298   1.907   3.358   3.066 -0.3274 -1.1663 -0.5185
 4603TIP3   OH235299   3.369   5.263   2.960  0.4684 -0.3967 -0.0279
 4603TIP3    H135300   3.432   5.191   2.958  1.6492  0.5944 -2.2296
 4603TIP3    H235301   3.345   5.276   2.868 -2.2077 -0.0691  0.6492
 4604TIP3   OH235302   4.467   2.400   6.284  0.2011 -0.0247 -0.1868
 4604TIP3    H135303   4.514   2.389   6.366 -1.7174 -0.2518  0.9444
 4604TIP3    H235304   4.515   2.468   6.237  1.1288  0.3593  1.2770
 4605TIP3   OH235305   5.466   4.256   1.280  0.2870  0.0791 -0.1155
 4605TIP3    H135306   5.425   4.173   1.253 -0.3483  1.0359 -2.3213
 4605TIP3    H235307   5.399   4.302   1.330  0.6822 -0.7409  1.2240
 4606TIP3   OH235308   3.629   2.937   5.777  0.3415  0.1634 -0.5298
 4606TIP3    H135309   3.687   2.865   5.802  2.3771  1.3831 -1.4807
 4606TIP3    H235310   3.551   2.894   5.741  1.8918 -1.5899 -1.9649
 4607TIP3   OH235311   1.621   6.414  16.031 -0.2780  0.1461 -0.4357
 4607TIP3    H135312   1.713   6.418  16.004 -0.0530 -1.1711  0.0508
 4607TIP3    H235313   1.621   6.356  16.108 -1.2104  1.9520  1.0008
 4608TIP3   OH235314   3.846   1.142   0.213 -0.3373 -0.1712 -0.2758
 4608TIP3    H135315   3.889   1.076   0.160 -0.7527 -0.5729 -0.1246
 4608TIP3    H235316   3.762   1.102   0.238  0.3029 -0.4439  1.6018
 4609TIP3   OH235317   3.609   2.906   3.583  0.2639  0.3753  0.1863
 4609TIP3    H135318   3.689   2.933   3.537 -0.0683  0.9532 -0.0661
 4609TIP3    H235319   3.639   2.849   3.653  0.9313  0.8500  0.2944
 4610TIP3   OH235320   3.067   5.133   4.791 -0.5950  0.2257  0.2450
 4610TIP3    H135321   3.008   5.170   4.725 -1.2465 -0.1544  0.6007
 4610TIP3    H235322   3.074   5.201   4.858 -0.3767  0.3939  0.0528
 4611TIP3   OH235323   2.416   2.659   5.262 -0.3998 -0.2241 -0.5241
 4611TIP3    H135324   2.331   2.647   5.305 -0.0137  1.2055  0.7230
 4611TIP3    H235325   2.403   2.735   5.205 -0.4943 -1.2317 -1.9034
 4612TIP3   OH235326   0.434   6.259   4.396 -0.3417 -0.5425  0.1348
 4612TIP3    H135327   0.428   6.303   4.481 -0.4490  1.6761 -0.9457
 4612TIP3    H235328   0.494   6.186   4.411  0.1430  0.1656  1.9502
 4613TIP3   OH235329   3.705   5.554   2.183 -0.1953  0.1162  0.6034
 4613TIP3    H135330   3.800   5.546   2.178 -0.2059  0.5647 -1.2317
 4613TIP3    H235331   3.690   5.635   2.232  0.3327 -0.3542  1.5611
 4614TIP3   OH235332   4.235   5.473  11.907 -0.4863 -0.4651  0.1140
 4614TIP3    H135333   4.160   5.431  11.865  0.9310 -0.9785 -2.0701
 4614TIP3    H235334   4.308   5.413  11.893  0.8073  1.0220  0.2162
 4615TIP3   OH235335   4.975   2.000  13.067 -0.5162  0.2209  0.1551
 4615TIP3    H135336   4.920   1.925  13.089  1.1792 -1.1089  0.0820
 4615TIP3    H235337   4.932   2.039  12.991 -2.5421  0.5976  1.4077
 4616TIP3   OH235338   6.582   3.956  12.674 -0.0765  0.1720  0.0269
 4616TIP3    H135339   6.589   3.876  12.622  0.7799  1.8980 -2.7717
 4616TIP3    H235340   6.672   3.989  12.679 -0.5045  1.3343  0.4258
 4617TIP3   OH235341   5.264   2.350   2.846  0.4432 -0.2066 -0.4921
 4617TIP3    H135342   5.215   2.391   2.917  0.8801  0.8714 -0.7934
 4617TIP3    H235343   5.226   2.263   2.837 -0.5000  0.1282  0.1795
 4618TIP3   OH235344   3.813   0.076   5.566  0.1300  0.4359  0.4073
 4618TIP3    H135345   3.884   0.086   5.503  1.0009 -1.8646  0.9490
 4618TIP3    H235346   3.735   0.060   5.511  0.6265 -0.2325 -0.1115
 4619TIP3   OH235347   2.282   1.680  13.377 -0.0753  0.4450  0.0834
 4619TIP3    H135348   2.256   1.588  13.388  1.8323 -0.4530 -2.0099
 4619TIP3    H235349   2.348   1.694  13.445 -0.8140  0.5183  0.8148
 4620TIP3   OH235350   2.340   1.845  10.407  0.2403  0.2368 -0.2593
 4620TIP3    H135351   2.341   1.899  10.328  2.1749 -0.1922 -0.5725
 4620TIP3    H235352   2.378   1.900  10.475  2.1448 -0.6294 -0.5606
 4621TIP3   OH235353   4.503   4.534   3.717  0.1852 -0.4112  0.1806
 4621TIP3    H135354   4.478   4.591   3.790  1.6209 -0.0803  0.4532
 4621TIP3    H235355   4.425   4.529   3.663 -0.3326  0.8970  0.7534
 4622TIP3   OH235356   0.191   2.055  12.064 -0.2616  0.6078  0.5032
 4622TIP3    H135357   0.129   1.986  12.086 -2.5006  2.6005  0.8388
 4622TIP3    H235358   0.167   2.081  11.975  0.1824  1.3299  0.5833
 4623TIP3   OH235359   6.559   5.657  15.775  0.2482 -0.4003 -0.3613
 4623TIP3    H135360   6.586   5.608  15.697 -1.2981  0.2393 -1.3455
 4623TIP3    H235361   6.634   5.713  15.795  1.4193 -1.9525 -0.1867
 4624TIP3   OH235362   5.080   4.526  12.925 -0.5529  0.2005  0.0189
 4624TIP3    H135363   5.154   4.480  12.963  0.2012  0.4358 -1.1172
 4624TIP3    H235364   5.003   4.487  12.967  0.1698 -0.6024  0.6178
 4625TIP3   OH235365   2.323   6.522   3.475  0.4727 -0.7690  0.3083
 4625TIP3    H135366   2.352   6.518   3.384 -0.2155 -0.4203  0.0711
 4625TIP3    H235367   2.355   6.606   3.507 -1.1560  0.1098 -0.2729
 4626TIP3   OH235368   2.326   5.371   1.510 -0.1724 -0.2506 -0.8139
 4626TIP3    H135369   2.362   5.377   1.598  1.4030  2.0277 -1.5510
 4626TIP3    H235370   2.259   5.303   1.517  1.0953 -1.3766  1.7065
 4627TIP3   OH235371   4.720   6.796  17.011  0.3483  0.7512  0.3747
 4627TIP3    H135372   4.736   6.745  16.932 -1.4389 -1.3434  1.2324
 4627TIP3    H235373   4.782   6.761  17.075 -1.4694 -1.2069  1.2288
 4628TIP3   OH235374   4.407   5.794  13.029 -0.0238 -0.1502  0.0681
 4628TIP3    H135375   4.489   5.820  13.070  0.2102 -2.6666  1.4214
 4628TIP3    H235376   4.357   5.875  13.022  2.3848  1.3754 -0.4461
 4629TIP3   OH235377   5.342   0.593   0.941 -0.1386 -0.3779  0.2445
 4629TIP3    H135378   5.406   0.617   1.008  1.3861  0.1378 -1.3496
 4629TIP3    H235379   5.338   0.497   0.945  1.5671 -0.4990 -0.3508
 4630TIP3   OH235380   5.439   0.874  16.534 -0.5148 -0.6103  0.3508
 4630TIP3    H135381   5.410   0.791  16.572 -1.6148 -0.1661  0.5178
 4630TIP3    H235382   5.420   0.939  16.601  3.0720 -0.5187  1.4588
 4631TIP3   OH235383   5.706   5.376   3.157  0.1109 -0.0540 -0.0030
 4631TIP3    H135384   5.747   5.361   3.072  1.3745  2.0726  0.1576
 4631TIP3    H235385   5.733   5.464   3.182 -0.1156 -0.6370  2.6678
 4632TIP3   OH235386   4.299   2.727   0.136 -0.3639 -0.6105 -0.5182
 4632TIP3    H135387   4.304   2.692   0.225 -0.6387 -1.2829 -0.7628
 4632TIP3    H235388   4.379   2.779   0.126 -0.5150 -0.2166  0.2486
 4633TIP3   OH235389   6.293   4.049   2.160 -0.8583  0.0951 -0.3822
 4633TIP3    H135390   6.331   4.043   2.073  1.2496 -1.0766  0.5538
 4633TIP3    H235391   6.313   4.138   2.189  2.2153 -0.7237  0.4302
 4634TIP3   OH235392   4.903   0.075  13.459 -0.5626  0.0869  0.0043
 4634TIP3    H135393   4.967   0.013  13.426 -1.1094 -0.2152 -0.5031
 4634TIP3    H235394   4.848   0.096  13.384 -0.3720  1.2155  0.1524
 4635TIP3   OH235395   6.326   5.062  15.587  0.6118  0.2984 -0.8026
 4635TIP3    H135396   6.260   5.015  15.536  0.2071  1.2779 -1.2139
 4635TIP3    H235397   6.281   5.084  15.669  0.4439  0.8690 -1.0386
 4636TIP3   OH235398   1.077   6.552   0.141 -0.0810  0.5033  0.3999
 4636TIP3    H135399   1.052   6.529   0.231 -0.8379  2.2504  0.6627
 4636TIP3    H235400   1.129   6.631   0.150 -0.3915  0.8519 -0.7254
 4637TIP3   OH235401   0.412   0.069  13.496  0.3370 -0.0650 -0.0287
 4637TIP3    H135402   0.504   0.079  13.518  0.6130  1.0914 -1.4821
 4637TIP3    H235403   0.387   0.155  13.461 -1.5229 -0.0971  1.1196
 4638TIP3   OH235404   2.401   5.527   3.442  0.0904  0.0809 -0.0237
 4638TIP3    H135405   2.338   5.490   3.503 -0.6556 -0.6169 -1.1840
 4638TIP3    H235406   2.480   5.475   3.455 -0.4425 -0.8567 -0.4870
 4639TIP3   OH235407   3.155   5.938   4.978  0.1740  0.1013  0.0914
 4639TIP3    H135408   3.137   5.945   5.072 -2.4371 -1.1282 -0.2210
 4639TIP3    H235409   3.214   6.011   4.960 -0.9591  1.7079  2.2988
 4640TIP3   OH235410   2.088   2.530  11.341 -0.5498 -0.8242 -0.1540
 4640TIP3    H135411   2.107   2.526  11.248  1.1590  1.3863  0.0398
 4640TIP3    H235412   2.103   2.441  11.372  0.6363 -1.1905 -1.6706
 4641TIP3   OH235413   0.426   4.650   4.586  0.3217  0.4405 -0.0127
 4641TIP3    H135414   0.453   4.560   4.568 -1.7719 -0.2487  0.0930
 4641TIP3    H235415   0.454   4.666   4.676 -1.1933 -0.9247  0.7553
 4642TIP3   OH235416   4.958   5.633  13.478  0.5511  0.0852 -0.1032
 4642TIP3    H135417   4.969   5.544  13.513 -1.5307  0.0210  0.4896
 4642TIP3    H235418   4.997   5.690  13.544 -1.2193 -0.1992  1.2511
 4643TIP3   OH235419   5.680   5.848  16.456 -0.7646 -0.1692  0.4086
 4643TIP3    H135420   5.704   5.823  16.367 -1.0582 -0.4712  0.4116
 4643TIP3    H235421   5.734   5.792  16.512 -3.3630 -2.9257  0.4475
 4644TIP3   OH235422   0.785   6.448  11.355 -0.1114 -0.4152 -0.8301
 4644TIP3    H135423   0.790   6.401  11.271  1.5400 -2.3956  0.2931
 4644TIP3    H235424   0.871   6.488  11.366 -0.0754 -0.7546  0.2387
 4645TIP3   OH235425   5.315   5.601  14.212  0.0396  0.3580 -0.7565
 4645TIP3    H135426   5.404   5.634  14.207 -0.1476  1.1505  0.5393
 4645TIP3    H235427   5.266   5.654  14.149 -0.1503  2.3248  0.9109
 4646TIP3   OH235428   4.201   2.275   1.970  0.2857  0.2714  0.4069
 4646TIP3    H135429   4.148   2.297   1.894 -0.0460  0.6118  0.7309
 4646TIP3    H235430   4.141   2.231   2.030 -0.3350  2.8936  1.8720
 4647TIP3   OH235431   2.167   6.616  14.398  0.6152  0.4921 -0.5411
 4647TIP3    H135432   2.189   6.525  14.375 -1.7521 -0.5477  0.9607
 4647TIP3    H235433   2.129   6.652  14.318  0.5223 -0.2103 -0.8248
 4648TIP3   OH235434   0.862   2.600   0.639 -0.1078 -0.2245 -0.1480
 4648TIP3    H135435   0.864   2.612   0.544  1.2021 -1.0957 -0.2620
 4648TIP3    H235436   0.799   2.665   0.670 -0.8268 -0.1677 -1.6368
 4649TIP3   OH235437   2.668   2.625   5.330  0.4134  0.1355 -0.1125
 4649TIP3    H135438   2.721   2.674   5.268  1.9115  1.0392  1.7521
 4649TIP3    H235439   2.580   2.623   5.292  0.9219  1.9720 -1.4979
 4650TIP3   OH235440   4.723   4.207   3.695  0.5363 -0.2971 -0.1137
 4650TIP3    H135441   4.721   4.300   3.718  0.9242 -0.8588  2.6109
 4650TIP3    H235442   4.638   4.190   3.655  1.0233  1.4824 -2.0876
 4651TIP3   OH235443   1.770   4.778  15.701  0.3999 -0.1626 -0.0353
 4651TIP3    H135444   1.798   4.859  15.743  0.6735 -0.2800  0.0111
 4651TIP3    H235445   1.803   4.709  15.758 -0.0451 -0.3020  0.0530
 4652TIP3   OH235446   1.745   3.300   0.065  0.2052  0.1591  0.4128
 4652TIP3    H135447   1.664   3.287   0.016  0.0752  0.7959  0.4503
 4652TIP3    H235448   1.754   3.221   0.118  0.0625 -0.2957 -0.2275
 4653TIP3   OH235449   4.355   6.775   6.529 -0.2419  0.4014 -0.3168
 4653TIP3    H135450   4.280   6.779   6.470 -1.6088  1.4672  1.4030
 4653TIP3    H235451   4.345   6.850   6.586  0.9972 -0.5961  1.2992
 4654TIP3   OH235452   0.644   0.015   1.649  0.2924 -0.5160  0.6527
 4654TIP3    H135453   0.606   0.083   1.705  1.0086  1.4854 -1.1558
 4654TIP3    H235454   0.611  -0.067   1.686 -1.8188  0.8511  2.0632
 4655TIP3   OH235455   2.042   5.080  14.343 -0.2111  0.1341 -0.1480
 4655TIP3    H135456   2.086   5.029  14.410  0.8990 -0.9121 -1.5990
 4655TIP3    H235457   2.009   5.015  14.281 -3.1038  0.9194  0.3911
 4656TIP3   OH235458   4.200   1.034  13.250 -0.5531 -0.2154 -0.1191
 4656TIP3    H135459   4.260   1.022  13.176 -1.8962 -2.2742 -0.9784
 4656TIP3    H235460   4.158   1.118  13.233  0.4547  0.1911 -0.7042
 4657TIP3   OH235461   1.237   3.287  14.516  0.5803  0.2912 -0.4162
 4657TIP3    H135462   1.285   3.273  14.435  0.6261  1.4793 -0.6118
 4657TIP3    H235463   1.150   3.251  14.499  0.5942  0.5297 -0.9859
 4658TIP3   OH235464   2.818   6.681  11.148  0.7537 -0.2813 -0.1297
 4658TIP3    H135465   2.843   6.696  11.239 -2.0554 -0.8608  0.8360
 4658TIP3    H235466   2.800   6.587  11.143 -1.0164  0.0332 -0.6814
 4659TIP3   OH235467   0.476   2.115  17.016  0.2233  0.3575 -0.0300
 4659TIP3    H135468   0.466   2.020  17.022  0.5478  0.2554 -0.9078
 4659TIP3    H235469   0.401   2.150  17.064  0.0382 -0.3411  0.2061
 4660TIP3   OH235470   5.114   3.373   0.471  0.2064  0.2939  0.0258
 4660TIP3    H135471   5.186   3.383   0.409  0.5457 -2.6239 -0.1609
 4660TIP3    H235472   5.037   3.357   0.416 -0.3716  1.9168  0.2859
 4661TIP3   OH235473   1.202   6.790  10.881  0.5595 -0.1101 -0.0672
 4661TIP3    H135474   1.247   6.854  10.826 -0.9542  1.0672 -0.0101
 4661TIP3    H235475   1.128   6.761  10.828  0.0158 -0.2016  0.7258
 4662TIP3   OH235476   2.863   3.159  11.950 -0.1026  0.4687  0.7419
 4662TIP3    H135477   2.861   3.064  11.934 -1.3289  0.6351 -0.2968
 4662TIP3    H235478   2.897   3.196  11.868  1.7262  0.8757  1.6340
 4663TIP3   OH235479   4.993   6.710   4.571  0.0210  0.5116 -0.2968
 4663TIP3    H135480   5.057   6.646   4.540  0.2095  0.3112  0.4986
 4663TIP3    H235481   4.909   6.672   4.547  0.1688  0.4521 -0.7408
 4664TIP3   OH235482   6.803   4.015  11.846  0.1118  0.4815  0.0308
 4664TIP3    H135483   6.812   3.920  11.856 -0.2787  0.5384  1.1024
 4664TIP3    H235484   6.737   4.025  11.777 -0.6822 -0.0598  0.6812
 4665TIP3   OH235485   3.555   6.117   5.182 -0.2638  0.1215 -0.0620
 4665TIP3    H135486   3.613   6.184   5.147 -1.3001  0.8801 -0.3768
 4665TIP3    H235487   3.561   6.128   5.277 -0.3506  0.6033 -0.1091
 4666TIP3   OH235488   5.281   0.080   0.926 -0.5350 -0.1363  0.2997
 4666TIP3    H135489   5.277   0.031   1.008 -3.1550  0.2597  0.4926
 4666TIP3    H235490   5.319   0.019   0.863 -0.8898 -1.3514  1.2278
 4667TIP3   OH235491   1.802   4.632  14.052  0.4362  0.4297 -0.5618
 4667TIP3    H135492   1.741   4.700  14.082  0.4202 -0.0723  0.6000
 4667TIP3    H235493   1.759   4.550  14.073  0.8985  0.0666 -1.0239
 4668TIP3   OH235494   5.344   4.849   2.595 -0.0039 -0.6420  0.3144
 4668TIP3    H135495   5.380   4.763   2.576 -0.1162  0.0528 -3.9092
 4668TIP3    H235496   5.412   4.911   2.570 -0.9561  0.5617  0.5670
 4669TIP3   OH235497   2.531   6.521   5.154 -0.4753  0.0708 -0.0151
 4669TIP3    H135498   2.569   6.447   5.202 -0.6026 -0.0929 -0.1671
 4669TIP3    H235499   2.458   6.550   5.208 -1.2781 -0.7807 -0.6106
 4670TIP3   OH235500   0.823   5.844  16.187  0.2194  0.4965 -0.0156
 4670TIP3    H135501   0.879   5.876  16.116 -1.3682  0.6771 -1.2503
 4670TIP3    H235502   0.860   5.883  16.266  1.2771  1.3332 -0.8891
 4671TIP3   OH235503   5.646   2.302  15.915 -0.5681  0.6897  0.4117
 4671TIP3    H135504   5.729   2.326  15.875 -0.6009  1.5608  0.8450
 4671TIP3    H235505   5.619   2.380  15.964 -0.1986 -0.5236  2.6953
 4672TIP3   OH235506   0.213   0.998   5.729 -0.0009  0.3017 -0.1221
 4672TIP3    H135507   0.167   1.072   5.691 -1.1894 -0.3645 -0.0417
 4672TIP3    H235508   0.254   1.033   5.808 -1.9365  0.5536  0.8400
 4673TIP3   OH235509   4.793   4.658  10.709  0.1350 -0.0355 -0.1010
 4673TIP3    H135510   4.788   4.706  10.792 -0.0980 -1.2149  0.5842
 4673TIP3    H235511   4.853   4.710  10.656  2.1549 -0.4373  1.6450
 4674TIP3   OH235512   3.904   0.490   0.109 -0.2662 -0.2796 -0.4166
 4674TIP3    H135513   3.825   0.449   0.144  0.0409 -0.2185  0.3841
 4674TIP3    H235514   3.886   0.584   0.117 -0.0837 -0.2664 -0.1653
 4675TIP3   OH235515   2.683   1.842   3.460 -0.2825  0.3240 -0.5569
 4675TIP3    H135516   2.671   1.932   3.432 -0.4101  0.4154 -0.2152
 4675TIP3    H235517   2.701   1.794   3.379 -0.2198  0.6526 -0.7399
 4676TIP3   OH235518   6.697   5.343   2.813  0.1205 -0.0109 -0.5113
 4676TIP3    H135519   6.739   5.314   2.894 -0.4224  2.6630  0.8512
 4676TIP3    H235520   6.762   5.328   2.745  1.7290  0.3073  0.8978
 4677TIP3   OH235521   0.165   2.526  13.479  0.5372 -0.5098  0.7533
 4677TIP3    H135522   0.203   2.466  13.543 -0.9411 -0.4282  1.7473
 4677TIP3    H235523   0.228   2.597  13.474  1.9048 -1.7021  0.1952
 4678TIP3   OH235524   0.057   6.796  14.383 -0.7812 -0.3148 -0.0079
 4678TIP3    H135525   0.099   6.847  14.313  1.8125 -2.3909 -0.1371
 4678TIP3    H235526   0.129   6.773  14.442 -1.7056 -3.7189  0.0391
 4679TIP3   OH235527   4.206   1.403   1.088  0.5934  0.4082 -0.4184
 4679TIP3    H135528   4.242   1.489   1.112  0.5719  0.6281 -1.1668
 4679TIP3    H235529   4.282   1.344   1.089  0.7259  0.5749 -0.5717
 4680TIP3   OH235530   2.855   0.933   4.718  0.3686  0.1139  0.3209
 4680TIP3    H135531   2.858   0.856   4.776  1.1995  1.3267  1.9662
 4680TIP3    H235532   2.781   0.915   4.659  0.6544 -2.0103  0.5318
 4681TIP3   OH235533   3.251   6.093   1.647  0.3718 -0.0768 -0.7224
 4681TIP3    H135534   3.202   6.039   1.710 -0.2547 -0.8414 -1.8194
 4681TIP3    H235535   3.194   6.097   1.570  0.6986  1.6299 -0.9155
 4682TIP3   OH235536   0.473   4.543  11.089  0.5338  0.1383 -0.3608
 4682TIP3    H135537   0.527   4.601  11.036 -0.2413  0.6356 -0.6246
 4682TIP3    H235538   0.387   4.546  11.047  0.2330 -0.4530  0.1918
 4683TIP3   OH235539   4.316   0.549  15.147  0.5734 -0.0823 -0.3911
 4683TIP3    H135540   4.363   0.583  15.223  3.1911 -1.8761 -1.1019
 4683TIP3    H235541   4.358   0.591  15.072 -2.1956  1.9337 -1.0169
 4684TIP3   OH235542   2.266   1.610   1.086 -0.7196 -0.7375  0.0965
 4684TIP3    H135543   2.298   1.589   0.999 -1.4981  0.4629 -0.5117
 4684TIP3    H235544   2.208   1.537   1.109 -0.6078 -0.9971 -0.4457
 4685TIP3   OH235545   4.396   1.316   1.396 -0.3186  0.2313  0.2040
 4685TIP3    H135546   4.486   1.344   1.384 -0.0158 -0.0995  1.5207
 4685TIP3    H235547   4.347   1.397   1.411 -0.2595  0.4158 -0.5735
 4686TIP3   OH235548   1.722   2.291   3.151  0.8484  0.2289 -0.0667
 4686TIP3    H135549   1.684   2.219   3.201  0.7936  1.7137  2.1850
 4686TIP3    H235550   1.731   2.256   3.063  0.2746 -2.3192  0.7781
 4687TIP3   OH235551   1.230   3.338  12.057 -0.0821 -0.6870 -0.2846
 4687TIP3    H135552   1.304   3.394  12.034 -1.1709  1.3931  1.0030
 4687TIP3    H235553   1.270   3.255  12.083  1.6216 -0.3886 -1.7747
 4688TIP3   OH235554   1.300   2.286  11.931  0.4629 -0.5360  0.5258
 4688TIP3    H135555   1.370   2.351  11.925  1.1757 -1.4541 -3.3040
 4688TIP3    H235556   1.334   2.220  11.992  2.2355 -0.1471  0.0241
 4689TIP3   OH235557   5.968   5.477  16.643 -0.4860  0.2439 -0.4179
 4689TIP3    H135558   6.063   5.492  16.645  0.1386 -2.9006  2.6079
 4689TIP3    H235559   5.948   5.467  16.549  2.3744 -0.0292 -1.1031
 4690TIP3   OH235560   3.550   4.179  16.212 -0.3405  0.3890  0.0315
 4690TIP3    H135561   3.549   4.263  16.259  0.3838  0.3203  0.1795
 4690TIP3    H235562   3.458   4.162  16.193 -0.8607 -0.3086  2.7010
 4691TIP3   OH235563   3.929   0.286   3.933  0.6342  0.4864 -0.0023
 4691TIP3    H135564   3.870   0.218   3.903 -0.4389  1.2564  0.3115
 4691TIP3    H235565   3.950   0.260   4.023  2.5330 -0.9291 -0.7759
 4692TIP3   OH235566   3.778   1.139   2.384 -0.2780 -0.0994 -0.9572
 4692TIP3    H135567   3.856   1.091   2.412 -0.0934  0.9166  0.3310
 4692TIP3    H235568   3.705   1.094   2.427 -0.3004 -0.3211 -1.2185
 4693TIP3   OH235569   0.918   5.380  15.156 -0.3385  0.0788  0.0596
 4693TIP3    H135570   0.934   5.359  15.064  1.8310 -1.9110  0.8083
 4693TIP3    H235571   0.918   5.476  15.159 -0.1020  0.1753 -1.9544
 4694TIP3   OH235572   5.305   3.650   0.610 -0.0986 -0.9769  0.1882
 4694TIP3    H135573   5.304   3.718   0.678  0.6984  0.8580 -1.5119
 4694TIP3    H235574   5.217   3.654   0.571  0.3181  0.0290 -0.7204
 4695TIP3   OH235575   3.344   0.160  16.709  0.2790  0.6746  0.1557
 4695TIP3    H135576   3.337   0.121  16.797 -2.6711 -1.1936 -0.7598
 4695TIP3    H235577   3.263   0.209  16.698  1.5185  2.6008 -0.8371
 4696TIP3   OH235578   2.784   3.222  14.657 -0.2821 -0.3561 -0.2260
 4696TIP3    H135579   2.726   3.277  14.709 -1.2933 -1.4563 -0.1448
 4696TIP3    H235580   2.744   3.219  14.570  1.2226  1.2044 -1.0330
 4697TIP3   OH235581   5.462   5.795   2.410  0.8413 -0.3142 -0.2537
 4697TIP3    H135582   5.369   5.793   2.387  0.0372  2.2245  2.1949
 4697TIP3    H235583   5.473   5.722   2.471 -0.1864  0.6845  1.2086
 4698TIP3   OH235584   0.416   5.378   2.503  0.3669  0.4460  0.1216
 4698TIP3    H135585   0.371   5.323   2.568  1.3030  0.7867  1.0806
 4698TIP3    H235586   0.403   5.332   2.420  1.3686 -1.4069  0.9235
 4699TIP3   OH235587   1.854   5.004   4.626 -0.0685 -0.1381 -0.3178
 4699TIP3    H135588   1.913   5.076   4.648  0.2354 -0.9270  1.6708
 4699TIP3    H235589   1.787   5.006   4.694  0.2668 -2.0483  0.1489
 4700TIP3   OH235590   2.746   4.397   0.887 -0.2363 -0.3562 -0.3246
 4700TIP3    H135591   2.810   4.369   0.821  1.5233  0.1668  1.0730
 4700TIP3    H235592   2.733   4.490   0.870  1.2365  0.1046  0.7747
 4701TIP3   OH235593   3.373   0.673   3.719 -0.2124 -0.2886 -0.0917
 4701TIP3    H135594   3.333   0.706   3.800 -0.1868 -0.4178 -0.0262
 4701TIP3    H235595   3.402   0.751   3.673 -0.9751 -0.1588 -0.3690
 4702TIP3   OH235596   6.696   5.634  13.001 -0.5428 -0.0327  0.0116
 4702TIP3    H135597   6.706   5.651  12.907 -1.8221  0.5529 -0.0406
 4702TIP3    H235598   6.735   5.711  13.043 -1.0291  0.2661 -0.0773
 4703TIP3   OH235599   2.767   1.675  12.358  0.5793  0.2282 -0.3563
 4703TIP3    H135600   2.741   1.651  12.446 -1.8321  0.8878 -0.8039
 4703TIP3    H235601   2.750   1.769  12.353  1.3833  0.3414 -1.3014
 4704TIP3   OH235602   2.369   1.040  16.494  0.1616  0.2772  0.1128
 4704TIP3    H135603   2.462   1.027  16.474  0.3117 -1.7354  1.6991
 4704TIP3    H235604   2.324   0.969  16.448 -0.1343 -0.8032  1.9386
 4705TIP3   OH235605   1.396   2.311   1.413 -0.2555 -0.2751  0.3395
 4705TIP3    H135606   1.469   2.296   1.353 -0.8704  1.2270 -0.8510
 4705TIP3    H235607   1.318   2.306   1.358 -0.7833  2.0865  0.7849
 4706TIP3   OH235608   4.753   3.688  15.224  0.1021  0.0494  0.2592
 4706TIP3    H135609   4.719   3.653  15.141 -1.2165  0.4644  0.5999
 4706TIP3    H235610   4.844   3.661  15.225  0.3718  0.6914 -1.7046
 4707TIP3   OH235611   2.118   2.560   5.284 -0.7482 -0.0666  0.3023
 4707TIP3    H135612   2.090   2.644   5.249  0.2809  0.1622 -0.0014
 4707TIP3    H235613   2.075   2.495   5.229 -0.7791  0.2746 -0.0754
 4708TIP3   OH235614   4.648   4.209   1.193  0.3304  0.2502 -0.2343
 4708TIP3    H135615   4.598   4.132   1.218 -0.8663  1.0281 -0.1576
 4708TIP3    H235616   4.631   4.272   1.263 -0.5086  1.3494 -1.3788
 4709TIP3   OH235617   5.815   0.431  16.665  0.4143 -0.4430  0.0837
 4709TIP3    H135618   5.776   0.418  16.751 -0.1248 -1.3041 -0.2823
 4709TIP3    H235619   5.908   0.441  16.682  0.5018 -2.0206  0.6468
 4710TIP3   OH235620   0.469   2.451  13.900 -0.4689 -0.1918 -0.8653
 4710TIP3    H135621   0.447   2.515  13.968 -1.7486 -1.4495 -0.0500
 4710TIP3    H235622   0.565   2.456  13.894 -0.5820  2.5844 -1.6698
 4711TIP3   OH235623   0.665   2.205  11.270  0.0360 -0.5681 -0.8697
 4711TIP3    H135624   0.707   2.291  11.267 -2.4415  0.7511 -0.4119
 4711TIP3    H235625   0.725   2.147  11.223  2.2996  1.1368 -0.2521
 4712TIP3   OH235626   1.068   0.218   2.673 -0.5087  0.1657  0.2417
 4712TIP3    H135627   1.071   0.290   2.736 -1.3775  0.1257  0.3324
 4712TIP3    H235628   1.079   0.139   2.726  1.2328  0.2364  0.0632
 4713TIP3   OH235629   3.076   3.743   3.231 -0.4569  0.0777 -0.0168
 4713TIP3    H135630   3.014   3.730   3.302  0.3365  0.1919  0.7066
 4713TIP3    H235631   3.137   3.809   3.263  1.1429 -1.3515  0.0280
 4714TIP3   OH235632   1.490   0.716   2.198  0.3011 -0.4071  0.2821
 4714TIP3    H135633   1.474   0.727   2.104  1.5344  0.8218  0.1811
 4714TIP3    H235634   1.459   0.628   2.217  2.2409 -1.6488 -1.8097
 4715TIP3   OH235635   4.986   1.209  14.619 -0.1279  0.8035  0.6868
 4715TIP3    H135636   4.954   1.136  14.567  0.2958  1.1494 -0.0729
 4715TIP3    H235637   4.908   1.263  14.635 -0.3594  0.4195  0.8902
 4716TIP3   OH235638   0.248   6.785   5.182 -0.4763 -0.1727 -0.0213
 4716TIP3    H135639   0.286   6.862   5.226 -0.5499 -0.9222  1.4126
 4716TIP3    H235640   0.276   6.793   5.091  2.1694 -0.0733  0.7286
 4717TIP3   OH235641   3.425   0.331  15.590 -0.0946 -0.0104  0.3053
 4717TIP3    H135642   3.426   0.370  15.677  1.1763  0.9970 -0.1269
 4717TIP3    H235643   3.467   0.246  15.601 -2.8442 -1.3753  1.2436
 4718TIP3   OH235644   1.121   0.109  12.880 -0.4324  0.2890  0.1883
 4718TIP3    H135645   1.105   0.044  12.949 -1.7739  0.3279 -0.0651
 4718TIP3    H235646   1.164   0.059  12.810 -0.7032 -0.1502  0.3281
 4719TIP3   OH235647   5.867   4.128   3.758 -0.1087 -0.2234 -0.0971
 4719TIP3    H135648   5.936   4.189   3.785 -0.4264  0.7876 -1.4303
 4719TIP3    H235649   5.793   4.149   3.815 -1.3574  3.0877 -2.5783
 4720TIP3   OH235650   1.017   4.724   3.608 -0.1455  0.3320  0.6949
 4720TIP3    H135651   0.927   4.711   3.640 -0.6961 -0.5842 -1.0816
 4720TIP3    H235652   1.048   4.636   3.586  1.2093  0.6389  1.2754
 4721TIP3   OH235653   3.886   1.923   6.019 -0.1308  0.0812  0.0086
 4721TIP3    H135654   3.833   1.864   6.073 -1.0521  1.2902  0.4635
 4721TIP3    H235655   3.949   1.961   6.080  0.6594 -0.6257 -0.3429
 4722TIP3   OH235656   1.000   3.993   0.179  0.7784  0.4470  0.6050
 4722TIP3    H135657   1.004   3.945   0.097  1.7189  0.7551  0.4665
 4722TIP3    H235658   1.031   4.081   0.157 -2.7826  1.8178  0.3837
 4723TIP3   OH235659   0.207   3.155   1.070  0.1407 -0.0104 -0.0051
 4723TIP3    H135660   0.283   3.182   1.122  1.2482 -0.3766 -1.3721
 4723TIP3    H235661   0.239   3.155   0.980 -1.0418 -1.6378 -0.4687
 4724TIP3   OH235662   5.882   5.742   5.474  0.1119  0.0489  0.9124
 4724TIP3    H135663   5.816   5.769   5.410  0.5104  1.9118  1.2413
 4724TIP3    H235664   5.848   5.774   5.558  0.4052 -0.9062  1.4092
 4725TIP3   OH235665   1.768   1.137  15.277 -0.1693 -0.2038  0.2812
 4725TIP3    H135666   1.761   1.199  15.349  0.3246  1.5429 -1.0884
 4725TIP3    H235667   1.815   1.185  15.209  0.3158 -2.1343 -0.8342
 4726TIP3   OH235668   4.519   1.903  11.485 -0.1496  0.1098  0.5582
 4726TIP3    H135669   4.563   1.970  11.537  1.3073 -1.0839  0.9261
 4726TIP3    H235670   4.462   1.952  11.426  1.1730  1.6977  0.5335
 4727TIP3   OH235671   5.367   1.015  16.759  0.1249  0.2912 -0.8284
 4727TIP3    H135672   5.307   1.031  16.832 -0.2842 -1.5100 -0.7224
 4727TIP3    H235673   5.338   1.075  16.690  0.6922  2.2437  0.5291
 4728TIP3   OH235674   3.554   1.822   5.969 -0.0237 -0.3845 -0.2207
 4728TIP3    H135675   3.494   1.852   6.037  0.1666  0.3177 -0.3476
 4728TIP3    H235676   3.561   1.728   5.982  2.5030  0.0720  2.8097
 4729TIP3   OH235677   2.006   5.575   2.229 -0.6395  0.0043  0.4197
 4729TIP3    H135678   2.053   5.654   2.256 -1.2413  0.0875  1.2827
 4729TIP3    H235679   2.008   5.577   2.134  0.0793  0.6179  0.4361
 4730TIP3   OH235680   4.978   6.461  10.829 -0.0040  0.1495 -0.0838
 4730TIP3    H135681   4.887   6.475  10.853 -0.3314  2.1832 -2.1847
 4730TIP3    H235682   4.979   6.375  10.787 -0.9129  0.0296  0.1253
 4731TIP3   OH235683   0.022   4.153  11.255 -0.2013 -0.0416 -0.2818
 4731TIP3    H135684  -0.007   4.147  11.164 -1.6467 -0.3230  0.1585
 4731TIP3    H235685   0.113   4.179  11.250 -0.8664  2.2607 -1.7742
 4732TIP3   OH235686   4.283   2.836   0.856  0.5562  0.1235 -0.1323
 4732TIP3    H135687   4.326   2.903   0.909  1.6903 -0.1897 -0.6393
 4732TIP3    H235688   4.353   2.776   0.831  0.0496  0.2418 -1.9540
 4733TIP3   OH235689   4.383   3.458  11.293  0.5134  0.1431  0.2341
 4733TIP3    H135690   4.367   3.426  11.205 -2.4660  0.8253  0.3970
 4733TIP3    H235691   4.386   3.554  11.284  1.9017  0.1544  0.6680
 4734TIP3   OH235692   5.741   1.204   0.330  0.6776 -0.6702  0.3675
 4734TIP3    H135693   5.691   1.186   0.250  0.8642 -0.7662  0.2738
 4734TIP3    H235694   5.788   1.285   0.311 -1.0110  0.5765  1.1747
 4735TIP3   OH235695   3.372   1.518   5.590  0.1033  0.0849 -0.2015
 4735TIP3    H135696   3.399   1.597   5.638  0.4305  0.4351 -0.9501
 4735TIP3    H235697   3.322   1.468   5.654 -0.0275  0.8552  0.3207
 4736TIP3   OH235698   3.969   6.625   4.753  0.5977 -0.0877  0.1945
 4736TIP3    H135699   3.915   6.547   4.748 -0.7892  0.8948 -1.0573
 4736TIP3    H235700   4.035   6.613   4.684  1.0414 -0.5990  0.6982
 4737TIP3   OH235701   4.080   2.155   2.180  0.2963  0.2418 -0.2532
 4737TIP3    H135702   4.143   2.209   2.226  1.0736 -1.0232  0.2115
 4737TIP3    H235703   4.027   2.114   2.249 -0.2529  0.3660 -0.5895
 4738TIP3   OH235704   2.757   0.293   1.991  0.4139 -0.5266  0.1567
 4738TIP3    H135705   2.713   0.309   2.074 -0.3847 -0.4476 -0.2703
 4738TIP3    H235706   2.850   0.310   2.009  0.0772  0.8821  0.6842
 4739TIP3   OH235707   3.006   1.157   4.401 -0.4910  0.6892  0.4439
 4739TIP3    H135708   3.049   1.242   4.398  1.0058 -0.0669 -1.5621
 4739TIP3    H235709   2.920   1.172   4.363 -0.3202  1.3409  0.3119
 4740TIP3   OH235710   5.772   6.746   0.324 -0.1298  0.1357  0.2382
 4740TIP3    H135711   5.817   6.722   0.243 -2.1948 -1.9843 -0.3958
 4740TIP3    H235712   5.710   6.814   0.298  0.2194  0.4864  0.3322
 4741TIP3   OH235713   3.872   3.607   0.113 -0.4934 -0.5472 -0.5428
 4741TIP3    H135714   3.907   3.606   0.202  2.5918 -0.9345 -1.6415
 4741TIP3    H235715   3.789   3.654   0.121 -0.3072 -0.5107  2.5011
 4742TIP3   OH235716   2.278   0.469  14.227 -0.3521 -0.5334 -0.0849
 4742TIP3    H135717   2.224   0.512  14.293 -0.2249 -0.3174 -0.1230
 4742TIP3    H235718   2.245   0.379  14.225 -1.7750 -0.0419 -1.1986
 4743TIP3   OH235719   5.547   2.591   1.858  0.0423  0.2949  0.4252
 4743TIP3    H135720   5.492   2.590   1.779 -0.8868 -3.2351  0.9719
 4743TIP3    H235721   5.637   2.591   1.825 -0.3377 -0.7838 -0.6754
 4744TIP3   OH235722   0.514   3.700  15.940  0.2367  0.4030 -0.6026
 4744TIP3    H135723   0.602   3.664  15.952 -0.5794 -1.5226 -0.0724
 4744TIP3    H235724   0.514   3.780  15.993  1.0588 -0.6280  1.0471
 4745TIP3   OH235725   5.544   2.333   4.305 -0.5173  0.2446 -0.2917
 4745TIP3    H135726   5.521   2.321   4.397 -1.4170  2.1437 -0.2138
 4745TIP3    H235727   5.571   2.246   4.275 -2.9236 -1.0418  1.0090
 4746TIP3   OH235728   5.414   0.005   0.361  0.2755 -0.7078 -0.3617
 4746TIP3    H135729   5.430   0.090   0.403  1.9834 -1.1843  0.0303
 4746TIP3    H235730   5.377   0.027   0.276 -0.8571  0.3689  0.3674
 4747TIP3   OH235731   0.543   0.306   2.945  0.1357  0.1227 -0.4854
 4747TIP3    H135732   0.605   0.282   2.876 -1.1266 -1.4438 -1.1237
 4747TIP3    H235733   0.555   0.400   2.956  0.6318  0.3480 -2.5722
 4748TIP3   OH235734   1.938   4.563  11.168  0.2783  0.0570 -0.2333
 4748TIP3    H135735   1.949   4.558  11.073 -1.1896  0.6342 -0.4688
 4748TIP3    H235736   1.926   4.472  11.195  0.9869 -0.1389 -0.5626
 4749TIP3   OH235737   6.588   5.409  14.319 -0.0728 -0.0502 -0.7902
 4749TIP3    H135738   6.608   5.323  14.356  0.2704  1.2843  2.4817
 4749TIP3    H235739   6.544   5.390  14.236  2.6270 -3.2731 -1.6690
 4750TIP3   OH235740   6.376   6.499  11.705 -0.1218 -0.2625 -0.0285
 4750TIP3    H135741   6.381   6.494  11.609  1.7021 -0.4067  0.0274
 4750TIP3    H235742   6.351   6.590  11.723 -0.1615 -0.1463 -0.6431
 4751TIP3   OH235743   1.737   1.256  11.536  0.9324 -0.1950 -0.2307
 4751TIP3    H135744   1.824   1.291  11.514  1.3153 -0.9450  0.0280
 4751TIP3    H235745   1.750   1.161  11.537  0.5116 -0.2695  1.3922
 4752TIP3   OH235746   0.390   5.795  15.458  0.4484 -0.0132 -0.5365
 4752TIP3    H135747   0.351   5.757  15.537 -0.6179 -0.5252 -1.2778
 4752TIP3    H235748   0.406   5.720  15.400 -0.0409  0.4734 -1.3261
 4753TIP3   OH235749   6.433   3.016  16.655  0.0628  0.7977  0.2480
 4753TIP3    H135750   6.475   3.095  16.620  0.1468  0.6581  0.0289
 4753TIP3    H235751   6.362   3.049  16.710  0.8002  1.0436  1.0712
 4754TIP3   OH235752   2.285   2.840   4.251  0.2189 -0.7155 -0.5649
 4754TIP3    H135753   2.281   2.921   4.303 -1.6498  0.4192 -2.3059
 4754TIP3    H235754   2.378   2.827   4.235  0.5731  1.4584 -0.6747
 4755TIP3   OH235755   0.884   4.087   2.199  0.0592  0.7275 -0.7961
 4755TIP3    H135756   0.897   3.993   2.210 -0.1212  0.7507 -0.3573
 4755TIP3    H235757   0.792   4.095   2.175 -0.5013  0.9331  1.2484
 4756TIP3   OH235758   0.107   0.194  14.222 -0.1180  0.4931  0.6890
 4756TIP3    H135759   0.192   0.209  14.263  1.0138  0.9410 -1.6119
 4756TIP3    H235760   0.057   0.274  14.239 -0.1979  0.1522  2.2195
 4757TIP3   OH235761   1.512   3.471   4.656 -0.0932  0.4664  0.0511
 4757TIP3    H135762   1.516   3.407   4.726  1.7312  1.0151  0.5078
 4757TIP3    H235763   1.601   3.507   4.651 -1.2766  3.9989  0.8230
 4758TIP3   OH235764   2.881   2.306   3.187  0.3989  0.5740  0.0177
 4758TIP3    H135765   2.854   2.382   3.136  1.0152  1.3058  0.7637
 4758TIP3    H235766   2.892   2.339   3.276  0.4097 -0.4489  0.4042
 4759TIP3   OH235767   4.310   4.508  14.151 -0.0009 -0.2681  0.0385
 4759TIP3    H135768   4.386   4.459  14.181  0.3539  1.0791  1.4722
 4759TIP3    H235769   4.240   4.484  14.211 -0.4740 -0.7948 -0.7075
 4760TIP3   OH235770   4.664   0.316   1.799 -0.7468  0.3737  0.8190
 4760TIP3    H135771   4.629   0.405   1.803 -0.4751  0.4988  0.4446
 4760TIP3    H235772   4.652   0.289   1.708  3.3776  1.7935 -0.3653
 4761TIP3   OH235773   5.003   5.210  15.429 -0.0927  0.0164  0.2344
 4761TIP3    H135774   4.953   5.196  15.510  0.1876  0.3423  0.4659
 4761TIP3    H235775   4.995   5.304  15.413 -0.8271 -0.1770 -0.5612
 4762TIP3   OH235776   5.969   4.388  13.619  0.4131  0.2350 -0.5015
 4762TIP3    H135777   5.898   4.408  13.681  0.5316  2.2170 -0.9335
 4762TIP3    H235778   5.982   4.293  13.628 -1.7048 -0.0582  0.2071
 4763TIP3   OH235779   5.617   1.454  16.473  0.3503 -0.3567 -0.4208
 4763TIP3    H135780   5.707   1.450  16.507  1.0520  0.4774 -2.0735
 4763TIP3    H235781   5.605   1.372  16.426  0.1730 -0.5432 -0.0563
 4764TIP3   OH235782   1.543   6.141   4.173  0.7078 -0.6573  0.2629
 4764TIP3    H135783   1.568   6.049   4.186  0.6291 -0.5352  1.4540
 4764TIP3    H235784   1.454   6.137   4.137  0.3282 -1.0533  1.2171
 4765TIP3   OH235785   2.500   0.860  12.525 -0.1055 -0.2423  0.0558
 4765TIP3    H135786   2.438   0.882  12.595 -0.0285  1.8382 -0.4523
 4765TIP3    H235787   2.586   0.875  12.563 -0.0497  0.4442 -0.3201
 4766TIP3   OH235788   0.164   5.755  12.108  0.3921  0.4248  0.1119
 4766TIP3    H135789   0.123   5.678  12.147 -0.3178 -0.0128 -1.4138
 4766TIP3    H235790   0.176   5.815  12.181 -1.2318 -0.2045  0.9476
 4767TIP3   OH235791   1.165   5.832   3.161 -0.0784 -0.3766  0.0266
 4767TIP3    H135792   1.210   5.749   3.178  1.2734  0.7748  2.5316
 4767TIP3    H235793   1.234   5.891   3.133 -0.6676  0.4564  0.3006
 4768TIP3   OH235794   6.001   0.443  13.757 -0.4754 -0.2024 -0.4640
 4768TIP3    H135795   5.964   0.498  13.827 -1.7808 -0.1956 -1.1268
 4768TIP3    H235796   5.938   0.371  13.747 -0.4413 -0.0768 -1.7778
 4769TIP3   OH235797   4.725   0.029   5.975  0.1530 -0.2102  0.9968
 4769TIP3    H135798   4.660   0.099   5.965  1.3805  0.7414 -1.2512
 4769TIP3    H235799   4.763   0.044   6.062 -0.4294  1.2072  1.0463
 4770TIP3   OH235800   6.702   4.895   0.871  0.0744  0.1996 -0.0044
 4770TIP3    H135801   6.729   4.986   0.864 -1.2049  0.5354 -1.0536
 4770TIP3    H235802   6.606   4.898   0.869 -0.0284 -1.0849  1.2492
 4771TIP3   OH235803   3.697   0.637  15.449 -0.0570 -0.1520 -0.0744
 4771TIP3    H135804   3.741   0.552  15.446  0.0692 -0.0653 -1.5216
 4771TIP3    H235805   3.604   0.616  15.436 -0.0337 -0.0736 -0.3681
 4772TIP3   OH235806   5.831   1.250   6.103 -0.3057  0.1942  0.7082
 4772TIP3    H135807   5.846   1.336   6.065 -0.6533 -0.1369 -0.2066
 4772TIP3    H235808   5.863   1.257   6.193 -0.5631  1.3470  0.7240
 4773TIP3   OH235809   2.565   3.137  11.104  0.2859  0.2400  0.0005
 4773TIP3    H135810   2.502   3.109  11.170  0.4661 -0.8118 -0.2643
 4773TIP3    H235811   2.568   3.065  11.041 -0.1811  1.3824 -1.3830
 4774TIP3   OH235812   0.804   5.343   3.884  0.3866  0.0653 -0.1152
 4774TIP3    H135813   0.876   5.364   3.824  1.2966 -1.8531  0.2120
 4774TIP3    H235814   0.759   5.426   3.898  0.9529  0.8369 -2.3925
 4775TIP3   OH235815   1.712   3.401   5.504  0.0928  0.0006 -0.3811
 4775TIP3    H135816   1.780   3.350   5.460  1.8107  0.4051  1.6389
 4775TIP3    H235817   1.724   3.381   5.597 -0.3337  2.6579  0.3313
 4776TIP3   OH235818   6.383   6.209   0.148  0.1621 -0.1650 -0.0267
 4776TIP3    H135819   6.395   6.245   0.060 -0.0517 -0.8647 -0.3502
 4776TIP3    H235820   6.470   6.177   0.173  0.3289  0.4663  0.2185
 4777TIP3   OH235821   0.553   6.294  16.989 -0.0232 -0.4411  0.3837
 4777TIP3    H135822   0.558   6.248  17.072  0.7656  0.5983  0.9369
 4777TIP3    H235823   0.542   6.225  16.923  1.2710 -1.4147  1.1579
 4778TIP3   OH235824   1.288   1.446  11.019  0.2789 -0.3480  0.2021
 4778TIP3    H135825   1.378   1.455  10.990 -0.1305  1.3371 -0.6689
 4778TIP3    H235826   1.241   1.410  10.944 -0.2859  1.5157 -0.3880
 4779TIP3   OH235827   0.660   3.972   6.074 -0.1766  0.1143  0.2259
 4779TIP3    H135828   0.621   3.919   6.004  0.6337  0.0427 -0.1789
 4779TIP3    H235829   0.753   3.951   6.072 -0.0781  0.4300  1.0598
 4780TIP3   OH235830   5.000   3.631  13.699  0.1410 -0.5308 -0.0117
 4780TIP3    H135831   5.079   3.579  13.712  1.0924  0.8611  0.0371
 4780TIP3    H235832   5.015   3.710  13.751 -1.1247 -0.0717 -0.3102
 4781TIP3   OH235833   5.395   0.166   2.441 -0.0696 -0.2899  0.2023
 4781TIP3    H135834   5.343   0.199   2.514 -1.3055 -1.0046 -0.3155
 4781TIP3    H235835   5.416   0.243   2.389  0.8792  0.2295  1.3383
 4782TIP3   OH235836   0.550   5.578   0.370  0.4520 -0.0392  0.3430
 4782TIP3    H135837   0.487   5.616   0.432  1.3707 -0.4808  1.5899
 4782TIP3    H235838   0.631   5.570   0.420  1.6704  0.9503 -1.3715
 4783TIP3   OH235839   1.061   5.553   0.752 -0.3568  0.0304 -0.0351
 4783TIP3    H135840   1.098   5.480   0.800  1.3493  0.4515 -0.6638
 4783TIP3    H235841   0.968   5.553   0.777  0.0900 -0.8702  1.8185
 4784TIP3   OH235842   3.626   3.585  15.382 -0.1880  0.7724  0.2162
 4784TIP3    H135843   3.710   3.607  15.422 -0.5099  1.4782  0.5188
 4784TIP3    H235844   3.568   3.657  15.405 -1.0428  0.0166  0.4969
 4785TIP3   OH235845   0.737   6.019  14.060  0.5129  0.5158 -0.0739
 4785TIP3    H135846   0.826   6.034  14.090  0.5319 -0.3298  0.3022
 4785TIP3    H235847   0.721   6.089  13.996  1.2619  0.9659  0.2236
 4786TIP3   OH235848   3.855   2.309  11.170  0.0819 -0.9139  0.8027
 4786TIP3    H135849   3.872   2.223  11.132  1.7732 -0.5333  0.5923
 4786TIP3    H235850   3.760   2.320  11.164 -0.1909 -2.8407  1.0535
 4787TIP3   OH235851   3.007   5.590  14.294 -0.1318  0.2854  0.8373
 4787TIP3    H135852   3.016   5.639  14.376  3.2329 -0.0585  0.8262
 4787TIP3    H235853   2.996   5.656  14.227  1.5589  0.9109  1.1315
 4788TIP3   OH235854   3.450   3.786  16.694  0.1423  0.3302  0.4946
 4788TIP3    H135855   3.519   3.851  16.684 -0.5168  1.1615  1.2630
 4788TIP3    H235856   3.369   3.837  16.701 -0.7686 -0.6460 -1.7745
 4789TIP3   OH235857   2.503   6.033   3.633 -0.9515  0.0978 -0.1939
 4789TIP3    H135858   2.408   6.020   3.627 -0.8825 -0.1822 -0.7365
 4789TIP3    H235859   2.515   6.081   3.715 -1.4682 -0.8298  0.4506
 4790TIP3   OH235860   4.216   1.201   6.001  0.0091  0.5316  0.5146
 4790TIP3    H135861   4.278   1.240   6.063  1.8776  0.9471 -1.5049
 4790TIP3    H235862   4.173   1.276   5.960 -0.4586  0.2910  0.5615
 4791TIP3   OH235863   5.837   4.337   5.505  0.3768  0.0455  0.0697
 4791TIP3    H135864   5.792   4.415   5.471  1.6721  1.1169  0.7398
 4791TIP3    H235865   5.778   4.304   5.573 -0.5879 -0.0901 -0.7942
 4792TIP3   OH235866   3.595   3.977   1.053 -0.3866  0.8110  0.4426
 4792TIP3    H135867   3.662   3.935   1.108  0.7368  1.0245 -0.7231
 4792TIP3    H235868   3.637   3.989   0.969 -2.2700 -0.0655 -0.6965
 4793TIP3   OH235869   5.296   5.525   5.899  0.3562 -0.1187  0.1350
 4793TIP3    H135870   5.213   5.511   5.854  0.6740 -2.3526  0.1280
 4793TIP3    H235871   5.272   5.531   5.992  0.2049 -1.3082  0.1875
 4794TIP3   OH235872   1.104   5.956   4.386  0.3254 -0.4355 -0.3331
 4794TIP3    H135873   1.037   5.981   4.323 -0.4123  2.0984  1.3180
 4794TIP3    H235874   1.056   5.920   4.460  0.4799  2.4998  1.3834
 4795TIP3   OH235875   3.574   1.314  12.729 -0.0588 -0.6362 -0.4406
 4795TIP3    H135876   3.561   1.409  12.728 -2.1779 -0.8843 -1.1490
 4795TIP3    H235877   3.588   1.291  12.637  0.4468 -1.0290 -0.2727
 4796TIP3   OH235878   4.675   5.333  14.921 -0.0164  0.1178  0.3225
 4796TIP3    H135879   4.723   5.396  14.974  0.1942  0.1620  0.0837
 4796TIP3    H235880   4.585   5.366  14.921 -0.0237  0.0988  0.6753
 4797TIP3   OH235881   0.418   5.063  13.182 -0.5936  0.0721  0.1447
 4797TIP3    H135882   0.366   5.116  13.243 -0.3887  1.6892 -1.0324
 4797TIP3    H235883   0.494   5.035  13.233 -1.2773 -0.0820  1.1124
 4798TIP3   OH235884   3.984   5.346   4.330  0.1640 -0.4445  0.3678
 4798TIP3    H135885   4.024   5.408   4.269 -1.8613 -1.2444 -1.9326
 4798TIP3    H235886   3.934   5.401   4.391 -3.5965  0.4422 -3.0461
 4799TIP3   OH235887   1.059   6.848   1.699  0.3386 -0.1565 -0.3921
 4799TIP3    H135888   1.004   6.769   1.698  0.4536 -0.2399 -0.0798
 4799TIP3    H235889   0.997   6.920   1.713  0.0054 -0.0074 -2.3581
 4800TIP3   OH235890   0.594   0.127   2.096  0.0984  0.0505  0.2742
 4800TIP3    H135891   0.685   0.110   2.071  0.0251 -0.4434  0.3253
 4800TIP3    H235892   0.563   0.043   2.130 -0.0089  0.5193  1.3868
 4801TIP3   OH235893   4.104   1.846   6.455 -0.2347 -0.4288  0.4171
 4801TIP3    H135894   4.099   1.793   6.376 -0.8161 -1.5188  1.1680
 4801TIP3    H235895   4.178   1.811   6.504 -1.7312 -1.8399  1.7922
 4802TIP3   OH235896   0.093   1.522  11.312 -0.1181  0.3225 -0.1100
 4802TIP3    H135897   0.065   1.612  11.297 -1.2632 -0.0688 -0.3988
 4802TIP3    H235898   0.012   1.471  11.317  0.4600 -0.5729  0.9079
 4803TIP3   OH235899   3.211   4.977   3.304 -0.3314 -0.2322  0.3079
 4803TIP3    H135900   3.146   4.994   3.372 -0.6008  1.2395 -0.2672
 4803TIP3    H235901   3.241   5.064   3.277  2.0882 -0.8494  0.7284
 4804TIP3   OH235902   5.887   2.611  16.754  0.3431 -0.4885 -0.3309
 4804TIP3    H135903   5.941   2.548  16.706  0.0090 -1.1997  0.2130
 4804TIP3    H235904   5.932   2.623  16.837 -0.3532 -1.1449  0.1575
 4805TIP3   OH235905   2.486   4.408   1.677  0.1860  0.2669 -0.8761
 4805TIP3    H135906   2.443   4.428   1.593 -1.5720 -2.9911 -0.9311
 4805TIP3    H235907   2.521   4.320   1.664  1.8230  0.5669  1.1579
 4806TIP3   OH235908   6.369   0.756   1.506  0.3032 -0.4418  0.2154
 4806TIP3    H135909   6.373   0.774   1.412 -1.1840 -1.2287 -0.0284
 4806TIP3    H235910   6.276   0.743   1.524  0.5212 -0.0048  1.8694
 4807TIP3   OH235911   2.760   2.487  13.938 -0.1844  0.3162  0.0991
 4807TIP3    H135912   2.793   2.530  13.859 -1.2012 -0.8644 -1.0125
 4807TIP3    H235913   2.741   2.559  13.999 -0.6446  1.3500 -1.2274
 4808TIP3   OH235914   4.176   0.720   3.321  0.2017 -0.3158 -0.1400
 4808TIP3    H135915   4.227   0.788   3.367  0.4676 -1.3301  1.1411
 4808TIP3    H235916   4.218   0.712   3.236 -0.5877  1.9647 -0.8135
 4809TIP3   OH235917   4.413   2.949   1.916 -0.3036 -0.6709 -0.0705
 4809TIP3    H135918   4.482   3.006   1.882  0.9462 -1.0761  1.6718
 4809TIP3    H235919   4.371   2.914   1.838 -0.1516  1.4494 -1.1980
 4810TIP3   OH235920   4.904   1.365   5.673 -0.7447  0.7944 -0.0291
 4810TIP3    H135921   4.928   1.453   5.645  1.4374 -0.7049 -3.4899
 4810TIP3    H235922   4.939   1.357   5.761  2.4500  2.2265 -1.0405
 4811TIP3   OH235923   4.860   5.297  12.376  0.1505 -0.2236  0.1254
 4811TIP3    H135924   4.810   5.247  12.312  1.4643  0.1911 -1.2714
 4811TIP3    H235925   4.888   5.231  12.440  1.5860 -1.2915 -1.5178
 4812TIP3   OH235926   4.334   0.966  13.502  0.1094  0.3628 -0.6971
 4812TIP3    H135927   4.268   0.998  13.441 -1.1708 -2.3909 -0.9216
 4812TIP3    H235928   4.418   0.987  13.460 -0.6764  1.4373 -1.7805
 4813TIP3   OH235929   4.153   2.932  16.144  0.4984 -0.4293 -0.0885
 4813TIP3    H135930   4.241   2.936  16.181  0.7749 -0.7106 -0.6978
 4813TIP3    H235931   4.101   2.888  16.211  1.1526 -1.5801 -0.3103
 4814TIP3   OH235932   6.524   1.289  16.473  0.1145  0.2548 -0.2697
 4814TIP3    H135933   6.519   1.341  16.393 -2.7537  2.3654  1.1118
 4814TIP3    H235934   6.475   1.209  16.453 -2.1272  1.5484 -0.1695
 4815TIP3   OH235935   4.009   1.698  15.540 -0.3293 -0.1840  0.6511
 4815TIP3    H135936   4.095   1.739  15.533 -1.0071  1.2050  0.2368
 4815TIP3    H235937   4.028   1.604  15.545  1.0950 -0.1856 -2.5829
 4816TIP3   OH235938   1.659   1.392   5.543 -0.5040  0.7775  0.2702
 4816TIP3    H135939   1.598   1.330   5.502  0.1003  0.7425 -0.6044
 4816TIP3    H235940   1.743   1.346   5.544 -0.3403  1.0817  0.8524
 4817TIP3   OH235941   4.700   6.050   0.669 -0.0003  0.1698 -0.1307
 4817TIP3    H135942   4.649   6.001   0.604 -1.2141  2.1353 -0.7860
 4817TIP3    H235943   4.787   6.011   0.667 -0.6845 -1.3800 -1.1846
 4818TIP3   OH235944   0.755   6.099  13.655  0.7476  0.0739  0.1951
 4818TIP3    H135945   0.850   6.111  13.654  1.2760 -2.4372  3.4646
 4818TIP3    H235946   0.727   6.133  13.740 -1.0608 -0.4867 -0.1302
 4819TIP3   OH235947   6.618   1.021   1.686  0.1931  0.3662 -0.5602
 4819TIP3    H135948   6.656   0.952   1.740 -0.0007 -0.3417 -1.2815
 4819TIP3    H235949   6.625   1.101   1.737 -0.8123 -0.4299  0.8932
 4820TIP3   OH235950   0.078   0.078   5.387  0.0392 -0.3796 -0.1855
 4820TIP3    H135951   0.156   0.133   5.390  0.9080 -1.4760  3.8534
 4820TIP3    H235952   0.006   0.136   5.411  0.1614 -0.0512 -0.6058
 4821TIP3   OH235953   4.756   1.937   1.335 -0.4033  0.2814 -0.3995
 4821TIP3    H135954   4.830   1.939   1.274  0.8666  3.1940  1.0433
 4821TIP3    H235955   4.780   1.870   1.399  0.8826  0.9881 -0.1052
 4822TIP3   OH235956   3.727   0.340  13.338  0.9176  0.2494  0.2541
 4822TIP3    H135957   3.736   0.431  13.307  1.1950  0.1106 -0.0854
 4822TIP3    H235958   3.681   0.348  13.421  1.0238  0.7117  0.2762
 4823TIP3   OH235959   1.345   1.569   3.523  0.4771  0.6754 -0.2149
 4823TIP3    H135960   1.311   1.480   3.514 -0.1154  0.8599  0.1256
 4823TIP3    H235961   1.428   1.558   3.568 -0.2764  0.3906  1.1654
 4824TIP3   OH235962   6.242   5.402   6.005  0.1051  0.2104  0.0141
 4824TIP3    H135963   6.253   5.433   5.915 -2.0282  0.6436 -0.1516
 4824TIP3    H235964   6.308   5.334   6.016 -1.6597 -2.2788 -3.0576
 4825TIP3   OH235965   2.857   4.975   3.121  0.5666 -0.5363 -0.1113
 4825TIP3    H135966   2.887   5.058   3.084 -1.2933 -0.4109 -1.4628
 4825TIP3    H235967   2.774   4.996   3.163  0.6805 -1.4897  0.6176
 4826TIP3   OH235968   4.293   5.327   2.184  0.4195  0.4674  0.1931
 4826TIP3    H135969   4.247   5.280   2.113  0.5105  1.3038 -0.4255
 4826TIP3    H235970   4.253   5.414   2.185  1.9400  1.1974 -0.3101
 4827TIP3   OH235971   3.801   2.784  14.907 -0.3194 -0.6841  0.2981
 4827TIP3    H135972   3.718   2.781  14.858 -0.2831 -0.2198  0.1994
 4827TIP3    H235973   3.799   2.706  14.962 -1.4584  0.0023  1.2951
 4828TIP3   OH235974   1.833   3.459   0.256  0.0723  0.4041  0.1641
 4828TIP3    H135975   1.847   3.543   0.212  0.2481 -0.1055 -0.7806
 4828TIP3    H235976   1.811   3.398   0.185  0.8261 -0.5431  0.7199
 4829TIP3   OH235977   0.372   0.538  12.900  0.0043 -0.3951  0.1055
 4829TIP3    H135978   0.292   0.493  12.871  0.7462 -1.2478 -0.6956
 4829TIP3    H235979   0.343   0.625  12.925 -1.4278 -1.1642  1.3239
 4830TIP3   OH235980   4.884   1.548  14.675  0.4822  0.1717  0.2248
 4830TIP3    H135981   4.792   1.561  14.695  0.5476  0.1302  0.5642
 4830TIP3    H235982   4.894   1.581  14.585  0.0711 -0.1361  0.0625
 4831TIP3   OH235983   4.463   1.623  16.287 -0.1829 -0.4563  0.0343
 4831TIP3    H135984   4.473   1.557  16.356 -1.0093 -0.4738  0.1443
 4831TIP3    H235985   4.418   1.696  16.330  0.3268  0.0083 -0.2034
 4832TIP3   OH235986   1.119   3.706  12.031  0.3479 -0.8810 -0.0945
 4832TIP3    H135987   1.048   3.641  12.031 -1.0813  0.5967  0.2352
 4832TIP3    H235988   1.129   3.730  11.939 -0.7015 -0.0041 -0.0138
 4833TIP3   OH235989   5.005   2.503  15.206 -0.3683  0.3668  0.1614
 4833TIP3    H135990   5.035   2.425  15.159 -1.0521  1.5703 -2.4618
 4833TIP3    H235991   5.086   2.544  15.237  0.1010 -0.5947  0.2410
 4834TIP3   OH235992   5.655   4.995   0.464  0.2680  0.1504  0.0083
 4834TIP3    H135993   5.649   4.957   0.551 -0.8282  1.8609  0.7265
 4834TIP3    H235994   5.580   4.958   0.417  0.7355 -0.6015 -0.1756
 4835TIP3   OH235995   4.682   3.058   2.581 -0.3723  0.4265 -0.1529
 4835TIP3    H135996   4.643   3.054   2.494 -0.2123  0.0793 -0.2119
 4835TIP3    H235997   4.738   3.136   2.580  1.5621 -0.8714 -1.1930
 4836TIP3   OH235998   2.926   0.675   0.570 -0.4545 -0.6683 -0.2604
 4836TIP3    H135999   2.922   0.681   0.475 -1.1795  0.8133 -0.1615
 4836TIP3    H236000   2.939   0.765   0.600  3.0767 -1.4279  0.9424
 4837TIP3   OH236001   0.611   4.305  16.712 -0.1366 -0.5165  0.1035
 4837TIP3    H136002   0.585   4.354  16.634  0.6129 -0.0448  0.1366
 4837TIP3    H236003   0.701   4.333  16.729  0.1944 -1.6546  0.3262
 4838TIP3   OH236004   1.663   0.843   6.411 -0.0204 -0.3722  0.2068
 4838TIP3    H136005   1.685   0.930   6.443  0.4681 -0.6941  0.7770
 4838TIP3    H236006   1.705   0.837   6.325  1.3673 -0.6348  0.8798
 4839TIP3   OH236007   0.174   3.931   5.562  0.4083  0.3542 -0.0544
 4839TIP3    H136008   0.146   3.904   5.475  1.1010  0.6555 -0.3790
 4839TIP3    H236009   0.202   4.022   5.551  0.1927  0.4981  0.5524
 4840TIP3   OH236010   0.140   0.199   5.657 -0.6689 -0.4858  0.1211
 4840TIP3    H136011   0.104   0.110   5.667 -0.8539 -0.5345 -0.9161
 4840TIP3    H236012   0.070   0.249   5.616  0.1530 -0.3940 -1.2457
 4841TIP3   OH236013   5.215   6.650  13.784  0.0293 -0.2411  0.0561
 4841TIP3    H136014   5.215   6.724  13.723 -1.9651 -0.6544 -0.5183
 4841TIP3    H236015   5.246   6.576  13.732 -2.2072 -0.7194 -0.7337
 4842TIP3   OH236016   4.877   0.887  14.087 -0.7547 -0.4476 -0.4823
 4842TIP3    H136017   4.872   0.850  13.999  1.9064 -1.8827 -0.1655
 4842TIP3    H236018   4.875   0.811  14.145  2.4253 -0.0602  0.3469
 4843TIP3   OH236019   1.859   2.583   4.147 -0.0753  0.4131  0.4584
 4843TIP3    H136020   1.922   2.547   4.085 -1.4380 -0.6180 -0.3826
 4843TIP3    H236021   1.863   2.678   4.134  1.1733  0.3560  0.3239
 4844TIP3   OH236022   6.000   4.303   2.277 -0.9923  0.1497  0.5054
 4844TIP3    H136023   5.939   4.344   2.338 -0.0733  1.5185  0.5468
 4844TIP3    H236024   5.975   4.336   2.191 -1.5697 -0.8909  0.2529
 4845TIP3   OH236025   1.682   6.740  14.861  0.0666 -0.3002  0.1352
 4845TIP3    H136026   1.685   6.646  14.845 -0.3029 -0.3117  0.1225
 4845TIP3    H236027   1.714   6.750  14.950 -0.1167 -0.4627  0.2208
 4846TIP3   OH236028   5.168   3.766  13.475 -0.0997 -0.3096  0.5271
 4846TIP3    H136029   5.215   3.684  13.461  0.8207  0.5713 -2.3130
 4846TIP3    H236030   5.083   3.739  13.511  0.5655 -2.3941  0.6775
 4847TIP3   OH236031   4.801   6.845  15.147 -0.2847  0.3006 -0.4354
 4847TIP3    H136032   4.763   6.852  15.234 -2.2020  2.6604 -1.3288
 4847TIP3    H236033   4.772   6.760  15.115 -3.3439  1.1596 -0.2909
 4848TIP3   OH236034   1.142   2.452  13.830  0.5993 -0.3920  0.4416
 4848TIP3    H136035   1.131   2.507  13.752  1.7673 -1.2632 -0.3705
 4848TIP3    H236036   1.205   2.385  13.803  1.6310 -0.2578  2.3791
 4849TIP3   OH236037   2.965   1.458  16.799 -0.2581 -0.4556  0.0812
 4849TIP3    H136038   2.892   1.512  16.830 -0.7161  0.0258 -1.7017
 4849TIP3    H236039   2.997   1.413  16.878  0.0209  2.2326  1.6285
 4850TIP3   OH236040   4.562   0.166   2.028 -0.1559 -0.2028 -0.4056
 4850TIP3    H136041   4.633   0.177   1.965  0.4741  1.2753  0.4937
 4850TIP3    H236042   4.529   0.254   2.044 -1.4924 -0.7411  0.0103
 4851TIP3   OH236043   6.675   1.961  11.103  0.8824  0.2819  0.2744
 4851TIP3    H136044   6.667   2.000  11.190 -1.5201 -0.0965  0.3056
 4851TIP3    H236045   6.585   1.955  11.071  1.5200 -1.3709 -1.4473
 4852TIP3   OH236046   6.838   1.278   3.091  1.2492  0.0803  0.3601
 4852TIP3    H136047   6.744   1.276   3.106  0.9665  1.8815 -0.8754
 4852TIP3    H236048   6.877   1.264   3.177 -0.1457  0.2338  1.0305
 4853TIP3   OH236049   3.820   6.574   5.455 -0.5219 -0.1328 -0.3793
 4853TIP3    H136050   3.748   6.583   5.393  0.9747  0.9585 -2.0334
 4853TIP3    H236051   3.898   6.599   5.406  1.0864 -1.6689  1.2248
 4854TIP3   OH236052   5.000   3.796  15.449  0.0487 -0.3994  0.5191
 4854TIP3    H136053   5.003   3.738  15.373 -1.4848 -0.5467  0.5501
 4854TIP3    H236054   5.092   3.815  15.469  0.4756  0.2421 -1.8141
 4855TIP3   OH236055   1.070   0.134  12.369 -0.6012 -0.2034  0.0287
 4855TIP3    H136056   1.030   0.116  12.284 -0.7615  0.6519 -0.0859
 4855TIP3    H236057   0.998   0.167  12.423 -0.3792 -0.1676  0.3057
 4856TIP3   OH236058   2.948   1.513   1.257 -0.1871  0.0182  0.3015
 4856TIP3    H136059   2.861   1.478   1.242  0.1045 -0.6582  0.1514
 4856TIP3    H236060   3.007   1.440   1.238  0.5154  0.9725 -1.3898
 4857TIP3   OH236061   4.302   4.171  14.104  0.4703 -0.2558 -0.6667
 4857TIP3    H136062   4.379   4.120  14.128  0.2653  0.0644  0.8175
 4857TIP3    H236063   4.228   4.121  14.138  0.2621  0.9505  0.8094
 4858TIP3   OH236064   0.584   5.189   3.816 -0.1809  0.6431 -0.3696
 4858TIP3    H136065   0.553   5.259   3.757 -0.5183  0.2612 -0.6445
 4858TIP3    H236066   0.677   5.209   3.829  0.7502 -0.9647 -3.5403
 4859TIP3   OH236067   5.911   1.802  12.707  0.0170 -0.4741 -0.1972
 4859TIP3    H136068   5.999   1.772  12.731  0.5284 -0.6959 -2.1646
 4859TIP3    H236069   5.920   1.897  12.699 -0.0604 -0.4408  0.0965
 4860TIP3   OH236070   6.687   5.731   3.836  0.1734  0.1819 -0.9911
 4860TIP3    H136071   6.680   5.645   3.879  0.2562 -0.0696 -1.4702
 4860TIP3    H236072   6.604   5.774   3.856  0.6077  0.4751  0.2647
 4861TIP3   OH236073   5.129   0.047  13.274 -0.5356 -0.2264 -0.1966
 4861TIP3    H136074   5.213   0.033  13.231 -0.6838  1.4484 -1.1214
 4861TIP3    H236075   5.124  -0.021  13.341  1.2211 -0.7974 -0.6053
 4862TIP3   OH236076   6.367   2.752  15.941 -0.2852 -0.0386  0.1490
 4862TIP3    H136077   6.404   2.821  15.885 -1.5384  0.5165 -0.0288
 4862TIP3    H236078   6.315   2.800  16.006  1.1448 -0.6680  1.8320
 4863TIP3   OH236079   6.444   0.864  12.383  0.3398  0.2359 -0.4880
 4863TIP3    H136080   6.408   0.883  12.296  1.4064 -0.0724 -1.0081
 4863TIP3    H236081   6.502   0.938  12.402 -0.9522  1.0211  0.5995
 4864TIP3   OH236082   1.264   0.205   3.000 -0.5073  0.1539  0.1274
 4864TIP3    H136083   1.172   0.229   3.004 -0.4387  0.2791  1.1155
 4864TIP3    H236084   1.264   0.114   2.970 -0.9131  0.3812 -0.5734
 4865TIP3   OH236085   3.639   1.685  14.411  0.2142  0.1165 -0.5408
 4865TIP3    H136086   3.692   1.606  14.403 -1.8041 -1.3636 -0.1572
 4865TIP3    H236087   3.566   1.672  14.350 -0.3446  1.5404 -0.2333
 4866TIP3   OH236088   4.705   2.932   5.778  0.4285  0.1187  0.2116
 4866TIP3    H136089   4.693   2.951   5.871  1.3311  0.8225  0.2014
 4866TIP3    H236090   4.617   2.932   5.742 -0.1053 -1.7938  1.3497
 4867TIP3   OH236091   5.770   5.357   1.146  1.1891  0.1162 -0.7444
 4867TIP3    H136092   5.713   5.287   1.112 -2.4965  2.1532  0.6780
 4867TIP3    H236093   5.726   5.438   1.120  2.9504  1.8507  1.3496
 4868TIP3   OH236094   3.742   5.017   2.548 -0.2522 -0.4306  0.6141
 4868TIP3    H136095   3.829   5.055   2.542 -0.3822 -0.3135 -0.8708
 4868TIP3    H236096   3.686   5.090   2.577 -0.0493 -0.2044  0.4356
 4869TIP3   OH236097   1.693   2.700   3.293  0.7547 -0.1974 -0.0361
 4869TIP3    H136098   1.743   2.622   3.316  0.3261  0.0304  1.7916
 4869TIP3    H236099   1.651   2.678   3.210  0.9856 -1.7288  0.2224
 4870TIP3   OH236100   3.081   1.131   2.308 -0.3117  0.1413  0.1519
 4870TIP3    H136101   3.002   1.094   2.349 -0.2195 -1.0760 -0.7092
 4870TIP3    H236102   3.060   1.224   2.296 -1.2986  0.0103  0.6642
 4871TIP3   OH236103   4.876   1.101   5.574  0.4729  1.2799  0.2877
 4871TIP3    H136104   4.853   1.043   5.646  0.1163  1.3651  0.2406
 4871TIP3    H236105   4.865   1.189   5.610  0.6725  1.3210  0.2492
 4872TIP3   OH236106   4.759   1.602  14.226  0.1579 -0.3264  0.2540
 4872TIP3    H136107   4.678   1.591  14.275 -0.7494  2.2557 -0.4835
 4872TIP3    H236108   4.776   1.516  14.187 -1.5139 -1.2474  1.4475
 4873TIP3   OH236109   5.038   6.557   1.507 -0.5192 -0.2427  0.1769
 4873TIP3    H136110   5.085   6.615   1.567  0.3553  0.2106 -0.9189
 4873TIP3    H236111   5.076   6.575   1.421  0.1304 -2.7904 -0.1561
 4874TIP3   OH236112   5.485   0.084  12.625 -0.2781 -0.0462 -0.0626
 4874TIP3    H136113   5.521   0.156  12.677  1.5686  0.1695 -1.5330
 4874TIP3    H236114   5.558   0.023  12.614 -1.6130 -1.8915  0.5865
 4875TIP3   OH236115   5.246   5.277   0.721  0.3838  0.1030  0.0238
 4875TIP3    H136116   5.209   5.196   0.686 -2.8357  0.6832  1.7013
 4875TIP3    H236117   5.318   5.248   0.777 -0.1630 -1.5529 -0.0688
 4876TIP3   OH236118   0.146   1.576  11.984 -0.3551  0.2708  0.0823
 4876TIP3    H136119   0.102   1.512  11.928  1.1082 -1.0743  0.4039
 4876TIP3    H236120   0.239   1.557  11.974 -0.0083  0.5258  2.3124
 4877TIP3   OH236121   0.657   0.410   3.639 -0.2853  0.0574  0.3266
 4877TIP3    H136122   0.751   0.396   3.633 -0.5018 -1.1974 -0.5971
 4877TIP3    H236123   0.625   0.394   3.550 -1.6704 -2.2229  1.1493
 4878TIP3   OH236124   3.482   3.253   3.042  0.1185  0.1426 -0.6069
 4878TIP3    H136125   3.507   3.161   3.037 -0.5517 -0.1085  0.4080
 4878TIP3    H236126   3.559   3.301   3.011  1.1277 -0.6883  0.5423
 4879TIP3   OH236127   3.110   1.517   2.338  0.4923  0.2850 -0.8263
 4879TIP3    H136128   3.158   1.489   2.416 -0.0977  0.1913 -0.4861
 4879TIP3    H236129   3.087   1.435   2.293  1.4341  0.3691 -1.4735
 4880TIP3   OH236130   1.058   2.202   5.237 -0.4430 -0.3127  0.0325
 4880TIP3    H136131   1.060   2.270   5.170  0.5912 -0.7888 -0.4436
 4880TIP3    H236132   1.150   2.189   5.261 -0.8133 -0.0600  1.6457
 4881TIP3   OH236133   3.369   3.006   0.516 -0.1095 -0.3550  0.7944
 4881TIP3    H136134   3.356   2.939   0.449  1.7759 -0.3870  0.4194
 4881TIP3    H236135   3.311   2.978   0.588 -0.9161 -1.2211 -0.1492
 4882TIP3   OH236136   2.716   1.838  11.413  0.2770  0.2801  0.2226
 4882TIP3    H136137   2.766   1.890  11.350 -0.7867  1.6530  0.4745
 4882TIP3    H236138   2.653   1.899  11.451  0.2610 -0.7492  1.9466
 4883TIP3   OH236139   6.670   5.137  14.415 -0.1094  0.3312  0.1620
 4883TIP3    H136140   6.663   5.076  14.489 -1.6530  0.0817 -0.1523
 4883TIP3    H236141   6.708   5.085  14.345 -0.3734  0.0317  0.2370
 4884TIP3   OH236142   0.625   2.401   3.125  0.2186 -0.2618  0.3904
 4884TIP3    H136143   0.618   2.456   3.047 -2.8322  0.5490  1.0814
 4884TIP3    H236144   0.580   2.320   3.101 -0.8155  0.0213  1.2736
 4885TIP3   OH236145   1.949   2.180   0.592 -0.0935  0.0828  0.5599
 4885TIP3    H136146   1.977   2.186   0.683 -0.0139  0.4793  0.5109
 4885TIP3    H236147   1.976   2.093   0.563  0.7911  0.3375  0.6095
 4886TIP3   OH236148   5.483   4.924   5.838  0.0084 -0.3539  0.2029
 4886TIP3    H136149   5.540   5.001   5.839  0.9988 -1.0523  1.3506
 4886TIP3    H236150   5.542   4.851   5.858 -1.3231 -1.0586  1.7716
 4887TIP3   OH236151   2.378   4.730  15.825 -1.2113 -0.6212  0.4510
 4887TIP3    H136152   2.290   4.694  15.836 -2.0082  0.9060 -0.5818
 4887TIP3    H236153   2.435   4.654  15.815 -2.5526 -1.6170  0.2520
 4888TIP3   OH236154   6.814   6.131  16.728  0.0377  0.1666 -0.3494
 4888TIP3    H136155   6.894   6.164  16.768 -0.6684 -0.2259  1.5142
 4888TIP3    H236156   6.780   6.205  16.678  0.8954  0.7492 -0.1028
 4889TIP3   OH236157   0.001   4.410  14.163  0.3700 -0.1790 -0.4952
 4889TIP3    H136158   0.012   4.332  14.218 -2.3434 -0.0527  0.3509
 4889TIP3    H236159  -0.057   4.382  14.093 -0.3742  0.9638 -0.3637
 4890TIP3   OH236160   5.236   2.377  12.315 -0.5939 -0.4803 -0.3476
 4890TIP3    H136161   5.174   2.369  12.387 -1.4571 -0.2294 -1.0467
 4890TIP3    H236162   5.311   2.423  12.353 -1.6775  1.0514  0.0231
 4891TIP3   OH236163   3.150   4.433  14.168  0.0939 -0.4506 -0.0727
 4891TIP3    H136164   3.197   4.503  14.213  1.0885 -1.4649  0.5113
 4891TIP3    H236165   3.125   4.373  14.237 -0.7308 -0.6964 -0.5710
 4892TIP3   OH236166   0.152   2.866  15.748  0.6382  0.4598  0.1332
 4892TIP3    H136167   0.123   2.862  15.839  2.2293 -3.5346  0.6455
 4892TIP3    H236168   0.229   2.922  15.750  1.6401 -0.8764  1.6452
 4893TIP3   OH236169   4.544   5.270   2.663 -0.4248 -0.0831 -0.3845
 4893TIP3    H136170   4.470   5.238   2.715 -1.1895  1.1955 -0.6482
 4893TIP3    H236171   4.505   5.294   2.579  0.3872  0.0922 -0.7132
 4894TIP3   OH236172   2.751   3.778   5.813  0.4362 -0.3897  0.4388
 4894TIP3    H136173   2.724   3.698   5.858  3.7615 -1.7106  0.3822
 4894TIP3    H236174   2.764   3.750   5.722 -0.6329  0.8443 -0.1162
 4895TIP3   OH236175   6.708   6.715   2.313 -0.4930  0.2183  0.0272
 4895TIP3    H136176   6.627   6.727   2.264 -1.1067 -2.3784  0.2509
 4895TIP3    H236177   6.746   6.803   2.319 -3.0001  1.4255 -0.5336
 4896TIP3   OH236178   5.292   1.423   2.264  0.0159 -0.2346 -0.2211
 4896TIP3    H136179   5.290   1.454   2.173  0.2728  2.0754  0.4816
 4896TIP3    H236180   5.380   1.447   2.294 -0.2367 -0.5418  0.7699
 4897TIP3   OH236181   1.014   6.773  14.158 -0.2026  0.1541  0.1160
 4897TIP3    H136182   1.103   6.743  14.177 -1.1129 -0.8828  3.2383
 4897TIP3    H236183   0.960   6.694  14.160 -1.4572  0.9704 -0.0265
 4898TIP3   OH236184   3.178   0.545  14.420  0.4777 -0.2262  0.2157
 4898TIP3    H136185   3.148   0.624  14.375  0.0517  0.1128  1.0685
 4898TIP3    H236186   3.270   0.538  14.398  0.2014 -0.2702 -0.9899
 4899TIP3   OH236187   2.166   0.266  11.491 -0.4287 -0.2316  0.1157
 4899TIP3    H136188   2.090   0.212  11.510  0.8368 -2.0243  0.3018
 4899TIP3    H236189   2.237   0.228  11.542  0.6310  1.3721 -0.0665
 4900TIP3   OH236190   0.124   6.179  14.993 -0.2317  0.1647 -0.2259
 4900TIP3    H136191   0.092   6.254  15.043  1.5358  0.4560  0.5207
 4900TIP3    H236192   0.101   6.199  14.902  0.8569  1.9837 -0.1435
 4901TIP3   OH236193   5.291   5.140  12.656 -0.1178 -0.0353 -0.5181
 4901TIP3    H136194   5.386   5.140  12.669 -0.3908 -0.1147  2.0204
 4901TIP3    H236195   5.273   5.222  12.610  0.8565  2.1751  2.7369
 4902TIP3   OH236196   2.474   6.202  15.617  1.0684  0.4684  0.6410
 4902TIP3    H136197   2.486   6.141  15.545  0.4183  1.4844 -0.3617
 4902TIP3    H236198   2.501   6.153  15.695  1.5154 -0.7424 -0.2445
 4903TIP3   OH236199   0.422   0.530  12.164  0.0583  0.3822  0.7492
 4903TIP3    H136200   0.433   0.614  12.120  2.3061  0.1135  0.6951
 4903TIP3    H236201   0.329   0.526  12.184 -0.2170  2.5944  0.1974
 4904TIP3   OH236202   2.266   1.878  12.772  0.1711 -0.0399 -0.1036
 4904TIP3    H136203   2.190   1.938  12.771  0.3686  0.2162  0.1951
 4904TIP3    H236204   2.234   1.799  12.727 -0.5789 -0.3079  0.8651
 4905TIP3   OH236205   0.025   4.022   1.960 -0.2632 -0.2660  0.5409
 4905TIP3    H136206   0.043   3.940   1.915 -0.1019  0.3834 -0.6206
 4905TIP3    H236207  -0.054   4.005   2.011 -1.3487 -0.5935 -1.1838
 4906TIP3   OH236208   6.793   0.381  11.733  0.0527  0.7717 -0.4056
 4906TIP3    H136209   6.726   0.439  11.697  0.9271  0.2852 -3.0338
 4906TIP3    H236210   6.848   0.438  11.786 -0.9590  1.6644 -0.2753
 4907TIP3   OH236211   3.321   5.267  11.552  0.1005 -0.4327 -0.4737
 4907TIP3    H136212   3.415   5.274  11.538  0.1888  0.2698  0.3829
 4907TIP3    H236213   3.282   5.331  11.492  0.3909  1.6052  1.3930
 4908TIP3   OH236214   0.665   5.033  14.220 -0.0525 -0.0200 -0.1806
 4908TIP3    H136215   0.697   5.042  14.131 -2.4454  1.3088 -1.0070
 4908TIP3    H236216   0.619   4.948  14.221 -0.7568  0.3477 -0.5005
 4909TIP3   OH236217   1.421   4.977  16.355  0.3655 -0.1775 -0.8587
 4909TIP3    H136218   1.512   4.968  16.328  0.6660  0.1405  0.0333
 4909TIP3    H236219   1.423   4.981  16.450 -0.3188  2.2723 -0.8580
 4910TIP3   OH236220   3.657   4.729  16.598 -0.7685 -0.1365  0.0416
 4910TIP3    H136221   3.684   4.729  16.506  1.6312 -0.5439  0.6823
 4910TIP3    H236222   3.623   4.640  16.613 -3.7299  0.6767 -1.0305
 4911TIP3   OH236223   4.713   4.592   1.667 -0.4728  0.0807  0.2623
 4911TIP3    H136224   4.797   4.550   1.684  0.5888  1.9889 -0.0186
 4911TIP3    H236225   4.700   4.650   1.742 -3.4620 -2.8520  2.3216
 4912TIP3   OH236226   3.299   1.831  12.652  0.1604  0.1246  0.1334
 4912TIP3    H136227   3.377   1.818  12.706 -0.6410 -2.3914  0.8092
 4912TIP3    H236228   3.323   1.794  12.567 -0.5749 -1.6315  0.6482
 4913TIP3   OH236229   1.629   4.366   5.783 -0.3054 -0.3802  0.3385
 4913TIP3    H136230   1.699   4.398   5.726 -1.0030  1.5884  0.4734
 4913TIP3    H236231   1.565   4.438   5.783 -1.1720 -1.0999  2.1472
 4914TIP3   OH236232   5.318   3.244  12.988 -0.1526 -0.2918 -0.3386
 4914TIP3    H136233   5.408   3.217  12.973 -0.3075 -0.9566 -0.1211
 4914TIP3    H236234   5.296   3.206  13.073 -0.5102  0.2049 -0.2021
 4915TIP3   OH236235   6.662   2.328  12.974 -0.4964  0.2510 -0.3408
 4915TIP3    H136236   6.714   2.378  12.911 -1.3855  2.1028  0.3260
 4915TIP3    H236237   6.727   2.296  13.037  0.1801 -0.0687 -1.1701
 4916TIP3   OH236238   1.875   3.137  11.706 -0.0219  0.3169  0.1227
 4916TIP3    H136239   1.968   3.154  11.716 -0.3370  1.0053  2.5500
 4916TIP3    H236240   1.832   3.201  11.763 -1.9735 -0.2849 -0.5649
 4917TIP3   OH236241   3.717   2.651   5.087  0.7353  0.4658  0.3289
 4917TIP3    H136242   3.642   2.593   5.101 -0.3392  1.7745  0.3368
 4917TIP3    H236243   3.761   2.616   5.010  0.2415 -0.4618  0.4540
 4918TIP3   OH236244   2.970   2.317   0.126  0.3676  0.9300  0.0470
 4918TIP3    H136245   2.926   2.394   0.091 -1.3988 -0.2811 -0.5081
 4918TIP3    H236246   2.945   2.315   0.219 -1.4047 -0.1094 -0.4012
 4919TIP3   OH236247   4.901   1.575  11.210 -0.6803  0.2852 -0.1045
 4919TIP3    H136248   4.821   1.566  11.158 -0.0120 -0.9123 -0.9786
 4919TIP3    H236249   4.870   1.598  11.298 -2.0119 -0.5547 -0.3233
 4920TIP3   OH236250   5.642   2.329   2.098 -0.4139  0.2313 -0.0720
 4920TIP3    H136251   5.664   2.396   2.162  0.7928  0.3481 -0.5802
 4920TIP3    H236252   5.713   2.332   2.034 -1.0584 -0.5788 -0.8624
 4921TIP3   OH236253   6.583   6.224  13.568 -0.2646  0.1151  0.0362
 4921TIP3    H136254   6.574   6.310  13.527 -0.8956  0.0260 -0.0235
 4921TIP3    H236255   6.668   6.227  13.612  0.2806  0.3260 -1.0128
 4922TIP3   OH236256   6.557   2.073   0.705 -0.5942 -0.1062 -0.7300
 4922TIP3    H136257   6.514   2.149   0.666 -3.2220 -1.0587  0.0887
 4922TIP3    H236258   6.568   2.096   0.797 -0.9336 -0.5002 -0.5860
 4923TIP3   OH236259   4.872   5.748   5.577  0.3738  0.0544  0.6642
 4923TIP3    H136260   4.803   5.783   5.634  1.1954  0.5820  1.3681
 4923TIP3    H236261   4.909   5.825   5.534 -0.0508 -0.3141 -0.3931
 4924TIP3   OH236262   3.551   5.083   5.579  0.3900  0.3478  1.2360
 4924TIP3    H136263   3.478   5.028   5.605 -0.7920  0.9743 -0.5846
 4924TIP3    H236264   3.592   5.035   5.507  1.0400  0.5925  1.4347
 4925TIP3   OH236265   4.489   2.627   2.746  0.5202  0.1056 -0.2610
 4925TIP3    H136266   4.560   2.588   2.796 -0.0072  0.7432  1.0267
 4925TIP3    H236267   4.480   2.715   2.782 -0.3536  0.3355 -1.0003
 4926TIP3   OH236268   2.341   6.673  15.658 -0.7005  0.0118  0.0863
 4926TIP3    H136269   2.362   6.743  15.596 -2.1583  0.5292  0.1316
 4926TIP3    H236270   2.360   6.592  15.611 -1.4331  0.4070 -0.9294
 4927TIP3   OH236271   1.631   0.407  12.228  0.1913 -0.7917  0.1177
 4927TIP3    H136272   1.681   0.370  12.155  1.9777  2.7575 -0.6723
 4927TIP3    H236273   1.544   0.421  12.192  0.0430 -2.2272 -0.1630
 4928TIP3   OH236274   0.413   5.021   3.592 -0.7529 -0.1241 -0.2815
 4928TIP3    H136275   0.350   5.087   3.564 -1.1979 -0.2253  0.4585
 4928TIP3    H236276   0.436   4.973   3.512  0.4141  1.6080 -1.0506
 4929TIP3   OH236277   6.096   4.445  15.982 -0.1821  0.3196 -0.1267
 4929TIP3    H136278   6.131   4.479  16.064  0.0889 -0.3859  0.0659
 4929TIP3    H236279   6.173   4.425  15.930 -0.2489 -1.3125  0.3275
 4930TIP3   OH236280   3.151   4.454   0.384  0.0343 -0.5808 -0.3850
 4930TIP3    H136281   3.153   4.368   0.343 -1.8062  0.6316 -3.3527
 4930TIP3    H236282   3.230   4.498   0.352 -0.4349 -0.2664 -1.1255
 4931TIP3   OH236283   4.526   1.823   4.246  0.2659 -0.2602  0.1178
 4931TIP3    H136284   4.455   1.834   4.309 -0.3721 -1.3946 -0.3692
 4931TIP3    H236285   4.589   1.766   4.291 -0.1175 -0.9431 -0.1831
 4932TIP3   OH236286   4.593   3.275   4.682  0.4342 -0.8753  0.4036
 4932TIP3    H136287   4.609   3.308   4.771 -1.7848 -0.3860  0.6716
 4932TIP3    H236288   4.661   3.317   4.629  2.3927 -1.8952  1.9678
 4933TIP3   OH236289   5.212   3.140  12.354 -0.7642 -0.1356  0.5114
 4933TIP3    H136290   5.306   3.148  12.369 -0.8734  1.4683  0.5798
 4933TIP3    H236291   5.204   3.116  12.262 -0.2894  0.2658  0.3624
 4934TIP3   OH236292   4.899   2.828   6.267 -0.0932 -0.0288  0.0735
 4934TIP3    H136293   4.896   2.797   6.357  1.5287 -2.0084 -0.4648
 4934TIP3    H236294   4.971   2.778   6.227 -1.0545  0.4321 -2.4384
 4935TIP3   OH236295   0.843   3.333  12.232 -0.1731  0.2957  0.3962
 4935TIP3    H136296   0.899   3.361  12.304 -0.7364  1.2703  0.4871
 4935TIP3    H236297   0.869   3.388  12.158  0.1746 -0.4655 -0.0630
 4936TIP3   OH236298   5.482   4.065   1.922 -0.5027 -0.1597  0.0639
 4936TIP3    H136299   5.449   4.063   2.012 -3.1763  1.9054 -0.7427
 4936TIP3    H236300   5.447   3.986   1.881  1.4503 -1.5784  0.9551
 4937TIP3   OH236301   3.328   1.254   4.339  0.0412  0.5323 -0.1700
 4937TIP3    H136302   3.315   1.200   4.261  1.8713  0.9563 -0.8172
 4937TIP3    H236303   3.392   1.206   4.392  1.5681  1.9375 -0.6762
 4938TIP3   OH236304   6.715   2.388  13.688  0.2554 -0.3007  0.2082
 4938TIP3    H136305   6.768   2.461  13.657  0.5448 -0.7712 -0.4280
 4938TIP3    H236306   6.713   2.327  13.615 -2.4740  0.3794 -0.3842
 4939TIP3   OH236307   4.917   1.599  11.497  1.0700 -0.1620  0.4222
 4939TIP3    H136308   4.938   1.513  11.534  0.4235 -1.9577 -2.9792
 4939TIP3    H236309   4.827   1.616  11.526  2.0355  0.7221  3.2221
 4940TIP3   OH236310   2.053   3.139   0.335 -0.2363  0.1263 -0.4530
 4940TIP3    H136311   2.056   3.078   0.409 -0.3309 -0.1684 -0.6883
 4940TIP3    H236312   2.080   3.223   0.372 -0.0485 -0.0697 -0.1354
 4941TIP3   OH236313   1.871   0.324  11.479 -0.6448 -0.6838  0.0962
 4941TIP3    H136314   1.777   0.339  11.472 -0.8580 -1.8733  0.2777
 4941TIP3    H236315   1.906   0.408  11.508 -1.6727 -0.2932  0.2609
 4942TIP3   OH236316   6.338   4.250   2.535  0.0418  0.1879  0.1799
 4942TIP3    H136317   6.331   4.176   2.596  0.0587 -0.2402 -0.3272
 4942TIP3    H236318   6.423   4.237   2.492 -0.5682 -0.3099 -0.9294
 4943TIP3   OH236319   0.177   0.768   3.441  0.2993 -0.4976  0.0810
 4943TIP3    H136320   0.083   0.750   3.444  0.5623 -1.7540  1.8558
 4943TIP3    H236321   0.185   0.859   3.470 -0.3316 -0.4963  0.2663
 4944TIP3   OH236322   4.238   0.690  12.327 -0.0673 -0.1766  0.0809
 4944TIP3    H136323   4.194   0.605  12.327  0.3216 -0.3916 -0.9820
 4944TIP3    H236324   4.322   0.674  12.285 -0.4393  0.9526 -1.1538
 4945TIP3   OH236325   2.726   4.055  15.791  0.6430  0.2475  0.3143
 4945TIP3    H136326   2.762   4.088  15.873 -2.3215  0.9963  1.4367
 4945TIP3    H236327   2.678   4.129  15.754 -0.9921 -1.0422 -0.2589
 4946TIP3   OH236328   2.309   0.018  10.238 -0.2614 -0.4121 -0.4934
 4946TIP3    H136329   2.346   0.014  10.326  2.0785  2.6863 -1.1471
 4946TIP3    H236330   2.221   0.054  10.251  0.2484  0.5156  0.5744
 4947TIP3   OH236331   6.529   1.132   5.310 -0.4421  0.3538  0.2798
 4947TIP3    H136332   6.534   1.067   5.240 -1.0405 -0.8030  1.2648
 4947TIP3    H236333   6.520   1.216   5.265 -0.6665 -0.3427 -1.0204
 4948TIP3   OH236334   5.891   5.155   4.567  0.3334  0.0853  0.2371
 4948TIP3    H136335   5.883   5.181   4.475  0.1147  1.6430  0.6552
 4948TIP3    H236336   5.979   5.184   4.592 -0.3559  1.6022  1.0423
 4949TIP3   OH236337   3.044   0.865  14.597 -0.2507 -0.0421 -0.3361
 4949TIP3    H136338   2.971   0.914  14.560  0.7430  1.5031 -0.3549
 4949TIP3    H236339   3.063   0.907  14.680 -0.1215 -1.1776  0.2390
 4950TIP3   OH236340   5.307   4.566   3.081 -0.1180  0.7582 -0.5145
 4950TIP3    H136341   5.213   4.562   3.064  0.1583  0.4200 -2.1132
 4950TIP3    H236342   5.337   4.644   3.034 -0.0191  2.6246  2.4161
 4951TIP3   OH236343   0.243   6.548   5.433  0.1646 -0.2338 -0.1496
 4951TIP3    H136344   0.197   6.464   5.436  0.1988 -0.3451 -1.8542
 4951TIP3    H236345   0.283   6.550   5.347 -0.7226  1.9940 -0.5798
 4952TIP3   OH236346   5.881   1.471   0.767  0.0963  0.3834 -0.5387
 4952TIP3    H136347   5.961   1.523   0.764  0.5429 -0.1433  1.3237
 4952TIP3    H236348   5.887   1.413   0.691  0.3895  1.8336 -1.6828
 4953TIP3   OH236349   3.053   5.218  14.290  0.8844  0.0782  0.3163
 4953TIP3    H136350   2.958   5.227  14.288  0.8503  1.3008  2.9320
 4953TIP3    H236351   3.069   5.124  14.300 -0.1213 -0.0036  1.2656
 4954TIP3   OH236352   2.736   3.948  16.606 -0.4203  0.0567 -0.1797
 4954TIP3    H136353   2.698   3.860  16.608 -0.9396  0.2433 -1.0328
 4954TIP3    H236354   2.664   4.004  16.575  0.4299  0.4791 -1.4708
 4955TIP3   OH236355   3.171   5.246   5.434  0.0521 -0.2838 -0.2322
 4955TIP3    H136356   3.184   5.178   5.367 -0.2511  0.4779 -1.0944
 4955TIP3    H236357   3.178   5.200   5.517 -0.9914 -1.5351 -0.7980
 4956TIP3   OH236358   5.105   5.397  12.993 -0.1864  0.0995  0.3634
 4956TIP3    H136359   5.146   5.311  13.001 -1.4867 -0.7165 -1.3375
 4956TIP3    H236360   5.019   5.386  13.033 -0.9644  0.1305 -1.2411
 4957TIP3   OH236361   5.589   1.215  16.354 -0.2415  0.0906  0.2733
 4957TIP3    H136362   5.533   1.144  16.386  0.9112 -0.7857  0.4303
 4957TIP3    H236363   5.608   1.191  16.263  1.5240 -0.7658  0.8051
 4958TIP3   OH236364   3.628   2.933  12.560 -0.3788 -0.1712  0.5999
 4958TIP3    H136365   3.601   3.013  12.516  0.5143 -0.4123 -0.4422
 4958TIP3    H236366   3.601   2.945  12.651  0.6030  1.7370  0.6850
 4959TIP3   OH236367   6.513   6.799  15.819  0.6065  0.5405  0.1588
 4959TIP3    H136368   6.425   6.835  15.803 -0.4838 -1.4141  1.3340
 4959TIP3    H236369   6.572   6.859  15.773 -1.1428  3.1264  1.0490
 4960TIP3   OH236370   0.959   5.508   4.526  0.5135 -0.1300 -0.3280
 4960TIP3    H136371   0.896   5.534   4.593  0.7345  0.8469 -0.4871
 4960TIP3    H236372   0.946   5.414   4.516  0.2810 -0.2414  0.8784
 4961TIP3   OH236373   3.248   0.187   2.982  0.4866  0.2458  0.4969
 4961TIP3    H136374   3.343   0.178   2.983  0.4526 -0.2649 -0.0555
 4961TIP3    H236375   3.225   0.183   2.889 -0.0274  0.8948  0.5871
 4962TIP3   OH236376   5.533   2.379  14.641 -0.0604 -0.2772 -0.4820
 4962TIP3    H136377   5.483   2.367  14.721  1.0487 -1.0035  0.1264
 4962TIP3    H236378   5.568   2.292  14.621  0.2558  0.0381 -1.3626
 4963TIP3   OH236379   6.538   5.827   1.882  0.3805 -0.5271  0.0502
 4963TIP3    H136380   6.445   5.845   1.892  0.5678  0.0703  0.8069
 4963TIP3    H236381   6.542   5.736   1.851 -0.4695 -0.2745 -0.8304
 4964TIP3   OH236382   2.380   3.170   3.413 -0.1427  0.4922  0.5240
 4964TIP3    H136383   2.437   3.094   3.400  1.8631  2.1768 -1.5556
 4964TIP3    H236384   2.293   3.140   3.387  0.2615 -1.5044  1.3310
 4965TIP3   OH236385   1.652   3.015   0.476 -0.9903 -0.3177  0.3694
 4965TIP3    H136386   1.697   3.015   0.561  1.1200  2.4166 -0.5731
 4965TIP3    H236387   1.589   3.086   0.483 -0.3635  0.3452 -0.4998
 4966TIP3   OH236388   5.862   2.847  12.070 -0.4380  0.7571 -0.1783
 4966TIP3    H136389   5.935   2.805  12.115 -1.0143 -0.0340  0.0270
 4966TIP3    H236390   5.895   2.863  11.981 -0.7327 -1.6631 -0.7900
 4967TIP3   OH236391   6.320   6.213   0.406 -0.2265  0.0181 -0.5399
 4967TIP3    H136392   6.338   6.222   0.313 -0.1108  1.2672 -0.4088
 4967TIP3    H236393   6.236   6.167   0.410  0.0958 -0.6683 -1.2303
 4968TIP3   OH236394   5.782   3.326  14.630  0.1438 -0.4802  0.2526
 4968TIP3    H136395   5.859   3.272  14.649  1.0063  1.2859  2.2942
 4968TIP3    H236396   5.715   3.294  14.691 -0.6040 -1.6474 -1.1378
 4969TIP3   OH236397   6.575   2.960  14.692 -0.0585 -0.4891  0.2239
 4969TIP3    H136398   6.656   2.973  14.742 -0.9866  1.8117  1.2236
 4969TIP3    H236399   6.516   2.917  14.753 -0.0895 -0.8325 -0.0421
 4970TIP3   OH236400   2.798   0.251   0.034 -0.4140  0.0264  0.0722
 4970TIP3    H136401   2.782   0.341   0.063 -1.3549 -0.0179 -0.2727
 4970TIP3    H236402   2.891   0.238   0.048 -0.5543  0.4890  1.7038
 4971TIP3   OH236403   3.804   4.097   1.698  0.5957  0.3803  0.3753
 4971TIP3    H136404   3.738   4.163   1.677  1.2271  1.1585  0.7690
 4971TIP3    H236405   3.848   4.132   1.776 -0.3039 -1.4094  1.7522
 4972TIP3   OH236406   6.187   0.431  12.824  0.0412  0.0294 -0.3991
 4972TIP3    H136407   6.108   0.423  12.878  1.1391 -0.8477  1.1452
 4972TIP3    H236408   6.174   0.512  12.775 -1.4871  0.2955  0.3777
 4973TIP3   OH236409   2.576   4.572  13.183 -0.3514  0.2222 -0.0012
 4973TIP3    H136410   2.598   4.625  13.259  1.1383  2.1007 -1.6433
 4973TIP3    H236411   2.637   4.498  13.188  1.7406  1.8113 -0.8162
 4974TIP3   OH236412   0.108   3.643  14.480 -0.7288 -0.0852  0.3039
 4974TIP3    H136413   0.081   3.626  14.390 -1.0086 -0.9372  0.5392
 4974TIP3    H236414   0.041   3.599  14.534 -1.3237  1.5317  0.9520
 4975TIP3   OH236415   4.211   1.600   4.020  0.0104 -0.6486  0.1341
 4975TIP3    H136416   4.233   1.692   4.032 -0.2350 -0.7000  1.0351
 4975TIP3    H236417   4.259   1.555   4.090  1.0170 -1.3440 -0.9633
 4976TIP3   OH236418   1.021   2.136  16.063  0.3217 -0.0346 -0.0296
 4976TIP3    H136419   1.003   2.224  16.097 -1.0749  0.1037 -1.0105
 4976TIP3    H236420   1.007   2.145  15.969  1.4753 -1.0120 -0.2998
 4977TIP3   OH236421   5.375   5.150  15.063  0.2569  0.4410  0.5945
 4977TIP3    H136422   5.460   5.112  15.041  0.4913  1.2094  0.1285
 4977TIP3    H236423   5.311   5.084  15.035  0.7032 -0.1913  1.0633
 4978TIP3   OH236424   6.202   3.083  12.478  0.1005  0.5506  0.5432
 4978TIP3    H136425   6.270   3.148  12.495  0.0863  0.7402 -0.1192
 4978TIP3    H236426   6.248   2.999  12.483  0.3671  0.6736  0.1829
 4979TIP3   OH236427   0.787   1.251  14.568 -0.0041 -0.6918 -0.6171
 4979TIP3    H136428   0.777   1.165  14.607  1.0103 -0.1365  0.9837
 4979TIP3    H236429   0.718   1.304  14.609 -0.3447 -0.6211 -1.2642
 4980TIP3   OH236430   0.487   1.486   4.066  0.5871 -0.0949  0.2987
 4980TIP3    H136431   0.515   1.395   4.060  0.4820 -0.1446  0.5483
 4980TIP3    H236432   0.397   1.482   4.097  0.3356  0.0733 -0.3967
 4981TIP3   OH236433   3.507   2.029   3.638  0.0617  0.1528 -0.3460
 4981TIP3    H136434   3.422   1.986   3.632  0.7792 -1.2791 -0.7033
 4981TIP3    H236435   3.545   1.994   3.719 -0.4523  2.3024  0.9132
 4982TIP3   OH236436   5.934   1.720   2.611 -0.0014  0.0993  0.5277
 4982TIP3    H136437   5.898   1.652   2.554  1.2983 -0.2504  0.0996
 4982TIP3    H236438   5.858   1.751   2.661 -0.9434 -0.4329 -0.5122
 4983TIP3   OH236439   1.198   2.818  12.912  0.1003  1.1904 -0.6689
 4983TIP3    H136440   1.147   2.739  12.897  1.9259 -0.3191  0.5466
 4983TIP3    H236441   1.198   2.863  12.828 -3.6149  1.6325 -0.6082
 4984TIP3   OH236442   0.871   4.910   5.987 -0.5806 -0.3782  0.1896
 4984TIP3    H136443   0.937   4.978   6.001 -0.8971 -0.1732  0.7153
 4984TIP3    H236444   0.846   4.919   5.895 -2.0263  1.5187  0.7127
 4985TIP3   OH236445   5.595   0.281  11.304  0.1495 -0.2685  0.3849
 4985TIP3    H136446   5.549   0.236  11.233 -1.1975  2.1811 -0.4113
 4985TIP3    H236447   5.684   0.246  11.301 -0.7919 -2.7639 -0.1871
 4986TIP3   OH236448   0.640   4.114  16.194  0.2604  0.5171  0.2264
 4986TIP3    H136449   0.545   4.112  16.200  0.3365 -1.2668  1.8465
 4986TIP3    H236450   0.663   4.205  16.214 -1.0369  0.7011  1.0022
 4987TIP3   OH236451   0.124   2.948  16.200  0.1152  0.3835  0.5338
 4987TIP3    H136452   0.108   2.906  16.285 -0.1094 -0.6209  0.0113
 4987TIP3    H236453   0.213   2.924  16.177  0.2109  0.7392  0.5308
 4988TIP3   OH236454   4.515   6.199   3.895  0.3287  0.2178 -0.2591
 4988TIP3    H136455   4.544   6.289   3.884  1.4614  0.0727  1.1488
 4988TIP3    H236456   4.422   6.200   3.873  0.4786  1.5896 -0.8783
 4989TIP3   OH236457   5.866   4.680  12.028  0.0897 -0.3612  0.2780
 4989TIP3    H136458   5.776   4.709  12.041  0.2492  0.2476  0.0846
 4989TIP3    H236459   5.898   4.734  11.956 -0.4997 -3.0493 -2.1656
 4990TIP3   OH236460   4.476   5.067  12.397  0.1117 -0.3926 -0.4310
 4990TIP3    H136461   4.518   5.024  12.472 -0.2975  0.3529  0.2476
 4990TIP3    H236462   4.386   5.081  12.426 -0.7313 -2.2262 -1.9693
 4991TIP3   OH236463   1.490   4.794   3.810 -0.3356  0.1648 -0.3704
 4991TIP3    H136464   1.524   4.747   3.733  0.3375  0.7087 -0.4168
 4991TIP3    H236465   1.566   4.802   3.868 -0.8993 -0.4549  0.4628
 4992TIP3   OH236466   3.973   0.107   0.524 -0.9812  0.9350  0.5195
 4992TIP3    H136467   3.905   0.173   0.514 -4.5774 -2.5354 -1.0118
 4992TIP3    H236468   3.946   0.055   0.600  0.5139 -0.0023  0.4665
 4993TIP3   OH236469   4.025   5.634  16.090  0.2857 -0.0323  0.0583
 4993TIP3    H136470   3.979   5.622  16.173 -0.0098 -0.5489 -0.1765
 4993TIP3    H236471   4.009   5.553  16.041  1.2841 -0.1509 -0.1010
 4994TIP3   OH236472   3.978   1.573   5.751 -0.3881  0.2563 -0.3363
 4994TIP3    H136473   3.988   1.613   5.837  0.3160 -3.3034  1.3863
 4994TIP3    H236474   3.884   1.582   5.732 -0.8017 -0.0525  1.4173
 4995TIP3   OH236475   0.177   0.680   3.050 -0.0936  0.2695  0.3868
 4995TIP3    H136476   0.231   0.623   3.105 -1.6422 -2.3542 -0.6293
 4995TIP3    H236477   0.235   0.710   2.981  0.2684 -2.1899 -0.4799
 4996TIP3   OH236478   6.512   4.898   5.796  0.6226 -0.1665  0.0465
 4996TIP3    H136479   6.545   4.944   5.718  0.6021  0.5381  0.4419
 4996TIP3    H236480   6.590   4.877   5.847  0.5140  1.6241  1.0496
 4997TIP3   OH236481   4.501   0.849   2.009 -0.0115  0.8449 -0.2155
 4997TIP3    H136482   4.420   0.827   1.964 -0.0143  2.3269 -1.0221
 4997TIP3    H236483   4.494   0.943   2.026  0.2473  0.4477  2.4285
 4998TIP3   OH236484   0.794   4.981   4.155  0.7447  0.2510 -0.1231
 4998TIP3    H136485   0.885   4.969   4.183  1.2612 -0.4935 -1.9873
 4998TIP3    H236486   0.749   4.902   4.185  0.5067  0.9058  1.3775
 4999TIP3   OH236487   3.632   4.588   5.705  0.2589 -0.3707 -0.3138
 4999TIP3    H136488   3.693   4.659   5.684 -1.2919  0.9193 -0.6125
 4999TIP3    H236489   3.679   4.535   5.770  1.6172  0.6772 -0.3899
 5000TIP3   OH236490   4.534   3.068  14.562  0.0178  0.6881 -0.4042
 5000TIP3    H136491   4.543   3.156  14.526  1.7006  1.4204  1.6199
 5000TIP3    H236492   4.499   3.081  14.650 -0.3765 -0.7576 -0.3130
 5001TIP3   OH236493   0.963   5.398  16.683  0.1139  0.0824 -0.2720
 5001TIP3    H136494   0.928   5.439  16.763  1.2791 -0.8043  0.7394
 5001TIP3    H236495   0.923   5.311  16.682  1.6720 -0.6947  0.5384
 5002TIP3   OH236496   3.847   3.321  16.678 -0.1473 -0.2316 -0.0645
 5002TIP3    H136497   3.895   3.396  16.713  1.3922 -0.8977 -0.6159
 5002TIP3    H236498   3.778   3.359  16.624 -0.1074  0.7759  0.5782
 5003TIP3   OH236499   1.722   6.016   1.765  0.5956 -0.0077 -0.1112
 5003TIP3    H136500   1.814   5.991   1.774  0.4602 -0.4131  0.1694
 5003TIP3    H236501   1.673   5.934   1.777  0.0365  0.6021  2.5727
 5004TIP3   OH236502   6.755   5.261   2.266  0.2816 -0.3472 -0.1319
 5004TIP3    H136503   6.795   5.344   2.293 -0.8357  0.6653 -1.4662
 5004TIP3    H236504   6.828   5.198   2.266  0.8436  0.2075  2.4740
 5005TIP3   OH236505   1.194   5.430   3.592  0.1278  0.2152  0.3461
 5005TIP3    H136506   1.170   5.413   3.501  0.1614 -2.1597  0.7235
 5005TIP3    H236507   1.111   5.452   3.635  0.1899  1.8851 -0.3294
 5006TIP3   OH236508   5.607   5.159   1.699  0.3968  0.2945  0.1260
 5006TIP3    H136509   5.643   5.095   1.760  0.4093 -0.1205 -0.3110
 5006TIP3    H236510   5.677   5.174   1.635  0.2783  0.5057  0.0429
 5007TIP3   OH236511   0.031   6.173  11.119  0.3881 -0.0182  0.2618
 5007TIP3    H136512  -0.033   6.202  11.053  1.0566 -2.0009 -1.3578
 5007TIP3    H236513  -0.015   6.182  11.202 -1.4702  0.0641 -0.7170
 5008TIP3   OH236514   0.747   3.268   5.223 -0.1115  0.3134  0.0166
 5008TIP3    H136515   0.786   3.202   5.280  0.8874 -0.1344 -1.1313
 5008TIP3    H236516   0.818   3.296   5.166 -1.1983  0.2475 -1.4428
 5009TIP3   OH236517   1.548   0.960   2.303 -0.7917 -0.1591  0.6077
 5009TIP3    H136518   1.550   0.887   2.242 -2.9174  1.7598 -1.9744
 5009TIP3    H236519   1.457   0.990   2.303 -0.4405  1.2299  3.2002
 5010TIP3   OH236520   2.215   0.287  14.627  0.0671  0.0332  0.3180
 5010TIP3    H136521   2.289   0.263  14.684 -0.0430  0.6590  0.7314
 5010TIP3    H236522   2.240   0.254  14.541  0.9305  0.4165  0.4106
 5011TIP3   OH236523   1.385   2.511  13.086 -1.0165  0.0157 -0.0574
 5011TIP3    H136524   1.386   2.492  12.992 -2.5500 -0.9368  0.0833
 5011TIP3    H236525   1.461   2.567  13.100  0.6979 -1.8425 -1.4221
 5012TIP3   OH236526   6.177   0.991  15.168 -0.1021  0.3057 -0.1254
 5012TIP3    H136527   6.271   1.001  15.153 -0.1464  0.4099 -0.3365
 5012TIP3    H236528   6.154   1.068  15.221 -0.2270  0.7388 -0.7925
 5013TIP3   OH236529   2.938   1.216  16.316 -0.4497  0.5631  0.3660
 5013TIP3    H136530   2.957   1.255  16.402 -1.5632  1.2308  0.3285
 5013TIP3    H236531   2.856   1.258  16.289  1.4525  2.8522 -2.4859
 5014TIP3   OH236532   3.180   4.573   3.893  0.3613 -0.3022  0.5136
 5014TIP3    H136533   3.270   4.598   3.873  0.7973 -2.7155 -0.8995
 5014TIP3    H236534   3.185   4.530   3.979  0.7747 -1.2730  0.0237
 5015TIP3   OH236535   2.790   0.768  13.928 -0.3611  0.5500 -0.3984
 5015TIP3    H136536   2.788   0.674  13.944 -0.2085  0.3788 -1.3179
 5015TIP3    H236537   2.712   0.786  13.876 -0.0294  0.8193 -0.8057
 5016TIP3   OH236538   1.244   0.838  13.450  0.2002  0.1354  0.0864
 5016TIP3    H136539   1.295   0.913  13.480 -0.3036 -0.1381  1.6928
 5016TIP3    H236540   1.290   0.808  13.372  0.9626  1.5119 -0.0282
 5017TIP3   OH236541   0.763   3.851  11.392 -0.0213  0.2391  0.0946
 5017TIP3    H136542   0.817   3.775  11.413 -0.3215  0.4456  1.7525
 5017TIP3    H236543   0.678   3.832  11.432 -0.5030  0.8816 -0.5920
 5018TIP3   OH236544   3.335   2.929   1.538  0.4158 -0.0625 -0.1837
 5018TIP3    H136545   3.349   3.020   1.563 -0.1132  0.6327 -2.2387
 5018TIP3    H236546   3.332   2.930   1.442 -3.0870 -1.6593 -0.2668
 5019TIP3   OH236547   4.481   4.791  11.411 -0.3373 -0.4124 -0.1166
 5019TIP3    H136548   4.439   4.873  11.384  2.3593  1.4953  1.0689
 5019TIP3    H236549   4.430   4.762  11.487 -2.3718 -0.8535 -1.5769
 5020TIP3   OH236550   2.318   5.833   1.447 -0.0102 -0.0425  0.2954
 5020TIP3    H136551   2.300   5.769   1.378  1.2347 -1.2606  1.0483
 5020TIP3    H236552   2.323   5.782   1.527  1.4520  0.9185  0.8631
 5021TIP3   OH236553   1.194   2.672  16.970  0.1890 -0.1466 -0.3053
 5021TIP3    H136554   1.116   2.710  16.929 -0.0490  1.1168  1.2139
 5021TIP3    H236555   1.161   2.634  17.051  1.1130  0.1966  0.2439
 5022TIP3   OH236556   3.055   4.104   2.275  0.3971 -0.0052  0.3349
 5022TIP3    H136557   2.999   4.081   2.201  0.6978 -1.3081  0.4922
 5022TIP3    H236558   3.136   4.136   2.235  0.1220  0.4042  0.1059
 5023TIP3   OH236559   1.268   2.959   2.070 -0.0345  0.2721 -0.8279
 5023TIP3    H136560   1.185   2.957   2.118  0.1997  0.6839 -0.4036
 5023TIP3    H236561   1.271   2.874   2.026  1.4144 -1.7351  2.7161
 5024TIP3   OH236562   4.954   1.395  10.780  0.0126 -0.0217 -0.5620
 5024TIP3    H136563   4.909   1.431  10.857  2.1488 -1.4232  1.4913
 5024TIP3    H236564   4.998   1.470  10.741 -0.0181  0.5288  0.4222
 5025TIP3   OH236565   5.232   0.217   2.693 -0.1497  0.4518 -0.0814
 5025TIP3    H136566   5.189   0.134   2.717 -0.2241  0.5289  0.0517
 5025TIP3    H236567   5.160   0.279   2.684 -0.0396  0.6510  0.4250
 5026TIP3   OH236568   2.650   5.110  11.179 -0.8182  0.0507 -0.7676
 5026TIP3    H136569   2.564   5.072  11.163 -0.5534 -0.3833 -1.1827
 5026TIP3    H236570   2.657   5.182  11.117 -0.5987 -0.3624 -1.2230
 5027TIP3   OH236571   0.527   2.941   5.282  0.6704  0.7658  0.0338
 5027TIP3    H136572   0.450   2.898   5.245  1.0556  0.5826 -0.5685
 5027TIP3    H236573   0.602   2.895   5.243  1.0963  0.5851  1.0115
 5028TIP3   OH236574   5.060   1.757  13.589  0.2128 -0.0636 -0.4475
 5028TIP3    H136575   5.085   1.841  13.627  0.2903  0.3766 -1.4194
 5028TIP3    H236576   5.143   1.709  13.580  0.3002  0.1433 -0.7711
 5029TIP3   OH236577   5.998   5.694  13.925 -0.0163 -0.1766 -0.5568
 5029TIP3    H136578   6.012   5.779  13.965 -0.5722 -0.1954 -0.3060
 5029TIP3    H236579   6.042   5.632  13.983 -0.4120 -0.1543 -0.2309
 5030TIP3   OH236580   2.163   1.147  15.145 -0.0354 -0.4043  0.0968
 5030TIP3    H136581   2.259   1.148  15.144 -0.0192  0.3872  0.8205
 5030TIP3    H236582   2.140   1.054  15.145  0.6926 -0.6132 -1.4645
 5031TIP3   OH236583   0.340   3.552   2.822  0.1385  0.0600 -0.0570
 5031TIP3    H136584   0.409   3.522   2.763  1.0074  1.4723  0.1968
 5031TIP3    H236585   0.374   3.537   2.910 -0.0468  0.3979  0.0741
 5032TIP3   OH236586   0.529   1.291  13.897  0.1589 -0.0613 -0.4255
 5032TIP3    H136587   0.466   1.321  13.832  0.6387  0.6217 -0.5916
 5032TIP3    H236588   0.480   1.285  13.978  0.0708  1.3609 -0.3488
 5033TIP3   OH236589   1.224   5.418   4.603 -0.6686  0.2605 -0.5004
 5033TIP3    H136590   1.151   5.469   4.567  0.1974  1.6968 -0.2550
 5033TIP3    H236591   1.257   5.368   4.528  0.0926  2.0130 -1.3925
 5034TIP3   OH236592   0.904   0.357   3.575 -0.2468 -0.0408 -0.6139
 5034TIP3    H136593   0.929   0.414   3.502 -0.0038 -0.3185 -0.7509
 5034TIP3    H236594   0.920   0.268   3.542  2.3044 -0.1412  0.6290
 5035TIP3   OH236595   6.371   3.331  16.626  0.0220  0.1166 -0.3005
 5035TIP3    H136596   6.351   3.250  16.673 -0.2011  0.3673  0.0426
 5035TIP3    H236597   6.404   3.302  16.541  0.5961 -0.3485  0.0716
 5036TIP3   OH236598   2.119   3.498  15.180 -0.2858  0.2592 -0.3691
 5036TIP3    H136599   2.094   3.587  15.203 -1.2818 -0.3357  1.0189
 5036TIP3    H236600   2.143   3.503  15.087 -0.9221  1.8427 -0.4861
 5037TIP3   OH236601   0.593   1.902   5.837 -0.2689  0.3347  0.1717
 5037TIP3    H136602   0.583   1.996   5.852 -0.5311  0.3037  0.1877
 5037TIP3    H236603   0.526   1.861   5.891  0.3234  0.0959  0.7372
 5038TIP3   OH236604   4.626   2.337  13.690  0.4850 -0.4052  0.2928
 5038TIP3    H136605   4.688   2.405  13.664  0.5847 -0.4679  0.3691
 5038TIP3    H236606   4.635   2.270  13.623 -0.4735  0.1880 -0.4594
 5039TIP3   OH236607   5.152   1.742  14.533  0.1129  0.1217 -0.5640
 5039TIP3    H136608   5.116   1.655  14.513 -2.6153  1.1319 -0.5144
 5039TIP3    H236609   5.148   1.790  14.450 -1.6384  1.1912  0.0851
 5040TIP3   OH236610   4.763   3.319  16.158 -0.0206  0.3082 -0.0262
 5040TIP3    H136611   4.746   3.341  16.066 -1.0589 -2.2469 -0.5410
 5040TIP3    H236612   4.684   3.347  16.204  0.5992  1.8139  0.1805
 5041TIP3   OH236613   0.648   4.176   4.369 -0.3572  0.1327  0.3975
 5041TIP3    H136614   0.601   4.094   4.354  0.2153 -0.1098 -0.0791
 5041TIP3    H236615   0.651   4.219   4.283  0.0909  0.2544  0.4710
 5042TIP3   OH236616   3.736   6.840  12.340 -0.6199 -0.5147 -0.4374
 5042TIP3    H136617   3.831   6.833  12.328 -0.9139 -3.4381 -1.7292
 5042TIP3    H236618   3.715   6.929  12.311  1.7476  0.4603  0.5366
 5043TIP3   OH236619   3.494   4.261  15.256 -0.3116  0.3272  0.0985
 5043TIP3    H136620   3.535   4.202  15.193  0.1516 -0.0753  0.7634
 5043TIP3    H236621   3.542   4.247  15.337  2.1430  4.0233 -0.4530
 5044TIP3   OH236622   1.497   6.143   2.957 -0.2105 -0.5538 -0.4043
 5044TIP3    H136623   1.430   6.164   2.892 -0.5676 -1.2513 -0.2731
 5044TIP3    H236624   1.579   6.171   2.918 -0.6658  1.1965 -0.1748
 5045TIP3   OH236625   3.194   2.551   5.563 -0.0532 -0.3374  0.5493
 5045TIP3    H136626   3.098   2.557   5.561  0.0151  0.9576  0.0881
 5045TIP3    H236627   3.213   2.503   5.643 -1.1097 -1.4333  0.1794
 5046TIP3   OH236628   5.281   0.277   1.253  0.0650 -0.7645 -0.1773
 5046TIP3    H136629   5.372   0.297   1.278 -0.4471  0.5110  0.7833
 5046TIP3    H236630   5.231   0.354   1.281 -1.3005 -1.3755 -0.8393
 5047TIP3   OH236631   5.339   3.621  16.096 -0.0399 -0.4296 -0.3576
 5047TIP3    H136632   5.320   3.606  16.189  2.2136  0.6870  0.3571
 5047TIP3    H236633   5.300   3.706  16.077  1.7139  0.5681  0.3354
 5048TIP3   OH236634   3.374   2.958  13.537 -0.4899  0.4655 -0.2069
 5048TIP3    H136635   3.359   2.951  13.631  1.0413 -0.5930  0.0042
 5048TIP3    H236636   3.290   2.935  13.497 -0.0063 -4.1694  0.8781
 5049TIP3   OH236637   3.535   6.490  12.092  0.0525  0.0038 -0.0147
 5049TIP3    H136638   3.611   6.463  12.040  0.7507  0.0270  0.9822
 5049TIP3    H236639   3.568   6.502  12.180 -1.4849 -2.0329  0.9494
 5050TIP3   OH236640   5.666   3.415   6.535  0.5065  0.0280  0.0590
 5050TIP3    H136641   5.757   3.388   6.531  0.2999 -0.7615  0.4565
 5050TIP3    H236642   5.665   3.504   6.500  1.6258  0.5371  1.2655
 5051TIP3   OH236643   2.095   6.542   3.162 -0.1815  0.3648 -0.1213
 5051TIP3    H136644   2.077   6.453   3.191 -0.3968  0.3145 -0.4053
 5051TIP3    H236645   2.031   6.596   3.208 -0.4983  0.2894 -0.4679
 5052TIP3   OH236646   6.544   3.638   1.477  0.5661  0.2230  0.3731
 5052TIP3    H136647   6.560   3.727   1.507  0.3820  0.4036 -0.0515
 5052TIP3    H236648   6.483   3.601   1.542  1.5145  0.0197  1.1767
 5053TIP3   OH236649   4.924   0.307   1.916  0.3134  0.2635 -0.8005
 5053TIP3    H136650   4.973   0.365   1.857  0.4632 -0.3540 -1.2955
 5053TIP3    H236651   4.832   0.328   1.899  0.3731  0.5208 -0.8090
 5054TIP3   OH236652   5.909   3.873  16.050 -0.1863 -0.2482  0.2159
 5054TIP3    H136653   5.847   3.857  15.979  0.0858 -0.5579  0.0464
 5054TIP3    H236654   5.934   3.965  16.041 -0.4174 -0.1949  0.1237
 5055TIP3   OH236655   3.639   1.568   4.712 -0.5785 -0.4557  0.4916
 5055TIP3    H136656   3.631   1.550   4.618 -0.1272  0.4497  0.2726
 5055TIP3    H236657   3.591   1.650   4.725  1.2372  0.6232  0.6405
 5056TIP3   OH236658   3.034   5.848   3.514 -0.2087  0.2333 -0.3781
 5056TIP3    H136659   2.996   5.776   3.564  3.9191  0.5867  3.9707
 5056TIP3    H236660   3.101   5.807   3.459 -1.1125  0.3924 -1.6400
 5057TIP3   OH236661   4.625   5.795  11.443 -0.1049  0.2861 -0.0854
 5057TIP3    H136662   4.696   5.754  11.394 -0.7391 -1.0273  0.0394
 5057TIP3    H236663   4.545   5.761  11.402 -0.6502 -0.6666  1.6862
 5058TIP3   OH236664   0.853   6.633  16.435  0.1485 -0.3825 -0.4990
 5058TIP3    H136665   0.928   6.578  16.458 -0.6522 -0.8467  1.1950
 5058TIP3    H236666   0.816   6.660  16.519 -1.5035 -0.0652 -1.2724
 5059TIP3   OH236667   1.202   5.673  13.686 -0.4940  0.3703 -0.2151
 5059TIP3    H136668   1.157   5.590  13.702  1.3283 -0.2405  2.6102
 5059TIP3    H236669   1.148   5.738  13.730 -0.5480  0.2229 -0.0587
 5060TIP3   OH236670   2.396   1.974   4.712 -0.1404 -0.1548  0.1459
 5060TIP3    H136671   2.484   1.988   4.680 -0.5612  0.7145 -0.6762
 5060TIP3    H236672   2.351   1.927   4.641 -0.2250 -0.9959  0.7368
 5061TIP3   OH236673   0.835   4.099  13.644 -0.2122 -0.3659  0.2693
 5061TIP3    H136674   0.766   4.049  13.687 -0.8391  0.4611  0.2409
 5061TIP3    H236675   0.804   4.190  13.645  0.1306 -0.2094 -1.1929
 5062TIP3   OH236676   1.931   1.312  15.144  0.1275  0.5000 -0.3323
 5062TIP3    H136677   1.937   1.362  15.226 -0.4442  0.0919 -0.0277
 5062TIP3    H236678   2.017   1.273  15.133 -0.5323 -1.7915  1.6318
 5063TIP3   OH236679   4.327   5.721  14.451 -0.2073 -0.4498 -0.3947
 5063TIP3    H136680   4.408   5.773  14.455 -1.1833  1.1124 -0.2320
 5063TIP3    H236681   4.281   5.743  14.532 -1.1209 -0.7703 -0.8202
 5064TIP3   OH236682   3.090   0.926   2.069  0.0229  0.0458 -0.3119
 5064TIP3    H136683   3.093   0.887   1.982 -1.2349 -0.0761 -0.3159
 5064TIP3    H236684   3.000   0.958   2.079 -0.0146 -0.3858  1.1158
 5065TIP3   OH236685   2.532   5.362   3.151  0.6419 -0.1121 -0.2261
 5065TIP3    H136686   2.451   5.329   3.190 -0.6488 -0.8875 -3.2415
 5065TIP3    H236687   2.525   5.457   3.158 -0.2980 -0.1891  0.0124
 5066TIP3   OH236688   0.717   5.078  16.753 -0.1819 -1.1850 -0.1690
 5066TIP3    H136689   0.803   5.075  16.794  0.0453 -0.7735 -0.6101
 5066TIP3    H236690   0.697   5.172  16.745 -0.7812 -1.2802  0.1676
 5067TIP3   OH236691   3.825   1.942   5.765  0.2341 -0.7085 -0.0746
 5067TIP3    H136692   3.882   2.015   5.743 -0.2174 -0.4381 -0.3470
 5067TIP3    H236693   3.853   1.916   5.853  0.9882 -0.7872 -0.3286
 5068TIP3   OH236694   2.272   3.505  14.485 -0.6273  0.2906  0.1870
 5068TIP3    H136695   2.255   3.510  14.391 -1.0002  1.5339  0.3080
 5068TIP3    H236696   2.289   3.412  14.501  0.4520  0.2042 -1.2711
 5069TIP3   OH236697   6.449   3.939  15.423  0.3594  0.5216  0.2268
 5069TIP3    H136698   6.539   3.919  15.396 -0.0621  0.0467 -0.9001
 5069TIP3    H236699   6.451   4.032  15.447  1.0726  0.6004 -0.1169
 5070TIP3   OH236700   5.084   1.729   3.855  0.2592 -0.0009  0.3779
 5070TIP3    H136701   5.026   1.791   3.900 -0.7474 -1.0228  0.5217
 5070TIP3    H236702   5.162   1.724   3.911  0.8704  1.9721 -0.2102
 5071TIP3   OH236703   1.479   5.919  12.630  0.7235 -0.3188  0.4332
 5071TIP3    H136704   1.469   5.980  12.702 -2.3797  1.6183 -1.3900
 5071TIP3    H236705   1.426   5.956  12.559  2.5591 -2.6976 -2.4724
 5072TIP3   OH236706   3.694   6.005  12.183 -0.1239  0.4742 -0.2365
 5072TIP3    H136707   3.671   6.066  12.253 -0.6232  0.8611 -0.7275
 5072TIP3    H236708   3.759   5.947  12.222 -1.3116 -0.1159  0.9266
 5073TIP3   OH236709   6.095   5.936   3.938  0.4995 -0.6855 -0.1482
 5073TIP3    H136710   6.125   5.996   3.870  1.3594  0.3381  1.0919
 5073TIP3    H236711   6.002   5.923   3.919  0.2572  1.1627 -0.3736
 5074TIP3   OH236712   5.025   5.291   0.970 -0.1048  0.2138  0.3097
 5074TIP3    H136713   4.995   5.333   0.890  0.8491 -1.1218 -0.7913
 5074TIP3    H236714   4.946   5.252   1.008 -0.5100  0.5867 -0.1343
 5075TIP3   OH236715   2.453   3.035  13.508  0.1284 -0.3541  0.8637
 5075TIP3    H136716   2.358   3.025  13.502 -0.1126  0.9024  1.9505
 5075TIP3    H236717   2.489   2.956  13.467 -1.3764 -0.8595  0.4602
 5076TIP3   OH236718   1.553   4.722   4.088 -0.7948 -0.3364  0.1272
 5076TIP3    H136719   1.463   4.690   4.096 -1.4561  1.4254  0.1940
 5076TIP3    H236720   1.551   4.808   4.129  1.0216 -0.4105  0.4220
 5077TIP3   OH236721   0.343   0.496  14.749 -0.3461 -0.6218 -0.2420
 5077TIP3    H136722   0.393   0.417  14.771 -0.1986 -0.2777  0.7336
 5077TIP3    H236723   0.377   0.523  14.664 -0.1707 -1.4260 -0.4430
 5078TIP3   OH236724   5.375   3.566  12.760  0.1894  0.3193  0.1287
 5078TIP3    H136725   5.373   3.473  12.736 -0.0102  0.3164  0.1589
 5078TIP3    H236726   5.386   3.565  12.856  1.2117  0.3307  0.0250
 5079TIP3   OH236727   1.384   2.623  13.749  0.3940  0.0138 -0.4673
 5079TIP3    H136728   1.416   2.651  13.834  0.7931 -0.5569 -0.4199
 5079TIP3    H236729   1.334   2.543  13.767  0.2406  0.0468 -0.7321
 5080TIP3   OH236730   1.670   5.083   6.311 -0.8636 -0.9150 -0.4227
 5080TIP3    H136731   1.627   5.109   6.230 -0.4467  1.0581 -0.0730
 5080TIP3    H236732   1.602   5.036   6.360 -3.1005  2.8767  0.5036
 5081TIP3   OH236733   0.290   3.903  11.253  0.2478  0.3319  0.0592
 5081TIP3    H136734   0.266   3.938  11.167 -1.6588 -1.1741 -0.0775
 5081TIP3    H236735   0.363   3.843  11.235  1.4197  1.7319 -0.1218
 5082TIP3   OH236736   0.324   6.247  15.185  0.0535  0.4688 -0.1665
 5082TIP3    H136737   0.276   6.164  15.197  1.2299 -0.3844 -1.2210
 5082TIP3    H236738   0.304   6.297  15.265 -1.0501 -0.6281  0.2815
 5083TIP3   OH236739   6.471   2.446  14.768 -0.0817 -0.0321 -0.2627
 5083TIP3    H136740   6.518   2.452  14.685  1.1249  3.1870  0.5181
 5083TIP3    H236741   6.396   2.504  14.758  0.5244  1.0629  1.0938
 5084TIP3   OH236742   4.335   3.698   2.360  0.3103 -0.4586 -0.4060
 5084TIP3    H136743   4.262   3.753   2.389 -0.0308 -1.1009 -0.0279
 5084TIP3    H236744   4.356   3.731   2.272  1.1396  1.2916  0.3944
 5085TIP3   OH236745   0.790   5.879   0.729  0.0659 -0.0146 -0.5765
 5085TIP3    H136746   0.711   5.890   0.783 -0.3036 -1.7435 -0.7047
 5085TIP3    H236747   0.758   5.878   0.639  0.2876 -0.2273 -0.6544
 5086TIP3   OH236748   1.646   5.726  13.594  0.0552 -0.0449 -0.6468
 5086TIP3    H136749   1.661   5.732  13.499 -0.9494  0.1077 -0.8130
 5086TIP3    H236750   1.641   5.632  13.612 -0.8645 -0.0644 -0.9489
 5087TIP3   OH236751   5.408   4.638   4.746 -0.4396  1.0864  0.3228
 5087TIP3    H136752   5.454   4.692   4.810 -0.5438  0.8949  0.5580
 5087TIP3    H236753   5.334   4.601   4.793 -0.0028  0.2175  0.3496
 5088TIP3   OH236754   1.117   6.659  16.257  0.1871  0.2600  0.1254
 5088TIP3    H136755   1.057   6.637  16.186 -0.4304 -0.8780  0.9574
 5088TIP3    H236756   1.083   6.741  16.293 -0.0560  0.3403 -0.2825
 5089TIP3   OH236757   5.664   0.265   4.848 -0.2281 -0.2500  0.0598
 5089TIP3    H136758   5.671   0.339   4.908 -2.3822 -0.8586  1.1769
 5089TIP3    H236759   5.652   0.305   4.762 -2.8181  0.8226  0.8196
 5090TIP3   OH236760   5.844   3.152  13.095 -0.1242  0.3758  0.0314
 5090TIP3    H136761   5.851   3.157  12.999 -1.9339 -0.1427 -0.1627
 5090TIP3    H236762   5.870   3.062  13.115  0.5749  0.5791  0.0911
 5091TIP3   OH236763   2.873   3.514   3.736  0.2697 -0.5013 -0.7124
 5091TIP3    H136764   2.903   3.486   3.649 -0.4710 -1.0818 -0.7890
 5091TIP3    H236765   2.815   3.588   3.719 -1.0905 -1.5704 -0.8504
 5092TIP3   OH236766   6.737   1.988   3.890  0.3519  0.0445  1.1410
 5092TIP3    H136767   6.766   2.075   3.917 -0.9872  0.5966  0.9120
 5092TIP3    H236768   6.771   1.929   3.957  1.0523  0.7772  1.4450
 5093TIP3   OH236769   4.345   1.658  13.786  0.2547 -0.3686 -0.4187
 5093TIP3    H136770   4.253   1.637  13.774  0.5376 -2.6873  0.9286
 5093TIP3    H236771   4.352   1.750  13.761 -2.3779 -0.1640 -0.6517
 5094TIP3   OH236772   3.628   5.794  15.134  0.1091 -0.0960 -0.1342
 5094TIP3    H136773   3.671   5.830  15.212 -0.4846  0.0378  0.1379
 5094TIP3    H236774   3.574   5.866  15.101 -0.6699 -0.5601  0.1044
 5095TIP3   OH236775   6.058   4.713   1.791  0.0135  0.3970 -0.3095
 5095TIP3    H136776   5.983   4.661   1.763  0.6384 -1.3600  1.0844
 5095TIP3    H236777   6.078   4.768   1.715 -0.5513 -1.5580 -1.9850
 5096TIP3   OH236778   0.011   3.099   4.670 -0.2366 -0.4396  0.5058
 5096TIP3    H136779   0.083   3.049   4.710  0.8445  1.1447  0.6408
 5096TIP3    H236780  -0.043   3.125   4.744  0.4079  0.4148  0.6869
 5097TIP3   OH236781   3.399   0.791   1.961 -0.0567 -0.0618  0.0812
 5097TIP3    H136782   3.358   0.878   1.958  0.9206  0.4317  0.4835
 5097TIP3    H236783   3.491   0.809   1.978  0.0235 -1.2209  1.0052
 5098TIP3   OH236784   5.572   0.850  16.858 -0.3826 -0.6061  0.2941
 5098TIP3    H136785   5.570   0.877  16.950  0.4485  0.5101  0.0063
 5098TIP3    H236786   5.513   0.911  16.814 -0.7157 -1.0862  0.0664
 5099TIP3   OH236787   5.280   6.336   2.895 -0.4045  0.0111  0.1625
 5099TIP3    H136788   5.301   6.253   2.938  0.6095 -0.1230 -0.5590
 5099TIP3    H236789   5.312   6.403   2.955  0.1462 -0.1586  0.0667
 5100TIP3   OH236790   0.077   1.624   1.310 -0.6995 -0.1190 -0.2197
 5100TIP3    H136791   0.095   1.561   1.240 -0.1389 -0.5436  0.2964
 5100TIP3    H236792   0.078   1.572   1.390 -0.6717  0.4741  0.1687
 5101TIP3   OH236793   4.434   3.758  16.233  0.1274  0.0881 -0.1897
 5101TIP3    H136794   4.371   3.830  16.242  0.4504  0.1888  1.7337
 5101TIP3    H236795   4.425   3.729  16.142 -1.6203  1.0697 -0.3714
 5102TIP3   OH236796   4.925   1.112   5.075  0.4794 -0.3523  0.5709
 5102TIP3    H136797   5.000   1.053   5.086 -0.8961 -1.9419  2.1295
 5102TIP3    H236798   4.909   1.146   5.163  1.2877  2.5613 -0.2904
 5103TIP3   OH236799   6.681   4.541  11.944 -0.2852 -0.5294  0.2172
 5103TIP3    H136800   6.772   4.554  11.917 -0.5233 -0.1930 -0.4583
 5103TIP3    H236801   6.673   4.591  12.026 -0.3946  1.2476 -0.8113
 5104TIP3   OH236802   5.345   5.921   4.116  0.7072 -0.2994  0.1820
 5104TIP3    H136803   5.285   5.989   4.085 -0.8588 -0.8506  1.7751
 5104TIP3    H236804   5.288   5.846   4.133  2.0893 -1.3290  0.4035
 5105TIP3   OH236805   4.787   6.274   5.395 -0.6006  0.5271  0.0476
 5105TIP3    H136806   4.761   6.282   5.487 -0.5028  1.6358 -0.0036
 5105TIP3    H236807   4.723   6.328   5.348  1.1582  2.5440 -0.1877
 5106TIP3   OH236808   6.159   3.752   0.215  0.4192  0.1917  0.0046
 5106TIP3    H136809   6.248   3.719   0.215  0.1394 -0.5855 -0.6217
 5106TIP3    H236810   6.146   3.788   0.303  0.7090 -1.4374  0.7397
 5107TIP3   OH236811   0.326   4.604  13.232  0.6171 -0.3912 -0.4103
 5107TIP3    H136812   0.302   4.614  13.324 -0.3011  1.3805 -0.7972
 5107TIP3    H236813   0.409   4.652  13.223  1.0541 -1.1348 -0.3702
 5108TIP3   OH236814   6.537   3.034  13.554 -0.2504 -0.3045 -0.0469
 5108TIP3    H136815   6.521   3.125  13.579 -1.1828 -0.2609 -0.7673
 5108TIP3    H236816   6.453   2.991  13.566 -0.1486 -0.7730 -0.9762
 5109TIP3   OH236817   4.490   0.925   5.295 -0.0321  0.4375 -0.3463
 5109TIP3    H136818   4.563   0.949   5.353  0.0944 -0.7345  0.0108
 5109TIP3    H236819   4.525   0.852   5.243 -0.2726  1.2292 -1.6504
 5110TIP3   OH236820   3.304   6.192   5.062 -0.2299  0.0805  0.8887
 5110TIP3    H136821   3.363   6.158   5.129 -0.7335 -1.4446  0.5982
 5110TIP3    H236822   3.350   6.179   4.980 -0.4799  0.0068  0.7605
 5111TIP3   OH236823   2.075   0.052   1.181 -0.4225 -0.0525  0.1996
 5111TIP3    H136824   2.148   0.005   1.141 -1.7366 -1.3921 -0.7298
 5111TIP3    H236825   2.116   0.127   1.224  1.5149 -0.8672 -0.1032
 5112TIP3   OH236826   4.515   4.213  13.131 -0.3648 -0.0225  0.4575
 5112TIP3    H136827   4.506   4.301  13.095  0.2706  0.4992  1.5428
 5112TIP3    H236828   4.429   4.173  13.118 -0.4850  0.5419 -0.5841
 5113TIP3   OH236829   1.721   6.616   6.289  0.3548  0.0003 -0.0056
 5113TIP3    H136830   1.753   6.534   6.327 -1.7288  0.1110  2.1520
 5113TIP3    H236831   1.648   6.642   6.344 -1.7768  1.1618 -3.0738
 5114TIP3   OH236832   3.052   6.325   5.150 -0.1386 -0.3144  0.4134
 5114TIP3    H136833   3.116   6.268   5.107 -1.1376 -0.1115 -1.4383
 5114TIP3    H236834   2.997   6.266   5.200  0.8115 -0.6049  1.1529
 5115TIP3   OH236835   1.994   1.098  14.059  0.2662  0.4037 -0.4601
 5115TIP3    H136836   2.066   1.080  14.120  0.3036  2.1600  0.0597
 5115TIP3    H236837   2.037   1.112  13.975  0.2690 -1.3824 -0.7838
 5116TIP3   OH236838   5.781   6.396  13.780  0.4986 -0.6839 -0.4979
 5116TIP3    H136839   5.808   6.480  13.816 -1.4494 -0.3030  0.2482
 5116TIP3    H236840   5.781   6.337  13.856 -0.3278 -0.7421 -0.5246
 5117TIP3   OH236841   3.423   6.210   0.962 -0.1086 -0.0213  0.3106
 5117TIP3    H136842   3.477   6.272   0.913 -0.9376 -0.1302 -0.7820
 5117TIP3    H236843   3.384   6.262   1.032 -0.4516  0.6048 -0.3305
 5118TIP3   OH236844   1.334   1.542   2.475  0.1832  0.3538 -0.0379
 5118TIP3    H136845   1.239   1.529   2.468  0.2092 -0.9525  1.5217
 5118TIP3    H236846   1.368   1.519   2.388 -0.7917 -0.6033 -0.1890
 5119TIP3   OH236847   2.769   2.776  14.496  0.9998 -0.2993  0.3092
 5119TIP3    H136848   2.836   2.796  14.430  0.5488 -1.6480 -0.5844
 5119TIP3    H236849   2.796   2.693  14.534  1.2228  0.4279  1.8342
 5120TIP3   OH236850   2.087   2.359  12.563 -0.1865 -0.2627 -0.2651
 5120TIP3    H136851   2.008   2.409  12.584  0.9638  1.8977 -0.8242
 5120TIP3    H236852   2.078   2.338  12.470  0.3028  0.8202 -0.5708
 5121TIP3   OH236853   1.513   3.227   0.763 -0.1366 -0.0694 -0.0512
 5121TIP3    H136854   1.466   3.143   0.755  0.9495 -0.6317 -0.7574
 5121TIP3    H236855   1.462   3.276   0.828  0.0211 -1.8336  1.5147
 5122TIP3   OH236856   0.498   5.405  16.576  0.1624  0.6487  0.2192
 5122TIP3    H136857   0.446   5.328  16.551  2.4686 -0.6160 -0.9585
 5122TIP3    H236858   0.439   5.479  16.561 -0.9660 -0.6232 -2.2372
 5123TIP3   OH236859   1.509   3.995  12.060 -0.3887  0.4137 -0.7057
 5123TIP3    H136860   1.579   4.029  12.004 -1.2335  0.2669 -1.8991
 5123TIP3    H236861   1.432   3.993  12.003 -1.4039  0.7016  0.6167
 5124TIP3   OH236862   4.904   3.681   1.144 -0.3374  0.0123 -0.3689
 5124TIP3    H136863   4.847   3.662   1.070  0.8200 -1.4617 -0.9436
 5124TIP3    H236864   4.875   3.621   1.213 -0.7266  0.6333  0.0143
 5125TIP3   OH236865   0.049   4.781   5.609  0.1522  0.0512  0.2780
 5125TIP3    H136866   0.132   4.809   5.648  1.8761  1.7582 -3.8957
 5125TIP3    H236867   0.072   4.703   5.558 -1.1027 -0.1870  0.0548
 5126TIP3   OH236868   5.627   1.545  14.711  0.3659 -0.0749  0.0531
 5126TIP3    H136869   5.577   1.578  14.785 -0.4862  1.0811 -1.0007
 5126TIP3    H236870   5.684   1.478  14.749 -1.0549 -0.5390  1.5163
 5127TIP3   OH236871   5.019   5.853   4.798 -0.1992 -0.4577  1.3483
 5127TIP3    H136872   5.025   5.777   4.740 -0.0695  0.2879  0.3559
 5127TIP3    H236873   5.059   5.825   4.879 -0.5963 -1.6093  1.1567
 5128TIP3   OH236874   4.419   1.826  16.466  0.0247 -0.0354  0.4321
 5128TIP3    H136875   4.462   1.864  16.542  0.5177  0.5227 -0.1211
 5128TIP3    H236876   4.381   1.901  16.420  0.7145 -0.2406 -0.4840
 5129TIP3   OH236877   3.803   1.546   6.491  0.5137 -0.0826  0.1646
 5129TIP3    H136878   3.807   1.453   6.515 -1.1688  0.3316  2.3452
 5129TIP3    H236879   3.856   1.589   6.558 -0.5075  0.7242  0.4593
 5130TIP3   OH236880   4.502   4.929  12.951 -0.5619  0.5358 -0.2668
 5130TIP3    H136881   4.594   4.903  12.941 -0.6982  0.2141 -0.7131
 5130TIP3    H236882   4.466   4.865  13.013 -0.5040  0.6166 -0.1492
 5131TIP3   OH236883   6.455   0.579  12.349 -0.7643 -0.1634 -0.3997
 5131TIP3    H136884   6.464   0.669  12.318 -0.8972  0.2902  0.8282
 5131TIP3    H236885   6.514   0.528  12.294 -2.5766  0.2227 -2.8848
 5132TIP3   OH236886   5.786   5.827   2.926  0.3599 -0.4029  0.3551
 5132TIP3    H136887   5.742   5.906   2.896 -0.2180 -0.6146  0.6263
 5132TIP3    H236888   5.867   5.858   2.968  1.0709 -0.0904 -1.1875
 5133TIP3   OH236889   5.063   3.472   1.390  0.0427 -0.1243  0.0958
 5133TIP3    H136890   5.095   3.414   1.459 -0.4854  1.1477  1.4537
 5133TIP3    H236891   5.135   3.476   1.327  2.0450  1.4460  2.3192
 5134TIP3   OH236892   6.132   4.985  14.710  0.4529 -0.3077 -0.0786
 5134TIP3    H136893   6.052   4.931  14.712  1.4734 -1.9782 -1.4265
 5134TIP3    H236894   6.196   4.934  14.760  0.3686  1.7237  2.3152
 5135TIP3   OH236895   1.802   2.020   5.710  0.5281  0.2312 -0.1392
 5135TIP3    H136896   1.780   2.110   5.684 -0.2846  0.1515  0.2465
 5135TIP3    H236897   1.836   1.979   5.630 -0.3585  0.4801 -0.6509
 5136TIP3   OH236898   0.935   1.032  11.127 -0.2582  0.1955 -0.3128
 5136TIP3    H136899   0.889   1.052  11.209 -1.3512 -1.6206 -0.4327
 5136TIP3    H236900   0.956   0.939  11.134  2.9363  0.7657 -0.5389
 5137TIP3   OH236901   1.651   2.217  10.679 -0.5037 -0.2682  0.2183
 5137TIP3    H136902   1.731   2.233  10.630 -0.8561  1.0580  0.0515
 5137TIP3    H236903   1.627   2.127  10.656  1.1925 -0.8758  0.6735
 5138TIP3   OH236904   2.808   0.440   1.457  0.3404  0.4530  0.0295
 5138TIP3    H136905   2.795   0.503   1.387  0.7973  0.9052  0.3397
 5138TIP3    H236906   2.812   0.493   1.537  1.0106  0.0729  0.2630
 5139TIP3   OH236907   4.239   5.821  14.687  0.5294  0.2399 -0.3253
 5139TIP3    H136908   4.306   5.875  14.731  0.0788  0.5263  0.0253
 5139TIP3    H236909   4.186   5.884  14.639  1.3442 -0.1254 -1.7513
 5140TIP3   OH236910   1.231   1.643   4.998  0.3210  0.1004 -0.0093
 5140TIP3    H136911   1.255   1.717   5.053 -1.3531  0.0039  0.9015
 5140TIP3    H236912   1.136   1.640   5.002  0.2255 -0.7313 -1.8562
 5141TIP3   OH236913   6.783   5.627  16.072  0.2937 -0.1942  0.9262
 5141TIP3    H136914   6.864   5.603  16.027 -0.0466 -0.7123  0.5840
 5141TIP3    H236915   6.799   5.601  16.163  0.8621  0.5672  1.0542
 5142TIP3   OH236916   0.678   6.593   4.095  0.2198  0.3906  0.1943
 5142TIP3    H136917   0.671   6.684   4.126 -0.3288 -0.2353  1.9779
 5142TIP3    H236918   0.717   6.602   4.008 -0.4215  2.3846  0.0435
 5143TIP3   OH236919   3.080   0.976  13.215  0.1693 -0.7089  0.2207
 5143TIP3    H136920   3.123   0.948  13.134 -1.0483  0.7297 -0.9795
 5143TIP3    H236921   2.987   0.966  13.199 -0.0903 -1.1665  1.7756
 5144TIP3   OH236922   0.786   6.225  12.442  0.6542 -0.0586  0.4885
 5144TIP3    H136923   0.774   6.263  12.529  0.8691 -0.5004  0.7126
 5144TIP3    H236924   0.755   6.135  12.451 -1.8270  0.6126 -0.5616
 5145TIP3   OH236925   1.038   6.542  13.741 -0.6942 -0.3099  0.4604
 5145TIP3    H136926   1.093   6.514  13.667 -0.0416  0.5030  0.6225
 5145TIP3    H236927   1.005   6.628  13.714  0.7049  0.6533  1.6907
 5146TIP3   OH236928   2.591   3.014   0.200  0.7960  0.2654 -0.5006
 5146TIP3    H136929   2.555   2.976   0.120  1.2573  0.4057 -0.7800
 5146TIP3    H236930   2.577   2.947   0.266 -0.7520  0.6498 -0.3977
 5147TIP3   OH236931   2.958   3.890   5.585  0.6836 -0.2696 -0.1004
 5147TIP3    H136932   2.871   3.917   5.614  0.9713  0.2321  0.3139
 5147TIP3    H236933   2.992   3.964   5.535  0.6280 -0.7087 -0.8091
 5148TIP3   OH236934   4.552   1.311  11.199 -0.2154  0.0670 -0.1061
 5148TIP3    H136935   4.485   1.243  11.203  0.5735 -0.7247  0.0610
 5148TIP3    H236936   4.623   1.278  11.255  0.4327  0.7444 -0.5036
 5149TIP3   OH236937   1.628   6.219   1.297  0.0467  0.1251  0.1151
 5149TIP3    H136938   1.578   6.290   1.255 -1.3154 -0.8446  0.0416
 5149TIP3    H236939   1.594   6.216   1.386  0.6088  0.0155  0.3281
 5150TIP3   OH236940   3.531   4.268  12.024 -0.5514  0.1075  0.9709
 5150TIP3    H136941   3.583   4.348  12.024 -2.3734  1.4186 -1.3297
 5150TIP3    H236942   3.559   4.221  11.946 -1.2571 -0.2390  0.9163
 5151TIP3   OH236943   5.618   0.018   4.747  0.2204 -0.8213  0.6769
 5151TIP3    H136944   5.613   0.109   4.776 -0.5357 -1.2810  2.0995
 5151TIP3    H236945   5.695   0.014   4.691 -1.3224  1.3372 -1.8598
 5152TIP3   OH236946   1.878   0.515  16.482  0.0111  0.2280  0.0739
 5152TIP3    H136947   1.958   0.554  16.515  0.1807  0.4109 -0.5264
 5152TIP3    H236948   1.811   0.583  16.496 -0.1729 -0.1557  1.1249
 5153TIP3   OH236949   2.879   5.872   6.466 -0.2572  0.4915 -0.6078
 5153TIP3    H136950   2.889   5.852   6.559  2.8570  2.5063 -0.4033
 5153TIP3    H236951   2.872   5.786   6.424  0.8738 -0.5622  1.2502
 5154TIP3   OH236952   1.074   4.039  11.786 -0.0426  0.3244 -0.4838
 5154TIP3    H136953   1.083   4.102  11.858  0.9126 -0.8205  0.4522
 5154TIP3    H236954   1.008   4.078  11.728  1.2523  2.6799 -0.5001
 5155TIP3   OH236955   6.728   6.786   3.581  0.2123  0.2503 -0.6230
 5155TIP3    H136956   6.803   6.785   3.640 -0.0468 -0.6620 -0.2988
 5155TIP3    H236957   6.674   6.859   3.611  0.5928  0.4299 -0.3817
 5156TIP3   OH236958   1.658   2.821  16.957 -0.0307  0.2468  0.1034
 5156TIP3    H136959   1.574   2.775  16.955  0.5829 -0.9525  0.7615
 5156TIP3    H236960   1.720   2.756  16.988  0.5973  1.9701  2.8178
 5157TIP3   OH236961   2.664   6.515   1.918 -0.0542 -0.6791 -0.2950
 5157TIP3    H136962   2.744   6.546   1.960 -0.2740 -0.1746 -0.2377
 5157TIP3    H236963   2.610   6.482   1.990 -0.9163  1.2430  0.0241
 5158TIP3   OH236964   5.064   0.829   5.649 -0.0443 -0.0841 -0.0591
 5158TIP3    H136965   4.976   0.863   5.637  0.6687  1.5521 -0.8962
 5158TIP3    H236966   5.066   0.800   5.741 -1.5342 -0.4890 -0.1327
 5159TIP3   OH236967   5.734   2.217   5.152  0.0249  0.1038 -0.2346
 5159TIP3    H136968   5.659   2.225   5.093  0.5604  0.1794 -0.9175
 5159TIP3    H236969   5.715   2.140   5.204 -0.4200 -0.0171 -0.5642
 5160TIP3   OH236970   3.067   1.954   3.115 -0.2409 -0.1096 -0.4371
 5160TIP3    H136971   3.149   1.944   3.068  0.0186  0.1874 -0.0571
 5160TIP3    H236972   3.071   1.890   3.186  0.0397  0.4864  0.0934
 5161TIP3   OH236973   4.091   4.954  16.116  0.4205  0.2602 -0.3890
 5161TIP3    H136974   4.055   4.896  16.049  1.4867 -0.1194 -0.6423
 5161TIP3    H236975   4.167   4.995  16.075  0.0528  1.3743 -0.0014
 5162TIP3   OH236976   3.622   4.640   6.545  0.2731  0.7340 -0.2497
 5162TIP3    H136977   3.703   4.608   6.506  0.3388  1.0913 -0.4050
 5162TIP3    H236978   3.640   4.730   6.569 -0.2073  0.9410 -0.6519
 5163TIP3   OH236979   0.781   6.588   6.571 -0.1157 -0.0003 -0.1383
 5163TIP3    H136980   0.730   6.669   6.561  0.2189  0.1530 -0.6478
 5163TIP3    H236981   0.719   6.518   6.549 -0.7663  0.0184  1.4969
 5164TIP3   OH236982   2.041   5.286   4.178  0.6432 -0.0200 -0.1778
 5164TIP3    H136983   2.041   5.381   4.193  3.1419  0.1738 -0.9901
 5164TIP3    H236984   2.067   5.249   4.262  1.1234  0.1094 -0.2700
 5165TIP3   OH236985   6.610   4.042   6.247  0.7760  0.0285  1.1153
 5165TIP3    H136986   6.677   4.041   6.315  1.5988  0.4707  0.3346
 5165TIP3    H236987   6.540   3.985   6.281  0.8629  0.7565  2.6097
 5166TIP3   OH236988   3.999   2.737  12.878 -0.2418 -0.1835 -0.7234
 5166TIP3    H136989   3.947   2.790  12.938 -1.4305 -0.6998 -1.2609
 5166TIP3    H236990   4.051   2.800  12.829  0.0370  0.3092  0.1959
 5167TIP3   OH236991   0.370   1.957   5.636 -0.6497  0.2230 -0.4461
 5167TIP3    H136992   0.434   1.894   5.670  0.3074  0.4888 -1.7119
 5167TIP3    H236993   0.422   2.034   5.611 -1.8743  1.9899  1.9590
 5168TIP3   OH236994   1.156   6.120  15.131 -0.1767  0.2190 -0.4838
 5168TIP3    H136995   1.225   6.163  15.082 -1.4346  1.5425 -1.1778
 5168TIP3    H236996   1.188   6.117  15.221  1.6246 -1.0876 -1.0997
 5169TIP3   OH236997   2.604   2.815   0.429 -0.6948  0.3472  0.3912
 5169TIP3    H136998   2.673   2.878   0.449  1.1332 -1.2685 -0.4586
 5169TIP3    H236999   2.535   2.834   0.492  1.3744  0.7622  2.7119
 5170TIP3   OH237000   3.717   4.768  12.760 -0.1452 -0.0370 -0.6488
 5170TIP3    H137001   3.708   4.673  12.750  0.1120  0.0785 -2.2134
 5170TIP3    H237002   3.790   4.779  12.820 -0.6656 -0.8241  0.1575
 5171TIP3   OH237003   1.616   0.811   5.927  0.7933 -0.4149 -0.2040
 5171TIP3    H137004   1.576   0.824   6.013  1.5105  0.9331 -0.0392
 5171TIP3    H237005   1.542   0.811   5.866  0.3471 -0.5172  0.3299
 5172TIP3   OH237006   4.246   5.129   6.369  0.1405 -0.1506 -0.1906
 5172TIP3    H137007   4.164   5.110   6.324  0.2038 -1.8410  0.3538
 5172TIP3    H237008   4.284   5.201   6.320 -1.8907  1.0161 -0.1602
 5173TIP3   OH237009   2.399   4.347  13.991 -0.3611 -0.2487 -0.0774
 5173TIP3    H137010   2.334   4.301  13.937 -0.6663 -1.2956  1.1386
 5173TIP3    H237011   2.350   4.417  14.033 -0.2391  0.2310 -0.7118
 5174TIP3   OH237012   6.366   0.558   4.200 -0.2175 -0.1814  0.2290
 5174TIP3    H137013   6.405   0.498   4.138 -0.6424 -0.8727  0.6234
 5174TIP3    H237014   6.322   0.502   4.264 -1.0691  0.5513  0.3113
 5175TIP3   OH237015   2.512   6.636  14.972  0.0379 -0.3787 -0.2693
 5175TIP3    H137016   2.465   6.677  14.899 -0.9571 -2.2496 -0.7425
 5175TIP3    H237017   2.497   6.695  15.046 -0.8405  0.4065 -1.0378
 5176TIP3   OH237018   0.646   5.218  14.419 -0.4271 -0.3244  0.6502
 5176TIP3    H137019   0.553   5.238  14.409 -0.5774 -1.6034 -0.9097
 5176TIP3    H237020   0.672   5.179  14.335  1.8485  1.1824  0.5585
 5177TIP3   OH237021   0.101   1.338  15.639 -0.0380 -0.3675  0.0249
 5177TIP3    H137022   0.045   1.411  15.665  1.4191  1.2362 -1.1086
 5177TIP3    H237023   0.053   1.295  15.568 -0.6712 -0.1901  0.3404
 5178TIP3   OH237024   3.207   5.665   4.914  0.0670 -0.2403 -0.1792
 5178TIP3    H137025   3.179   5.756   4.927  0.8328 -0.0973  0.5709
 5178TIP3    H237026   3.285   5.671   4.859 -0.0371 -0.4598 -0.3490
 5179TIP3   OH237027   0.864   1.240  13.005  0.4905  0.5961 -0.3879
 5179TIP3    H137028   0.803   1.256  13.078  0.1486 -1.4366 -0.1668
 5179TIP3    H237029   0.943   1.207  13.047 -0.0711 -1.5826 -0.9553
 5180TIP3   OH237030   4.277   0.470   4.847 -0.4636 -0.4798  0.2260
 5180TIP3    H137031   4.342   0.538   4.828 -0.5529 -0.3214  0.4778
 5180TIP3    H237032   4.193   0.513   4.833 -0.5209 -1.0276 -1.2871
 5181TIP3   OH237033   0.090   3.460  12.398 -0.1446  0.3065 -0.2520
 5181TIP3    H137034   0.041   3.519  12.341 -1.3420 -1.1145 -0.7449
 5181TIP3    H237035   0.150   3.413  12.340  0.1560  0.3835 -0.0072
 5182TIP3   OH237036   6.822   4.255  13.552  0.4158 -0.4129  0.7730
 5182TIP3    H137037   6.776   4.186  13.504  2.5700 -1.3539 -0.0226
 5182TIP3    H237038   6.764   4.331  13.544 -0.6110 -1.2962 -0.9236
 5183TIP3   OH237039   2.276   2.860  15.538 -0.4273  0.2948  0.0566
 5183TIP3    H137040   2.282   2.946  15.580  1.3472 -0.0875  0.6744
 5183TIP3    H237041   2.263   2.798  15.610  0.7774 -0.1868 -0.1216
 5184TIP3   OH237042   5.670   3.481  12.889 -0.0969  0.2016 -0.0138
 5184TIP3    H137043   5.716   3.491  12.973  0.4647  2.1563 -0.5095
 5184TIP3    H237044   5.580   3.508  12.908  0.4641  2.5453 -0.4074
 5185TIP3   OH237045   0.722   0.223  12.186 -0.4797 -0.3950 -0.1713
 5185TIP3    H137046   0.787   0.166  12.145 -1.9613 -0.9671 -1.8761
 5185TIP3    H237047   0.638   0.192  12.152 -1.4173  2.3954 -0.7111
 5186TIP3   OH237048   5.380   4.958   0.408  0.0071  0.0316  0.0013
 5186TIP3    H137049   5.302   4.911   0.376  0.1348 -0.9684  1.1009
 5186TIP3    H237050   5.380   5.039   0.358 -0.4587 -0.9337 -1.6738
 5187TIP3   OH237051   6.005   4.794   6.058  0.1263 -0.5149 -0.2345
 5187TIP3    H137052   5.921   4.778   6.015  0.2705 -0.8751 -0.3830
 5187TIP3    H237053   5.982   4.809   6.150 -0.3687  1.9841 -0.6911
 5188TIP3   OH237054   4.240   0.382  10.914  0.1597 -0.1667 -0.3112
 5188TIP3    H137055   4.149   0.367  10.888  0.4088 -0.0058 -1.3206
 5188TIP3    H237056   4.235   0.410  11.006 -0.6096 -2.7402  0.5432
 5189TIP3   OH237057   4.768   1.950  13.541  0.1949 -0.0168 -0.1491
 5189TIP3    H137058   4.777   1.898  13.621  0.3443  1.0039  0.5212
 5189TIP3    H237059   4.808   2.034  13.563 -0.1403  0.4198 -1.1669
 5190TIP3   OH237060   3.520   0.220   0.940 -0.1339 -0.1946  0.0372
 5190TIP3    H137061   3.474   0.216   1.024  0.7011  0.5542  0.5559
 5190TIP3    H237062   3.593   0.280   0.956 -0.3338  0.4810 -1.4035
 5191TIP3   OH237063   4.953   5.949   0.639  0.0934  0.3162  0.0421
 5191TIP3    H137064   4.979   5.865   0.601 -2.0363 -0.9520  1.1826
 5191TIP3    H237065   5.018   5.965   0.708  0.0607 -0.8054  0.3487
 5192TIP3   OH237066   3.339   2.084  11.769 -0.1663 -0.4522  0.3404
 5192TIP3    H137067   3.397   2.154  11.800 -1.0968 -0.2138  1.6844
 5192TIP3    H237068   3.260   2.130  11.741  0.1503 -0.7932 -1.1685
 5193TIP3   OH237069   1.801   4.341   3.180  0.7246 -0.0507  0.2061
 5193TIP3    H137070   1.761   4.393   3.110 -0.2511 -0.1009  0.7040
 5193TIP3    H237071   1.895   4.342   3.161  0.5499  0.5883 -0.6594
 5194TIP3   OH237072   4.479   4.343   2.351 -0.0475  0.2054  0.6304
 5194TIP3    H137073   4.415   4.272   2.350 -2.2022  1.9303 -1.9962
 5194TIP3    H237074   4.437   4.411   2.404  1.1198  0.2290  1.5502
 5195TIP3   OH237075   5.864   4.695  12.828  0.0431 -0.0488  0.3600
 5195TIP3    H137076   5.956   4.669  12.833  0.3210  0.9831  1.0390
 5195TIP3    H237077   5.824   4.655  12.906  0.3562  1.0742  1.1201
 5196TIP3   OH237078   0.497   2.815   1.769  0.5606 -0.1841 -0.5881
 5196TIP3    H137079   0.408   2.839   1.742  1.2502  0.7236 -2.2043
 5196TIP3    H237080   0.510   2.728   1.731  0.4507 -0.1985 -0.5937
 5197TIP3   OH237081   4.088   1.152   5.372  0.2464  0.2765 -0.2400
 5197TIP3    H137082   4.108   1.110   5.455  0.2371 -0.3445 -0.5463
 5197TIP3    H237083   4.165   1.134   5.317 -0.3102 -0.4574 -0.7927
 5198TIP3   OH237084   0.391   6.085  12.134 -0.3812  0.1574 -0.5142
 5198TIP3    H137085   0.341   6.097  12.214 -0.0106 -0.4667 -0.1827
 5198TIP3    H237086   0.329   6.048  12.071  0.4704 -4.4754  1.0305
 5199TIP3   OH237087   5.761   4.926   3.691  0.5838  0.3274 -0.4731
 5199TIP3    H137088   5.760   4.831   3.694 -0.7395  0.3500  0.3875
 5199TIP3    H237089   5.686   4.949   3.637  0.1919  0.8987  0.2977
 5200TIP3   OH237090   5.576   5.910   0.273  0.1881  0.5628  0.5995
 5200TIP3    H137091   5.591   5.982   0.212 -0.5789  3.3539  3.4257
 5200TIP3    H237092   5.653   5.908   0.329  0.7191 -1.6833 -0.1137
 5201TIP3   OH237093   5.877   1.019  14.021 -0.5600 -0.2270  0.3738
 5201TIP3    H137094   5.968   1.036  13.996  0.3644 -3.2407  1.3446
 5201TIP3    H237095   5.825   1.064  13.954  1.5730  1.8257 -0.0367
 5202TIP3   OH237096   0.864   4.574   5.733 -0.2055 -0.0902  0.1186
 5202TIP3    H137097   0.940   4.516   5.741 -0.0825  0.1154  0.4522
 5202TIP3    H237098   0.841   4.595   5.823 -1.8507 -1.6851  0.1288
 5203TIP3   OH237099   2.220   2.810   0.991  0.1265 -0.0556  0.2271
 5203TIP3    H137100   2.177   2.750   0.930  1.1748 -0.2268 -0.3618
 5203TIP3    H237101   2.165   2.888   0.991  0.8629  0.5269 -2.0888
 5204TIP3   OH237102   1.687   6.379   4.185 -0.0559  0.9229 -0.0837
 5204TIP3    H137103   1.708   6.287   4.168  0.6098  0.5397  2.4673
 5204TIP3    H237104   1.731   6.426   4.114 -0.6098 -0.6889 -1.5984
 5205TIP3   OH237105   5.126   6.625  11.726  0.0298  0.0868 -0.5927
 5205TIP3    H137106   5.182   6.688  11.772  0.0496 -0.1960 -0.2276
 5205TIP3    H237107   5.068   6.680  11.672  0.9822  0.3623 -1.3629
 5206TIP3   OH237108   6.223   4.850   4.325  0.5951  0.2162  0.3706
 5206TIP3    H137109   6.170   4.924   4.297 -1.7779 -1.4407  0.1275
 5206TIP3    H237110   6.250   4.808   4.243  0.7943  0.0815  0.5060
 5207TIP3   OH237111   6.374   0.698  16.006  0.2013  0.0536 -0.3594
 5207TIP3    H137112   6.329   0.681  15.924  1.3321  0.8960 -1.1816
 5207TIP3    H237113   6.311   0.672  16.074 -0.6343 -0.9444 -1.4715
 5208TIP3   OH237114   1.841   0.371   2.284  0.1088  0.0236 -0.2047
 5208TIP3    H137115   1.822   0.388   2.192 -1.5715  0.9249  0.2636
 5208TIP3    H237116   1.790   0.292   2.304 -2.0914  1.5525  0.6614
 5209TIP3   OH237117   0.719   1.794   2.392  0.1466 -0.2778  0.2497
 5209TIP3    H137118   0.628   1.825   2.388  0.4925  0.7964  0.5938
 5209TIP3    H237119   0.742   1.796   2.485  0.7298  0.0617  0.1016
 5210TIP3   OH237120   0.600   6.788  17.029 -0.0688  0.1644  0.2824
 5210TIP3    H137121   0.565   6.707  16.993 -1.8654  0.2571  1.6510
 5210TIP3    H237122   0.661   6.760  17.097 -1.8516 -0.1721  1.8595
 5211TIP3   OH237123   4.397   0.950   4.537 -0.5093 -0.0287  0.0552
 5211TIP3    H137124   4.412   1.045   4.542  1.4579 -0.3414  1.1304
 5211TIP3    H237125   4.448   0.914   4.610 -1.9194 -1.8568  0.2106
 5212TIP3   OH237126   4.956   3.639   2.723 -0.0998  0.0139 -0.1823
 5212TIP3    H137127   5.038   3.688   2.732  0.4958 -0.7630 -1.1608
 5212TIP3    H237128   4.933   3.649   2.630 -1.6020  0.9538  0.2494
 5213TIP3   OH237129   6.174   5.805  11.701  0.1062  0.3232  0.4868
 5213TIP3    H137130   6.190   5.724  11.748 -1.0169 -1.8732 -2.5529
 5213TIP3    H237131   6.090   5.837  11.736  0.3256 -0.0723  1.3938
 5214TIP3   OH237132   3.546   1.306   2.692 -0.3667  0.2195  0.0370
 5214TIP3    H137133   3.578   1.298   2.781  2.0364 -0.6221 -0.8197
 5214TIP3    H237134   3.542   1.401   2.676  0.7208  0.3699  0.5556
 5215TIP3   OH237135   1.843   5.644   4.887  0.2116  0.0866 -0.5240
 5215TIP3    H137136   1.828   5.701   4.963 -0.5597  0.3011 -0.8267
 5215TIP3    H237137   1.889   5.699   4.825  2.2924 -0.5495  0.3755
 5216TIP3   OH237138   0.909   0.786   3.595 -0.0283  0.4519  0.0055
 5216TIP3    H137139   0.915   0.717   3.528  0.6483  0.6854 -0.1905
 5216TIP3    H237140   1.000   0.813   3.608 -0.1325  0.2809  1.1598
 5217TIP3   OH237141   0.973   0.277   4.954  0.0259  0.1602  0.9180
 5217TIP3    H137142   0.902   0.340   4.959  1.5046  2.2682 -1.7252
 5217TIP3    H237143   1.051   0.330   4.938  1.7737 -2.2020  1.0713
 5218TIP3   OH237144   0.220   2.577  15.796  0.0669  1.1746 -0.5241
 5218TIP3    H137145   0.228   2.644  15.865  0.0300  1.5184 -0.8493
 5218TIP3    H237146   0.309   2.566  15.763  0.1274  0.8164 -0.2423
 5219TIP3   OH237147   3.886   4.961  12.958  0.0214  1.0610 -0.1621
 5219TIP3    H137148   3.911   5.045  12.994 -0.8601  0.7225  1.2977
 5219TIP3    H237149   3.913   4.897  13.023 -1.6177  0.4306 -0.0505
 5220TIP3   OH237150   1.381   5.197  12.425 -0.0724  0.5645  0.3275
 5220TIP3    H137151   1.462   5.148  12.412  0.8739  2.3558 -1.0564
 5220TIP3    H237152   1.377   5.214  12.519  1.4382  0.8535  0.3561
 5221TIP3   OH237153   3.582   0.785   6.037  0.3603  0.5168 -0.2035
 5221TIP3    H137154   3.570   0.748   5.949  0.9157  0.2652 -0.1749
 5221TIP3    H237155   3.663   0.747   6.069  1.6253  2.6602 -0.6383
 5222TIP3   OH237156   1.755   0.666  11.387  0.4314  1.0315 -0.1483
 5222TIP3    H137157   1.785   0.704  11.470 -0.8679  1.3271  0.2059
 5222TIP3    H237158   1.788   0.726  11.320  1.0691  1.0589  0.1798
 5223TIP3   OH237159   3.065   1.560   4.649  0.1701 -0.3817  0.6673
 5223TIP3    H137160   3.092   1.516   4.569 -1.5836  0.5159 -0.4868
 5223TIP3    H237161   3.010   1.496   4.694 -0.9041 -0.0493 -0.1229
 5224TIP3   OH237162   2.807   4.080  12.572 -0.2440 -0.8508 -0.0791
 5224TIP3    H137163   2.836   4.150  12.514  1.0695  0.3365  1.8780
 5224TIP3    H237164   2.790   4.006  12.514  0.0263  0.5547 -2.0497
 5225TIP3   OH237165   5.541   1.707   3.633  0.5103  0.4309 -0.8373
 5225TIP3    H137166   5.604   1.777   3.651  1.3126 -0.7285  1.1231
 5225TIP3    H237167   5.562   1.639   3.696 -0.5889 -1.3950 -2.3405
 5226TIP3   OH237168   5.955   5.250  17.051  0.5924 -0.1523  0.0174
 5226TIP3    H137169   5.893   5.275  16.982 -0.9107  0.3641  1.4701
 5226TIP3    H237170   5.929   5.161  17.075 -0.1962  0.3749  1.2148
 5227TIP3   OH237171   6.271   4.804   5.316 -0.0336  0.0132 -0.1022
 5227TIP3    H137172   6.308   4.760   5.240  2.1111  3.5264 -1.3831
 5227TIP3    H237173   6.295   4.749   5.390 -0.6610 -2.6437 -1.7606
 5228TIP3   OH237174   0.932   1.777   4.279  0.0228  0.6256  0.5569
 5228TIP3    H137175   1.027   1.779   4.269  0.0794 -1.6952  0.0322
 5228TIP3    H237176   0.899   1.764   4.190 -0.6625 -0.0272  0.8921
 5229TIP3   OH237177   3.914   0.156  15.166 -0.7472 -0.7623  0.6701
 5229TIP3    H137178   3.822   0.167  15.143 -0.5069  0.1421  0.0709
 5229TIP3    H237179   3.918   0.074  15.215 -1.5562 -1.8738 -1.0505
 5230TIP3   OH237180   5.460   0.663  16.316  0.7376  0.2836  0.0390
 5230TIP3    H137181   5.524   0.592  16.307  1.7136  1.1326  0.0502
 5230TIP3    H237182   5.444   0.669  16.410  1.3041  0.6203  0.1202
 5231TIP3   OH237183   0.152   0.363  12.951 -0.0523  0.3866  0.6066
 5231TIP3    H137184   0.079   0.302  12.953 -0.7369  1.0678 -1.5251
 5231TIP3    H237185   0.128   0.432  13.013 -0.1768 -0.4898  1.5480
 5232TIP3   OH237186   3.029   1.535   1.549 -0.2957  0.7123 -0.3785
 5232TIP3    H137187   2.936   1.523   1.530 -0.4466  1.4089 -0.1082
 5232TIP3    H237188   3.070   1.547   1.463 -0.5050  0.7300 -0.4762
 5233TIP3   OH237189   2.699   3.457   2.512  0.0960 -0.3764 -0.2377
 5233TIP3    H137190   2.731   3.534   2.466  1.8308 -0.4803  0.6966
 5233TIP3    H237191   2.611   3.481   2.542  0.0977  0.7326 -1.0730
 5234TIP3   OH237192   1.589   6.052   5.653  0.2578 -0.5829  0.0550
 5234TIP3    H137193   1.497   6.072   5.637 -0.1955 -1.6162  1.2239
 5234TIP3    H237194   1.597   5.958   5.634  0.6769 -0.8691  1.5672
 5235TIP3   OH237195   4.963   1.012  15.786 -0.3840  0.3094 -0.1797
 5235TIP3    H137196   4.999   0.980  15.869  0.1298 -0.4464 -0.6771
 5235TIP3    H237197   4.984   1.105  15.785  3.2883 -0.3735 -1.2202
 5236TIP3   OH237198   2.036   6.750   1.743 -0.3751 -0.2837  1.2956
 5236TIP3    H137199   2.083   6.766   1.661 -1.2209  0.2216  0.9007
 5236TIP3    H237200   2.012   6.658   1.739 -1.2080 -0.0538  0.5330
 5237TIP3   OH237201   0.983   1.435   5.160 -0.8842  0.0085 -0.2163
 5237TIP3    H137202   1.045   1.496   5.198  0.2017 -0.2058 -1.5639
 5237TIP3    H237203   0.900   1.484   5.157 -0.9886  0.0836  2.1575
 5238TIP3   OH237204   2.158   1.835   1.859 -0.1994  0.2141  0.2888
 5238TIP3    H137205   2.210   1.809   1.783 -0.2958  1.1517 -0.1247
 5238TIP3    H237206   2.181   1.773   1.927  0.9618  0.2045 -0.0878
 5239TIP3   OH237207   1.021   0.436   1.890 -0.2567  0.2655  0.5661
 5239TIP3    H137208   0.976   0.466   1.969  2.1801 -0.7022  2.4857
 5239TIP3    H237209   0.972   0.358   1.863 -0.9318  0.4075  1.3303
 5240TIP3   OH237210   2.709   5.070  11.451 -0.1703  0.3922  0.4190
 5240TIP3    H137211   2.676   5.113  11.372  1.1577  0.9003  0.1086
 5240TIP3    H237212   2.726   4.980  11.424 -3.2008 -0.4916  1.1392
 5241TIP3   OH237213   6.076   3.516  12.493  0.1448 -0.0719 -0.1338
 5241TIP3    H137214   6.140   3.512  12.421  1.4025  1.3882  0.8326
 5241TIP3    H237215   6.018   3.589  12.469  0.6977  0.5592  0.3939
 5242TIP3   OH237216   1.537   1.400  12.918  0.8182 -0.5917 -0.9436
 5242TIP3    H137217   1.537   1.304  12.911  0.9154 -0.6103 -0.6822
 5242TIP3    H237218   1.556   1.417  13.010 -0.4832 -0.3419 -0.7041
 5243TIP3   OH237219   3.832   0.717   4.268  0.4419 -0.3711 -0.1765
 5243TIP3    H137220   3.825   0.688   4.177 -0.7159 -0.3697 -0.1050
 5243TIP3    H237221   3.879   0.800   4.264  0.2157 -0.2713 -0.7987
 5244TIP3   OH237222   4.251   0.720   4.733  0.4546  0.0325 -0.2816
 5244TIP3    H137223   4.263   0.801   4.783  0.0582  0.2540 -0.5365
 5244TIP3    H237224   4.178   0.740   4.674 -0.8757 -1.0880  0.9054
 5245TIP3   OH237225   2.362   1.746  10.988 -0.6673  0.0928 -0.4684
 5245TIP3    H137226   2.374   1.730  10.894  1.3254 -0.9541 -0.0955
 5245TIP3    H237227   2.344   1.660  11.025  0.0201  0.2653  0.2824
 5246TIP3   OH237228   0.668   4.828  16.053  0.8006 -0.6179 -0.1911
 5246TIP3    H137229   0.623   4.754  16.094  0.2616  0.2006  0.7228
 5246TIP3    H237230   0.598   4.882  16.017  1.1487 -0.2364 -0.3088
 5247TIP3   OH237231   1.949   5.383   5.033 -0.3092  0.7128  0.4734
 5247TIP3    H137232   2.009   5.457   5.044 -0.9256  1.0841  1.4839
 5247TIP3    H237233   1.974   5.321   5.101 -0.4161  0.4067  0.2391
 5248TIP3   OH237234   3.707   3.701   5.957  1.0735  0.3506  0.1098
 5248TIP3    H137235   3.702   3.630   6.021  1.2797  0.1109 -0.1343
 5248TIP3    H237236   3.637   3.761   5.981  0.7693 -0.0369  0.2018
 5249TIP3   OH237237   3.696   3.607  12.684  0.8342  0.0128  0.1406
 5249TIP3    H137238   3.717   3.693  12.647  0.3591  0.6649  1.3234
 5249TIP3    H237239   3.673   3.625  12.775 -1.6585 -1.0567 -0.1919
 5250TIP3   OH237240   4.044   1.631  13.469 -0.0889  0.2632 -0.4213
 5250TIP3    H137241   4.113   1.573  13.502 -0.2712  0.9854  1.3651
 5250TIP3    H237242   4.080   1.669  13.389  0.5658 -1.2525 -0.8839
 5251TIP3   OH237243   0.205   2.038   2.797 -0.3777 -0.0664  0.7672
 5251TIP3    H137244   0.207   2.115   2.739 -2.2824 -0.1061  0.5851
 5251TIP3    H237245   0.219   1.964   2.738 -0.3466  0.0246  0.6598
 5252TIP3   OH237246   1.611   0.148  12.086  0.0829  0.1140 -0.0645
 5252TIP3    H137247   1.546   0.115  12.024 -0.4483  0.5013  0.2714
 5252TIP3    H237248   1.625   0.076  12.147 -2.5836  1.0747  1.8748
 5253TIP3   OH237249   0.636   2.414   5.859 -0.2788  0.5494 -0.1939
 5253TIP3    H137250   0.683   2.488   5.821  1.2987  0.5544  1.6337
 5253TIP3    H237251   0.546   2.444   5.867  0.2658  2.1729  0.2127
 5254TIP3   OH237252   5.762   4.714   0.522  0.4044 -0.5303 -0.2403
 5254TIP3    H137253   5.694   4.722   0.455 -0.9954 -0.4908  1.1148
 5254TIP3    H237254   5.840   4.685   0.475 -0.6834 -1.0349 -1.7885
 5255TIP3   OH237255   5.747   0.485  12.342 -0.1387  0.2887 -0.3031
 5255TIP3    H137256   5.702   0.441  12.414  1.0021  0.9377  0.8652
 5255TIP3    H237257   5.753   0.420  12.273 -1.7381 -0.1900 -0.0141
 5256TIP3   OH237258   0.228   2.377  14.427  0.4768  0.0026  0.3448
 5256TIP3    H137259   0.257   2.395  14.337 -0.8069 -0.5628 -0.2118
 5256TIP3    H237260   0.285   2.307  14.457  2.2600  1.5557  0.7415
 5257TIP3   OH237261   2.369   2.877  13.036  0.2854 -0.0272 -0.6056
 5257TIP3    H137262   2.315   2.849  12.962 -1.4838  1.4373  0.0571
 5257TIP3    H237263   2.441   2.926  12.996 -0.2648  0.1473 -1.4047
 5258TIP3   OH237264   5.910   2.607   2.885  0.3472  0.5288 -0.5266
 5258TIP3    H137265   5.881   2.614   2.976  1.6596  0.5627 -0.0790
 5258TIP3    H237266   5.899   2.515   2.863 -0.4119  0.6102 -0.4894
 5259TIP3   OH237267   3.333   0.788  13.767 -0.3478 -0.3762 -0.0181
 5259TIP3    H137268   3.404   0.725  13.755 -1.2734 -1.3637 -0.5405
 5259TIP3    H237269   3.302   0.773  13.856 -0.3091 -0.3793 -0.0052
 5260TIP3   OH237270   6.080   3.772   5.178  0.1911 -0.4069  0.0877
 5260TIP3    H137271   6.125   3.750   5.260  1.6651 -2.5061 -1.1722
 5260TIP3    H237272   5.994   3.803   5.205  0.7935 -0.5932  2.4398
 5261TIP3   OH237273   3.817   1.285  11.776  0.0621 -0.0074 -0.0445
 5261TIP3    H137274   3.761   1.223  11.730 -1.0906  0.7620  0.2721
 5261TIP3    H237275   3.766   1.311  11.853  1.5198 -0.4913  1.1341
 5262TIP3   OH237276   4.322   2.259   2.962 -0.8101  0.2743 -0.3618
 5262TIP3    H137277   4.251   2.322   2.972 -0.5459  1.1240 -2.9526
 5262TIP3    H237278   4.289   2.178   3.001 -1.8180  1.5485  1.5509
 5263TIP3   OH237279   6.402   5.907  15.534  0.5220 -0.6594 -0.0272
 5263TIP3    H137280   6.496   5.899  15.553  0.4804  0.1758  0.6083
 5263TIP3    H237281   6.377   5.821  15.501  0.7635 -2.1192  3.2236
 5264TIP3   OH237282   4.321   0.187  15.364 -0.2900  0.4939  0.1906
 5264TIP3    H137283   4.257   0.119  15.341  0.7574 -0.7499  0.8366
 5264TIP3    H237284   4.268   0.258  15.401 -1.4716  0.3120 -1.0946
 5265TIP3   OH237285   2.740   6.425  15.377  0.2174  0.0238 -0.7215
 5265TIP3    H137286   2.761   6.332  15.368 -0.8595 -0.1838 -1.1610
 5265TIP3    H237287   2.756   6.462  15.290  0.9642  0.3286 -0.4651
 5266TIP3   OH237288   3.368   3.426  12.887 -0.2074  0.8945  0.1267
 5266TIP3    H137289   3.307   3.359  12.917  0.5982  0.7667  1.5395
 5266TIP3    H237290   3.313   3.500  12.863 -0.9681  0.4549  0.5053
 5267TIP3   OH237291   1.389   6.616   5.443  0.0538  0.4104  0.1359
 5267TIP3    H137292   1.452   6.544   5.442 -1.4458 -1.0079  1.5769
 5267TIP3    H237293   1.309   6.577   5.479 -0.7202  2.8790  1.2645
 5268TIP3   OH237294   5.780   3.199   0.207 -0.2816  0.5410 -0.3790
 5268TIP3    H137295   5.784   3.112   0.248 -0.0211  0.0461 -1.4166
 5268TIP3    H237296   5.789   3.182   0.114  0.0965  1.7213 -0.5764
 5269TIP3   OH237297   0.029   5.699  14.291 -0.1867 -0.5348 -0.5372
 5269TIP3    H137298   0.073   5.772  14.248  0.3830 -1.9189 -2.4438
 5269TIP3    H237299  -0.062   5.705  14.260 -0.0711 -0.7800 -0.9381
 5270TIP3   OH237300   0.656   1.965   6.113 -0.7829  0.0581  0.4641
 5270TIP3    H137301   0.645   1.917   6.195 -0.9052 -1.0825 -0.1914
 5270TIP3    H237302   0.589   1.930   6.055 -1.6331  1.8476  0.2862
 5271TIP3   OH237303   3.402   0.868  12.207 -0.3085 -0.2747  0.1828
 5271TIP3    H137304   3.424   0.784  12.166  1.1015 -0.0544  0.4176
 5271TIP3    H237305   3.323   0.897  12.162 -0.2483 -1.2623 -0.5901
 5272TIP3   OH237306   1.186   1.625   2.119 -0.1219  0.4219  0.2801
 5272TIP3    H137307   1.272   1.591   2.142  0.8598  1.1600 -2.0459
 5272TIP3    H237308   1.128   1.549   2.124  0.8372 -0.2886  0.9370
 5273TIP3   OH237309   3.460   5.410  16.836  0.3190 -0.5753 -0.3818
 5273TIP3    H137310   3.414   5.489  16.863  1.4893 -0.2169  0.6473
 5273TIP3    H237311   3.470   5.359  16.916  1.1940 -0.9087 -0.6929
 5274TIP3   OH237312   2.962   6.287   0.994  0.2627  0.2874  0.2967
 5274TIP3    H137313   2.881   6.318   1.033  0.8315  2.3015 -0.0015
 5274TIP3    H237314   3.023   6.281   1.067 -0.2987 -1.9428  0.6436
 5275TIP3   OH237315   4.174   5.732  10.918  0.6123 -0.0449 -0.0608
 5275TIP3    H137316   4.223   5.783  10.854  1.4297 -2.2282 -1.2844
 5275TIP3    H237317   4.207   5.761  11.003  1.0600  1.3870 -0.6941
 5276TIP3   OH237318   1.221   5.258  13.665  0.4295 -0.5421  0.2862
 5276TIP3    H137319   1.155   5.223  13.725  0.6658  0.6079  1.2545
 5276TIP3    H237320   1.200   5.351  13.658  1.8887 -0.1716  0.5532
 5277TIP3   OH237321   5.906   5.036  15.861  0.0452  0.4690  0.4232
 5277TIP3    H137322   5.823   5.035  15.909  0.7057  0.5925  1.6149
 5277TIP3    H237323   5.911   4.949  15.822  0.1149 -0.1467  1.7387
 5278TIP3   OH237324   4.427   2.797   5.931  0.2114 -0.1126 -0.1002
 5278TIP3    H137325   4.420   2.862   5.861 -2.7868 -0.5785 -0.3520
 5278TIP3    H237326   4.358   2.821   5.993  0.5869 -1.6793  0.9741
 5279TIP3   OH237327   3.169   4.143   1.188  0.7186  0.3749 -0.6412
 5279TIP3    H137328   3.168   4.218   1.129  1.9303 -0.5005 -1.8345
 5279TIP3    H237329   3.209   4.073   1.137 -4.2185 -2.4895 -1.1958
 5280TIP3   OH237330   0.669   3.354   1.617 -0.1897 -0.2726  0.3551
 5280TIP3    H137331   0.646   3.261   1.614 -1.6787  0.0308  1.2718
 5280TIP3    H237332   0.588   3.397   1.644  0.5402  1.2755  0.1481
 5281TIP3   OH237333   0.633   3.221  16.711  0.0090 -0.0814 -0.1776
 5281TIP3    H137334   0.594   3.258  16.632  0.0153  0.9336  0.2665
 5281TIP3    H237335   0.572   3.244  16.781  0.5097 -0.0564  0.2583
 5282TIP3   OH237336   0.713   1.723   3.286  0.1683 -0.6487 -0.6470
 5282TIP3    H137337   0.655   1.699   3.214 -0.4357  0.4613 -0.5515
 5282TIP3    H237338   0.704   1.651   3.349 -0.3607 -0.9529 -1.0623
 5283TIP3   OH237339   5.909   4.431   2.017 -0.2570  0.5190 -0.2405
 5283TIP3    H137340   5.824   4.405   1.980  0.0923  0.7145 -1.1968
 5283TIP3    H237341   5.909   4.526   2.009 -0.0922  0.5457  0.0880
 5284TIP3   OH237342   0.312   2.185   1.446  0.1978  0.0347  0.3317
 5284TIP3    H137343   0.357   2.203   1.364  0.2164 -1.8246 -0.1106
 5284TIP3    H237344   0.239   2.128   1.421  1.3336 -2.2101  1.7775
 5285TIP3   OH237345   0.327   5.188   5.140 -0.1186  0.5052 -0.5188
 5285TIP3    H137346   0.305   5.108   5.186  2.4536 -0.2707 -0.4526
 5285TIP3    H237347   0.256   5.200   5.077 -1.0039 -1.3316  0.0549
 5286TIP3   OH237348   5.857   5.300   1.601 -0.1079  0.2614 -0.4183
 5286TIP3    H137349   5.929   5.342   1.648  0.1123 -2.0475  1.5220
 5286TIP3    H237350   5.899   5.236   1.544 -0.5533 -0.6247  0.2198
 5287TIP3   OH237351   3.071   1.153   3.283  0.9923  0.3499 -0.4151
 5287TIP3    H137352   3.010   1.125   3.352  1.3775  0.2865 -0.0935
 5287TIP3    H237353   3.045   1.243   3.264  1.6043  0.7766  0.6495
 5288TIP3   OH237354   0.389   1.666   2.471 -0.2520 -0.5235 -0.1404
 5288TIP3    H137355   0.375   1.751   2.430  0.2629 -0.5107 -0.2967
 5288TIP3    H237356   0.460   1.626   2.420 -0.4903 -1.0446 -0.0688
 5289TIP3   OH237357   5.013   3.354   5.051 -0.0580  0.2265  0.0776
 5289TIP3    H137358   4.924   3.346   5.084 -0.0188 -0.0631  0.1193
 5289TIP3    H237359   5.007   3.326   4.959  0.0508 -0.1239  0.1759
 5290TIP3   OH237360   0.908   2.439   2.096  0.4909  0.1913 -0.5177
 5290TIP3    H137361   0.912   2.358   2.146  0.9988  0.8879  0.6027
 5290TIP3    H237362   0.849   2.495   2.145  0.0638  0.4786 -1.3394
 5291TIP3   OH237363   1.518   1.112   3.769 -0.0136  0.3923  0.0717
 5291TIP3    H137364   1.584   1.152   3.825 -0.7741  0.8226  0.6884
 5291TIP3    H237365   1.469   1.186   3.732  1.6054  0.2359 -2.6857
 5292TIP3   OH237366   4.172   4.171  17.007 -0.0710 -0.0129 -0.0146
 5292TIP3    H137367   4.093   4.224  17.014  0.7538  1.1230  1.2808
 5292TIP3    H237368   4.241   4.235  16.988  0.8845 -0.6636  1.1236
 5293TIP3   OH237369   5.304   5.677   4.246  0.1321  0.0911  0.3038
 5293TIP3    H137370   5.240   5.637   4.188 -0.0467  0.2534  0.3884
 5293TIP3    H237371   5.383   5.623   4.236  0.6407  1.0527 -1.3553
 5294TIP3   OH237372   2.403   5.001  14.853 -0.2005  0.5459 -0.1897
 5294TIP3    H137373   2.492   5.023  14.824  0.5330  0.9559  2.1440
 5294TIP3    H237374   2.381   4.922  14.804  2.4752 -1.0164  0.9001
 5295TIP3   OH237375   6.250   3.492  15.264  0.1720 -0.3519  0.3940
 5295TIP3    H137376   6.193   3.555  15.220 -0.9902 -1.2606  0.5389
 5295TIP3    H237377   6.227   3.500  15.357  1.6453  0.5997  0.7069
 5296TIP3   OH237378   5.688   1.799   0.178 -0.3046 -0.5097  0.0489
 5296TIP3    H137379   5.748   1.828   0.247 -1.3797  0.0031  0.7778
 5296TIP3    H237380   5.625   1.870   0.169  0.3314 -0.1494 -2.1158
 5297TIP3   OH237381   1.612   1.484  15.942  0.1601  0.3876 -0.4760
 5297TIP3    H137382   1.653   1.541  15.877 -1.1617  0.6975 -1.0819
 5297TIP3    H237383   1.593   1.542  16.016 -2.4837  1.1496 -1.6497
 5298TIP3   OH237384   4.409   3.034   1.019 -0.4757 -0.1350  0.3548
 5298TIP3    H137385   4.450   2.957   1.058 -1.8373 -0.7382  0.6343
 5298TIP3    H237386   4.377   3.085   1.093 -0.4442  0.2220  0.1282
 5299TIP3   OH237387   0.609   4.860  15.068  0.6518  0.4258  0.3002
 5299TIP3    H137388   0.655   4.784  15.104  0.4730  0.4440  0.5733
 5299TIP3    H237389   0.550   4.887  15.139 -0.4883 -0.1974 -0.3857
 5300TIP3   OH237390   3.067   6.436   6.017 -0.3628  0.1935  0.5255
 5300TIP3    H137391   3.149   6.386   6.020 -0.3738 -0.0121 -1.2496
 5300TIP3    H237392   3.003   6.378   6.058 -0.1515 -0.8445 -0.5398
 5301TIP3   OH237393   1.514   2.236  16.364 -0.1543 -0.6316 -0.0245
 5301TIP3    H137394   1.549   2.289  16.292 -1.7674 -1.4053 -1.4482
 5301TIP3    H237395   1.554   2.273  16.443  0.2035  1.4791 -1.1293
 5302TIP3   OH237396   3.173   2.306  16.715  0.1789  1.1248  0.2858
 5302TIP3    H137397   3.167   2.394  16.755  0.9547  0.3130  2.3563
 5302TIP3    H237398   3.266   2.285  16.717  0.0574  0.4353 -0.6598
 5303TIP3   OH237399   1.739   4.894  12.863 -0.5640  0.1929  0.6897
 5303TIP3    H137400   1.803   4.895  12.792 -1.4749  3.0650 -0.1968
 5303TIP3    H237401   1.656   4.873  12.821 -0.8865  0.5456  1.1406
 5304TIP3   OH237402   2.951   4.285   5.088 -0.0416  0.4728 -0.2308
 5304TIP3    H137403   3.023   4.226   5.109 -0.7631 -0.2554  0.2447
 5304TIP3    H237404   2.922   4.319   5.172  0.7121  1.9496 -0.5333
 5305TIP3   OH237405   4.856   1.372   4.613  0.2907  0.3488  0.2283
 5305TIP3    H137406   4.918   1.443   4.629  0.6548  0.2151 -0.5451
 5305TIP3    H237407   4.821   1.351   4.700  1.1790  0.5672  0.6493
 5306TIP3   OH237408   5.153   5.216  14.391 -0.3968 -0.1195  0.2699
 5306TIP3    H137409   5.096   5.288  14.418  0.7521  0.1901  2.0872
 5306TIP3    H237410   5.096   5.139  14.391 -1.6951  0.7425 -1.9271
 5307TIP3   OH237411   5.189   1.777   5.883 -0.3380 -0.3047 -0.1067
 5307TIP3    H137412   5.155   1.698   5.925 -1.1881 -0.1780 -0.5457
 5307TIP3    H237413   5.264   1.802   5.937 -1.7785  0.2280  1.7617
 5308TIP3   OH237414   0.605   4.867   6.089 -0.1072  0.8780  0.5454
 5308TIP3    H137415   0.570   4.949   6.052 -0.9883  0.8466  1.2663
 5308TIP3    H237416   0.692   4.891   6.121 -0.1331  1.3931  0.2528
 5309TIP3   OH237417   4.381   2.130   1.186  0.0772  0.6432 -0.5990
 5309TIP3    H137418   4.370   2.225   1.185 -0.6384  0.5742  0.0650
 5309TIP3    H237419   4.335   2.101   1.107  0.6048  0.8643 -1.0015
 5310TIP3   OH237420   3.286   0.055  14.507  0.1423 -0.1644  0.0163
 5310TIP3    H137421   3.267   0.073  14.599 -1.1550 -1.3780  0.0262
 5310TIP3    H237422   3.329  -0.031  14.508  0.5920  0.0531 -0.4682
 5311TIP3   OH237423   3.795   5.610   0.816 -0.4345  0.1839 -0.2802
 5311TIP3    H137424   3.754   5.676   0.873  0.4603 -0.1549  0.8005
 5311TIP3    H237425   3.864   5.573   0.870 -0.1350 -0.7875 -1.3115
 5312TIP3   OH237426   2.808   1.765   1.579  0.1234  0.5032 -0.2506
 5312TIP3    H137427   2.736   1.812   1.620 -0.4545 -1.4128  1.0864
 5312TIP3    H237428   2.781   1.753   1.488 -1.3273 -0.2389  0.2429
 5313TIP3   OH237429   2.446   1.997   1.292 -0.0899  0.6606  0.2905
 5313TIP3    H137430   2.413   2.065   1.234 -0.9398  0.2527  0.2814
 5313TIP3    H237431   2.520   2.038   1.337  1.0179  0.7852 -1.5424
 5314TIP3   OH237432   1.968   2.411  12.260  1.1736  0.3380  0.0737
 5314TIP3    H137433   2.037   2.473  12.283  1.5309 -0.3269  0.8482
 5314TIP3    H237434   1.888   2.463  12.263  1.5386  0.9213  0.0156
 5315TIP3   OH237435   6.391   3.803  16.611 -0.5668 -0.6225 -0.4638
 5315TIP3    H137436   6.333   3.738  16.571 -0.1789 -1.9006  0.9720
 5315TIP3    H237437   6.362   3.808  16.702  0.5431 -0.0814 -0.1261
 5316TIP3   OH237438   6.338   4.562  16.886 -0.5035 -0.8527  0.2240
 5316TIP3    H137439   6.363   4.586  16.797 -1.1577 -3.6864 -0.8272
 5316TIP3    H237440   6.421   4.538  16.929 -0.3679 -1.1437 -0.1951
 5317TIP3   OH237441   0.813   4.542   3.758 -0.9591 -0.7476 -0.9128
 5317TIP3    H137442   0.816   4.584   3.844  1.8620 -0.9119 -0.8171
 5317TIP3    H237443   0.742   4.586   3.712 -2.0101 -0.0858  1.2128
 5318TIP3   OH237444   0.355   2.963   1.206  0.1963  0.3602 -0.2981
 5318TIP3    H137445   0.323   2.947   1.294  1.4057 -1.3176 -0.1170
 5318TIP3    H237446   0.285   3.013   1.163 -1.8872 -1.6242  0.6003
 5319TIP3   OH237447   0.290   4.589  11.337 -0.0172  0.2446 -0.5430
 5319TIP3    H137448   0.364   4.532  11.316  0.4564  1.0786 -1.1813
 5319TIP3    H237449   0.214   4.544  11.301  0.3096 -0.1375 -0.7665
 5320TIP3   OH237450   2.388   0.392   2.117  0.4506 -0.2856  0.1107
 5320TIP3    H137451   2.316   0.446   2.085  0.5467  0.2803  0.8018
 5320TIP3    H237452   2.459   0.405   2.054  1.1503  1.9740  1.2367
 5321TIP3   OH237453   3.459   6.440  13.723 -0.5499 -0.0605 -0.2053
 5321TIP3    H137454   3.428   6.514  13.670 -0.9247  0.2106  0.3825
 5321TIP3    H237455   3.408   6.365  13.691  0.3601 -0.2322 -1.3137
 5322TIP3   OH237456   3.398   3.406   2.146  0.6074  0.4439 -0.0324
 5322TIP3    H137457   3.487   3.385   2.173  0.5698 -0.1545 -0.3646
 5322TIP3    H237458   3.348   3.407   2.228  0.5776 -0.9544 -0.0130
 5323TIP3   OH237459   5.570   5.984   4.264  0.0116  0.1285  0.1227
 5323TIP3    H137460   5.534   5.937   4.339 -2.5273  2.0462  0.2235
 5323TIP3    H237461   5.519   5.954   4.189  0.7372  0.1824 -0.4154
 5324TIP3   OH237462   1.571   0.385  17.081 -0.2508 -0.1337  0.1008
 5324TIP3    H137463   1.636   0.317  17.068 -1.3706 -1.8055  2.5815
 5324TIP3    H237464   1.503   0.344  17.134 -0.3101  3.2800  3.0129
 5325TIP3   OH237465   4.735   6.634   6.169 -0.4862 -0.1992 -0.0278
 5325TIP3    H137466   4.750   6.587   6.250  0.3864 -1.6515 -0.9860
 5325TIP3    H237467   4.683   6.710   6.194  1.5592  0.5490  2.1986
 5326TIP3   OH237468   0.475   2.049   3.557 -0.0921  0.4831  0.6270
 5326TIP3    H137469   0.473   2.001   3.474 -2.1940 -0.6473  1.2549
 5326TIP3    H237470   0.565   2.041   3.587  0.2852 -0.6405 -0.6797
 5327TIP3   OH237471   5.712   1.880   2.770 -0.3067 -0.4565  0.1685
 5327TIP3    H137472   5.659   1.850   2.697 -0.1935  1.6174 -0.8368
 5327TIP3    H237473   5.707   1.809   2.834 -1.5323 -1.7345 -1.2682
 5328TIP3   OH237474   1.084   4.108   2.390  0.2143  0.1869 -0.0950
 5328TIP3    H137475   1.005   4.100   2.336  0.2618 -0.8209 -0.0231
 5328TIP3    H237476   1.052   4.094   2.480  0.1135  1.9605  0.1921
 5329TIP3   OH237477   2.930   1.860   5.949  0.3976 -0.4098 -0.5519
 5329TIP3    H137478   2.839   1.843   5.973  0.4963 -1.9223 -1.1694
 5329TIP3    H237479   2.981   1.832   6.025  0.3509  0.8215 -0.0408
 5330TIP3   OH237480   2.072   6.510  16.122 -0.0035 -0.8973  0.1797
 5330TIP3    H137481   2.130   6.572  16.166 -0.9674 -0.1768  0.4757
 5330TIP3    H237482   2.122   6.428  16.117  1.2064 -0.1641 -0.0223
 5331TIP3   OH237483   6.781   5.551   1.188 -0.1612  0.3894 -0.3694
 5331TIP3    H137484   6.848   5.619   1.199 -1.8895  2.4605 -1.7550
 5331TIP3    H237485   6.787   5.525   1.096  1.2032 -2.2615  0.3781
 5332TIP3   OH237486   3.204   4.963  14.983  0.6710 -0.0482  0.3657
 5332TIP3    H137487   3.124   5.014  14.975  1.1614  0.5642 -0.9531
 5332TIP3    H237488   3.220   4.957  15.077 -0.3534  0.7194  0.5971
 5333TIP3   OH237489   3.790   5.586   1.203  0.2630  0.3001 -0.1351
 5333TIP3    H137490   3.762   5.649   1.137 -0.4487 -0.5583 -0.6824
 5333TIP3    H237491   3.721   5.520   1.204  1.6986 -1.2813 -0.7030
 5334TIP3   OH237492   1.109   3.206  11.865  0.1288 -0.3525 -0.0529
 5334TIP3    H137493   1.178   3.254  11.911  0.2814 -0.3618 -0.2703
 5334TIP3    H237494   1.032   3.262  11.871 -0.5576 -1.4155  2.3584
 5335TIP3   OH237495   3.186   4.894  15.274 -0.1929  0.3603  0.6678
 5335TIP3    H137496   3.093   4.914  15.286 -0.2029  0.1136  1.0350
 5335TIP3    H237497   3.229   4.942  15.344 -0.1531 -0.3564  1.1523
 5336TIP3   OH237498   1.171   0.867  15.423  0.2537  0.0271 -0.2128
 5336TIP3    H137499   1.250   0.922  15.422 -0.1416  0.6033 -1.2797
 5336TIP3    H237500   1.179   0.816  15.503  0.4825  1.8804  1.0014
 5337TIP3   OH237501   5.315   2.337   0.783 -0.4411 -0.5141  0.5878
 5337TIP3    H137502   5.386   2.348   0.846 -0.7179  1.2923  0.6171
 5337TIP3    H237503   5.322   2.245   0.756  0.1157 -1.1437  2.6997
 5338TIP3   OH237504   4.936   5.046  12.465 -0.2575  0.2899  0.1796
 5338TIP3    H137505   4.918   4.956  12.490 -0.4826  0.0425 -0.8100
 5338TIP3    H237506   5.012   5.040  12.406 -0.4142  0.7213 -0.0745
 5339TIP3   OH237507   5.026   4.483   2.079 -0.0711 -0.0582 -0.0386
 5339TIP3    H137508   4.931   4.476   2.065 -0.1667  0.4182  0.3416
 5339TIP3    H237509   5.037   4.565   2.128  0.6088  0.3024 -0.7595
 5340TIP3   OH237510   5.730   5.375  11.530 -0.2647  0.2886  0.4675
 5340TIP3    H137511   5.798   5.369  11.463 -1.7240 -1.6933 -0.9553
 5340TIP3    H237512   5.678   5.452  11.506 -1.8287 -1.3653 -1.8653
 5341TIP3   OH237513   3.854   2.042  11.122 -0.4975 -0.1788  0.1687
 5341TIP3    H137514   3.833   1.958  11.082 -0.7204 -1.1978  2.2788
 5341TIP3    H237515   3.912   2.020  11.194  1.5723  1.7935 -0.7863
 5342TIP3   OH237516   4.007   6.403   4.100 -0.0075 -0.3833  0.3596
 5342TIP3    H137517   3.956   6.390   4.019 -1.7097  0.1328  1.3076
 5342TIP3    H237518   4.063   6.478   4.081  0.9712 -1.3835 -0.9433
 5343TIP3   OH237519   5.764   3.952   4.153 -0.0862  0.3613  0.4018
 5343TIP3    H137520   5.853   3.960   4.189 -0.3647 -0.1006  1.2221
 5343TIP3    H237521   5.718   3.897   4.216 -0.8524  0.2822 -0.2171
 5344TIP3   OH237522   4.579   3.344  13.388 -0.1053  0.5920 -0.0040
 5344TIP3    H137523   4.624   3.276  13.437  1.5286  1.2052 -0.5798
 5344TIP3    H237524   4.522   3.296  13.327 -0.1372 -0.2042  0.6326
 5345TIP3   OH237525   1.793   1.455  10.392 -0.4732 -0.2782 -0.2431
 5345TIP3    H137526   1.767   1.542  10.422  1.4758  0.9069 -1.7121
 5345TIP3    H237527   1.722   1.425  10.336 -1.0862  0.4460  0.1456
 5346TIP3   OH237528   4.839   3.971   1.961 -0.0499  0.2419 -0.1722
 5346TIP3    H137529   4.872   4.037   2.022  1.3703 -0.4485 -0.1438
 5346TIP3    H237530   4.918   3.934   1.921 -0.9044 -0.0995 -1.6117
 5347TIP3   OH237531   1.248   1.236   2.898  0.0883  0.2466 -0.2584
 5347TIP3    H137532   1.186   1.291   2.852  0.9354  1.0257 -0.5001
 5347TIP3    H237533   1.320   1.295   2.921  0.3030 -0.4173  0.8668
 5348TIP3   OH237534   5.041   5.463   2.735  0.3172  0.0751  0.4073
 5348TIP3    H137535   5.089   5.393   2.780  2.3461  0.3625 -1.1627
 5348TIP3    H237536   4.968   5.418   2.692 -1.4642 -0.2561  3.4796
 5349TIP3   OH237537   0.075   1.837   1.782  0.0716  0.9245 -0.0664
 5349TIP3    H137538   0.161   1.839   1.742  0.2189 -1.7848 -0.0546
 5349TIP3    H237539   0.086   1.784   1.860 -1.6070  0.4816 -0.0954
 5350TIP3   OH237540   5.795   3.456  15.257  0.5193  0.1953 -0.2612
 5350TIP3    H137541   5.835   3.464  15.170  1.5002 -0.4282  0.1066
 5350TIP3    H237542   5.771   3.363  15.264 -0.0611  0.3572 -0.0809
 5351TIP3   OH237543   1.186   2.856  13.562 -0.1519 -0.3462 -0.0249
 5351TIP3    H137544   1.157   2.931  13.614 -0.8540  0.0701 -0.9884
 5351TIP3    H237545   1.268   2.830  13.602 -0.0661  0.7294  0.5439
 5352TIP3   OH237546   1.446   1.794  16.018  0.0867 -0.0461  0.6490
 5352TIP3    H137547   1.375   1.855  16.002 -0.4961 -0.7551  0.4846
 5352TIP3    H237548   1.472   1.764  15.931  1.2761  0.9592  0.6314
 5353TIP3   OH237549   2.555   6.392   0.271  0.5097 -0.8613  0.8552
 5353TIP3    H137550   2.499   6.441   0.211 -0.4668 -0.5213  2.0050
 5353TIP3    H237551   2.644   6.418   0.246  0.1774 -1.2110 -0.8239
 5354TIP3   OH237552   1.376   0.317  12.647 -0.6457 -0.6995  0.2488
 5354TIP3    H137553   1.324   0.252  12.600 -1.3185  0.3263 -0.4718
 5354TIP3    H237554   1.424   0.364  12.579 -0.1602 -0.4464  0.7575
 5355TIP3   OH237555   2.437   6.774   1.083 -0.0158 -0.6250  0.0840
 5355TIP3    H137556   2.501   6.703   1.085 -0.1041 -0.7394 -0.9479
 5355TIP3    H237557   2.412   6.782   0.991  0.8993  1.5656 -0.0352
 5356TIP3   OH237558   1.016   1.620  14.387 -0.2119 -0.1962 -0.0986
 5356TIP3    H137559   1.103   1.587  14.412 -0.7759 -0.4119  1.6634
 5356TIP3    H237560   1.020   1.625  14.291  1.8620  0.1372 -0.0448
 5357TIP3   OH237561   4.879   1.721   5.933  0.3441  0.8605 -0.1335
 5357TIP3    H137562   4.818   1.718   6.006 -0.2977  0.6278 -0.6624
 5357TIP3    H237563   4.954   1.668   5.961 -1.0808 -1.6091 -0.6631
 5358TIP3   OH237564   3.060   2.868   0.995 -0.0646 -0.0298  0.0975
 5358TIP3    H137565   3.144   2.821   0.992  0.7244  1.3636 -0.6782
 5358TIP3    H237566   3.061   2.914   1.079 -0.1576 -0.1937  0.1888
 5359TIP3   OH237567   5.125   5.895  14.887 -0.7320  0.3684  0.5852
 5359TIP3    H137568   5.189   5.913  14.956  0.3340  1.6350 -0.6747
 5359TIP3    H237569   5.128   5.800  14.876  2.0308  0.4734 -0.3686
 5360TIP3   OH237570   3.649   0.756  10.439  0.2749  0.3251 -0.0520
 5360TIP3    H137571   3.738   0.752  10.473 -0.0819 -0.4258  0.8579
 5360TIP3    H237572   3.642   0.679  10.382 -0.2662 -0.5361  1.1420
 5361TIP3   OH237573   3.023   6.311   0.500  0.1263  0.0815  0.1981
 5361TIP3    H137574   2.933   6.297   0.528 -0.5036  2.1826 -0.5773
 5361TIP3    H237575   3.070   6.330   0.582 -0.2378 -0.5027  0.5490
 5362TIP3   OH237576   0.869   0.959  10.234 -0.0203  0.2461 -0.6165
 5362TIP3    H137577   0.919   0.919  10.163  1.5592 -0.0851  0.6224
 5362TIP3    H237578   0.824   0.886  10.277  0.8459  0.1100  0.0920
 5363TIP3   OH237579   2.638   2.087   4.971  0.6639 -0.4952  0.2434
 5363TIP3    H137580   2.560   2.040   5.000  0.8688 -2.0802 -1.5531
 5363TIP3    H237581   2.709   2.053   5.025  0.5772 -1.3205 -0.1383
 5364TIP3   OH237582   1.182   1.911   3.242 -0.7992 -0.4167 -0.6685
 5364TIP3    H137583   1.191   1.987   3.185 -2.2089  0.7525  0.5654
 5364TIP3    H237584   1.108   1.863   3.206 -1.5041  0.1692 -0.0656
 5365TIP3   OH237585   0.882   1.039   2.889 -0.2049 -0.2309  0.2838
 5365TIP3    H137586   0.914   1.022   2.801 -0.1376  0.2482  0.2138
 5365TIP3    H237587   0.948   1.000   2.946 -0.3081 -0.6453  0.1264
 5366TIP3   OH237588   4.822   6.643   4.220  0.2299 -0.3142 -0.4434
 5366TIP3    H137589   4.742   6.676   4.180 -0.9426 -0.8285  1.3239
 5366TIP3    H237590   4.832   6.555   4.183 -2.7031 -2.1589  2.5264
 5367TIP3   OH237591   4.900   1.136  11.001  0.2304 -0.0348  0.0111
 5367TIP3    H137592   4.882   1.104  11.089 -0.1060 -0.8943 -0.3516
 5367TIP3    H237593   4.861   1.070  10.943  1.7559 -0.3037 -0.7875
 5368TIP3   OH237594   5.689   4.889  12.734 -0.0869 -0.0987  0.0522
 5368TIP3    H137595   5.749   4.850  12.797  0.4051 -1.1104 -1.0103
 5368TIP3    H237596   5.719   4.979  12.723  0.8116 -0.3924  0.0611
 5369TIP3   OH237597   5.283   2.754  12.798  0.3622  0.1602 -0.7211
 5369TIP3    H137598   5.223   2.829  12.800  1.6645  1.2352 -0.7457
 5369TIP3    H237599   5.367   2.792  12.774  1.3112 -1.1315  0.4570
 5370TIP3   OH237600   1.510   1.639  16.476 -0.0940  0.3136 -0.2852
 5370TIP3    H137601   1.474   1.601  16.556  1.3098  0.9757  0.7046
 5370TIP3    H237602   1.535   1.564  16.422  0.6531 -0.1814  0.7150
 5371TIP3   OH237603   0.087   3.698   2.657  0.6979 -0.5202 -0.2405
 5371TIP3    H137604   0.182   3.699   2.668  0.8185  2.0106 -0.7981
 5371TIP3    H237605   0.070   3.625   2.598  2.1610 -1.6519  0.6875
 5372TIP3   OH237606   2.137   0.698  15.777 -0.2820  0.2081 -0.0351
 5372TIP3    H137607   2.055   0.740  15.803  0.1539  0.1538  1.5049
 5372TIP3    H237608   2.140   0.617  15.828  0.5866  0.0580 -0.3014
 5373TIP3   OH237609   3.724   1.292   5.991 -0.2878  0.0547 -0.4485
 5373TIP3    H137610   3.789   1.235   5.950 -0.2133  0.7782 -1.3932
 5373TIP3    H237611   3.725   1.267   6.083  0.6578 -0.5906 -0.6111
 5374TIP3   OH237612   4.839   1.559  12.551 -0.6750 -0.0478  0.2397
 5374TIP3    H137613   4.845   1.587  12.460 -0.2242  1.2818  0.6530
 5374TIP3    H237614   4.883   1.629  12.601  0.8747 -1.6820  1.3063
 5375TIP3   OH237615   6.390   2.930  15.252  0.3709 -0.1735 -0.3896
 5375TIP3    H137616   6.335   3.005  15.274 -0.4405 -1.3744  2.1305
 5375TIP3    H237617   6.332   2.871  15.204  0.5802  0.1743 -1.0750
 5376TIP3   OH237618   3.577   2.897   1.895  0.0062 -0.4972  0.3848
 5376TIP3    H137619   3.641   2.962   1.865 -0.1437 -0.4200  0.2356
 5376TIP3    H237620   3.630   2.820   1.916  0.6911  0.7255  3.8505
 5377TIP3   OH237621   5.129   4.164   3.310  0.1348  0.6419  0.3754
 5377TIP3    H137622   5.221   4.154   3.287 -0.1036 -0.5074 -0.1600
 5377TIP3    H237623   5.128   4.236   3.373  1.0138  2.8664 -1.9644
 5378TIP3   OH237624   0.825   6.204  14.487  0.0991  0.9147 -0.3153
 5378TIP3    H137625   0.758   6.181  14.422  1.5971 -0.1868 -1.5567
 5378TIP3    H237626   0.853   6.292  14.462 -0.9381  1.4370  0.2907
 5379TIP3   OH237627   4.484   6.019   5.471 -0.1922  0.0342  0.3268
 5379TIP3    H137628   4.497   5.925   5.487  1.4845  0.4515  1.7192
 5379TIP3    H237629   4.531   6.062   5.542 -1.0024  1.9546 -0.2394
 5380TIP3   OH237630   1.496   4.793   5.341  0.2889  0.2911  0.2796
 5380TIP3    H137631   1.494   4.705   5.304  1.7521  0.3951 -0.1100
 5380TIP3    H237632   1.529   4.780   5.431 -1.3368  0.2559  0.9023
 5381TIP3   OH237633   5.193   4.399  15.302  0.1006 -0.2772 -0.3443
 5381TIP3    H137634   5.191   4.358  15.389 -0.9029 -1.2956 -0.8224
 5381TIP3    H237635   5.116   4.456  15.301 -0.5321 -1.0979 -0.9168
 5382TIP3   OH237636   4.647   2.076  12.397  0.3768 -0.0849 -0.0044
 5382TIP3    H137637   4.688   2.059  12.481 -2.0464  0.1610  1.3238
 5382TIP3    H237638   4.636   2.171  12.394 -0.4062 -0.1693 -0.1308
 5383TIP3   OH237639   6.697   2.845  13.383 -0.1435 -0.5007 -0.4108
 5383TIP3    H137640   6.665   2.906  13.449 -1.4884 -0.4786 -1.0560
 5383TIP3    H237641   6.618   2.809  13.343  0.6388 -0.8403 -1.7141
 5384TIP3   OH237642   4.094   3.227  14.254 -0.6815 -0.7018  0.0612
 5384TIP3    H137643   4.175   3.213  14.304 -0.4535  0.2272 -0.0325
 5384TIP3    H237644   4.027   3.239  14.321 -0.0011  2.8715  0.3006
 5385TIP3   OH237645   0.622   6.855   2.988 -0.4328 -0.3691 -0.0432
 5385TIP3    H137646   0.555   6.907   2.942 -0.3803  1.5122  1.8367
 5385TIP3    H237647   0.659   6.799   2.920 -2.8880 -0.4246 -1.4676
 5386TIP3   OH237648   0.872   4.550  16.523 -0.1876  0.2799 -0.3410
 5386TIP3    H137649   0.796   4.586  16.478 -0.6156  0.4865  0.5429
 5386TIP3    H237650   0.839   4.519  16.607  0.8155  1.0430  0.3679
 5387TIP3   OH237651   2.552   0.693  16.955  0.0751 -0.7748 -0.5208
 5387TIP3    H137652   2.608   0.684  16.878  1.8156  0.0050  0.5735
 5387TIP3    H237653   2.600   0.646  17.024 -0.4396  0.2181  0.5435
 5388TIP3   OH237654   0.947   1.503  16.955  0.0980 -0.0513 -0.4413
 5388TIP3    H137655   0.892   1.553  17.015  1.0493 -1.9980  2.2180
 5388TIP3    H237656   0.888   1.438  16.918  0.0074 -0.4078  0.3106
 5389TIP3   OH237657   4.087   3.032   5.725  0.7155 -0.4951 -0.0947
 5389TIP3    H137658   4.168   3.031   5.673  2.4546  0.0823  2.4135
 5389TIP3    H237659   4.068   2.940   5.742  2.2663 -0.6326  1.2131
 5390TIP3   OH237660   2.961   4.394  16.679  0.1706 -0.0684 -0.6809
 5390TIP3    H137661   2.990   4.304  16.668 -1.4943 -0.8131  0.5199
 5390TIP3    H237662   2.963   4.407  16.774 -0.4418  0.8732 -0.7918
 5391TIP3   OH237663   5.445   3.796   1.747 -0.2677  0.7723  0.0077
 5391TIP3    H137664   5.393   3.723   1.782 -1.6127 -0.2548 -3.6386
 5391TIP3    H237665   5.521   3.753   1.705 -1.0580  1.3269 -2.1525
 5392TIP3   OH237666   6.488   0.256   5.642  0.3213 -0.1552 -0.6689
 5392TIP3    H137667   6.542   0.239   5.719 -0.7247 -4.5019 -0.6337
 5392TIP3    H237668   6.401   0.274   5.677  0.5133  1.3972 -0.8784
 5393TIP3   OH237669   5.264   1.050  14.673 -0.9049  0.3322  0.3276
 5393TIP3    H137670   5.189   1.109  14.688 -0.0765  1.3398  0.5967
 5393TIP3    H237671   5.328   1.103  14.627  0.4969  0.1439  1.9490
 5394TIP3   OH237672   4.715   3.151   0.110 -0.4537 -0.0568 -0.2424
 5394TIP3    H137673   4.658   3.157   0.187  1.2797 -3.1056  1.4780
 5394TIP3    H237674   4.773   3.227   0.116 -0.7618  0.0911  1.1378
 5395TIP3   OH237675   4.942   2.844   3.034  0.2269 -0.7738 -0.2835
 5395TIP3    H137676   4.975   2.825   3.122  1.8585  0.2749 -0.6396
 5395TIP3    H237677   4.871   2.781   3.022 -0.5175 -0.4977  2.0513
 5396TIP3   OH237678   0.114   1.905  14.340  0.1090  0.0910  0.3548
 5396TIP3    H137679   0.104   1.960  14.418  0.1406  0.5655  0.0303
 5396TIP3    H237680   0.079   1.958  14.268  2.1488  0.6146 -0.3384
 5397TIP3   OH237681   1.577   4.751   5.598  0.0592 -0.2889 -0.0087
 5397TIP3    H137682   1.598   4.670   5.551  2.7793  0.0181  0.5073
 5397TIP3    H237683   1.560   4.724   5.688  2.5670 -0.2658  0.5601
 5398TIP3   OH237684   1.160   5.468  11.202  0.1409 -0.5698 -0.3571
 5398TIP3    H137685   1.182   5.472  11.109  0.4167 -0.4119 -0.2892
 5398TIP3    H237686   1.143   5.560  11.226 -0.2955 -0.6543 -0.3349
 5399TIP3   OH237687   5.427   6.456  15.228 -0.6503  0.3860 -0.4008
 5399TIP3    H137688   5.393   6.546  15.232  1.0177  1.0117  0.9657
 5399TIP3    H237689   5.398   6.416  15.309  0.9067  0.5987  0.2897
 5400TIP3   OH237690   3.376   3.155   4.204 -0.6239  0.3374  0.1104
 5400TIP3    H137691   3.294   3.204   4.195  0.3478  1.7014 -2.1718
 5400TIP3    H237692   3.441   3.208   4.158  1.2845 -1.3572  0.6947
 5401TIP3   OH237693   4.067   6.170   2.032  0.6014  0.2728  0.0152
 5401TIP3    H137694   3.988   6.116   2.040  0.9798 -0.2779  0.0737
 5401TIP3    H237695   4.139   6.109   2.040  1.0439  0.7986  0.1274
 5402TIP3   OH237696   4.884   4.140   1.038 -0.1679  0.1533 -0.1655
 5402TIP3    H137697   4.802   4.161   1.082 -0.6341 -2.1384  0.1831
 5402TIP3    H237698   4.952   4.160   1.103 -0.6140 -0.0873  0.3832
 5403TIP3   OH237699   6.222   1.721   2.487  0.2968 -0.7026 -0.0161
 5403TIP3    H137700   6.138   1.725   2.532 -1.1069 -3.4260 -2.0990
 5403TIP3    H237701   6.287   1.722   2.557 -1.5806 -1.1051  1.8416
 5404TIP3   OH237702   2.654   4.364  15.699  0.1657 -0.4649  0.4111
 5404TIP3    H137703   2.749   4.357  15.691  0.5091  1.2439  2.3858
 5404TIP3    H237704   2.621   4.280  15.666  2.1472 -0.1597 -2.7453
 5405TIP3   OH237705   2.412   5.352  15.048 -0.2434  0.1635  0.3566
 5405TIP3    H137706   2.499   5.315  15.038 -0.5124 -0.2707 -0.3826
 5405TIP3    H237707   2.387   5.382  14.961 -1.5932 -1.4101  0.1517
 5406TIP3   OH237708   3.067   6.788  16.530 -0.9660  0.3737 -0.6658
 5406TIP3    H137709   2.977   6.817  16.512 -0.5696  3.4283  1.4614
 5406TIP3    H237710   3.122   6.860  16.499  0.5508 -0.2503  0.4491
 5407TIP3   OH237711   0.318   4.087   4.169 -0.3157 -0.5483 -0.4964
 5407TIP3    H137712   0.296   3.994   4.164 -0.3507 -0.5127 -1.0629
 5407TIP3    H237713   0.354   4.108   4.083  0.2914 -0.1877 -0.1599
 5408TIP3   OH237714   4.788   5.637   0.561  0.4929 -0.0523 -0.1768
 5408TIP3    H137715   4.823   5.553   0.529 -0.8544 -0.8552  0.3892
 5408TIP3    H237716   4.856   5.701   0.538  1.1569 -1.1469 -1.4162
 5409TIP3   OH237717   0.401   3.036  16.896  0.3881 -0.4682  0.0471
 5409TIP3    H137718   0.381   2.943  16.884 -0.0349 -0.5408  1.1861
 5409TIP3    H237719   0.315   3.079  16.894  0.6070 -0.0589 -0.7857
 5410TIP3   OH237720   0.429   2.152   1.932  0.4221 -0.4327  0.5093
 5410TIP3    H137721   0.349   2.131   1.884  0.7511 -3.6787  1.1966
 5410TIP3    H237722   0.495   2.167   1.865 -0.3068  0.5262 -0.0270
 5411TIP3   OH237723   5.612   5.419  13.815 -0.1387 -0.4883  0.1169
 5411TIP3    H137724   5.697   5.379  13.835 -0.4535 -1.5210 -0.5235
 5411TIP3    H237725   5.577   5.446  13.900  0.4675 -0.7936  0.4698
 5412TIP3   OH237726   4.510   2.308  13.920  0.0270  0.1055  0.1496
 5412TIP3    H137727   4.447   2.237  13.904  1.3894 -0.8955 -1.0654
 5412TIP3    H237728   4.554   2.319  13.836  2.4125 -0.1768  1.2951
 5413TIP3   OH237729   1.919   4.945   4.121 -0.5371  0.0355 -0.1057
 5413TIP3    H137730   1.923   4.921   4.213 -1.1270 -0.1567 -0.1245
 5413TIP3    H237731   1.831   4.982   4.109 -1.0506 -1.3448 -0.9053
 5414TIP3   OH237732   4.300   6.084  15.588  0.1382 -0.4655  0.2066
 5414TIP3    H137733   4.236   6.068  15.518  0.1175  0.2274  0.0558
 5414TIP3    H237734   4.269   6.165  15.629 -1.5270 -2.3124  2.9159
 5415TIP3   OH237735   4.661   4.487  13.838 -0.4387 -0.5594 -0.2840
 5415TIP3    H137736   4.695   4.538  13.912  0.5922 -1.5247 -0.0734
 5415TIP3    H237737   4.605   4.421  13.878  0.1864 -1.1355 -0.3511
 5416TIP3   OH237738   1.810   2.935   4.275  0.4561  0.4384 -0.0567
 5416TIP3    H137739   1.819   2.954   4.182 -0.4486 -1.3635 -0.5611
 5416TIP3    H237740   1.730   2.980   4.302  1.0012  1.3945 -0.0045
 5417TIP3   OH237741   5.412   4.056  13.085 -0.1085  0.0215 -0.6720
 5417TIP3    H137742   5.466   4.102  13.021  1.0691  0.2157  0.4289
 5417TIP3    H237743   5.441   3.965  13.080  0.7995  0.2292  0.3451
 5418TIP3   OH237744   1.651   3.881   0.822 -0.3195 -0.1721 -0.0367
 5418TIP3    H137745   1.645   3.873   0.917  0.3366 -0.3919 -0.0124
 5418TIP3    H237746   1.744   3.878   0.803 -0.4601 -0.3878 -0.7139
 5419TIP3   OH237747   6.011   2.838  16.957 -0.2386  0.4229  1.0017
 5419TIP3    H137748   5.950   2.802  17.021  0.9625 -0.5945  1.6095
 5419TIP3    H237749   6.045   2.918  16.997  0.1212  0.0657  1.4064
 5420TIP3   OH237750   5.642   4.994   2.747  0.0830  0.0245 -0.1586
 5420TIP3    H137751   5.606   5.072   2.789  0.4409 -0.1070  0.4135
 5420TIP3    H237752   5.592   4.985   2.666 -1.1875 -0.1681  0.6204
 5421TIP3   OH237753   2.704   0.131   2.478  0.0293  0.7334  0.1218
 5421TIP3    H137754   2.687   0.107   2.569 -0.0467 -0.0831 -0.1029
 5421TIP3    H237755   2.736   0.051   2.437  2.9153  1.7574  0.1226
 5422TIP3   OH237756   6.646   5.924  11.314 -0.2682  0.3311 -0.2990
 5422TIP3    H137757   6.673   5.983  11.384  3.1852  1.6741 -2.4677
 5422TIP3    H237758   6.660   5.836  11.350 -3.1238  0.7421  2.1396
 5423TIP3   OH237759   2.107   2.679   6.540 -0.1764  0.1464 -0.4654
 5423TIP3    H137760   2.137   2.718   6.458  0.6194 -2.3748 -1.4431
 5423TIP3    H237761   2.025   2.636   6.518 -1.2350  1.4484  0.6909
 5424TIP3   OH237762   5.311   2.947   5.559 -0.3725 -0.4135  0.0308
 5424TIP3    H137763   5.362   2.867   5.571 -0.7149 -0.4999  1.0649
 5424TIP3    H237764   5.298   2.954   5.465 -0.9415 -1.9596 -0.0347
 5425TIP3   OH237765   5.803   2.523   4.913  0.6841  0.5496 -0.0630
 5425TIP3    H137766   5.846   2.608   4.923  1.4468  0.1203  0.4065
 5425TIP3    H237767   5.777   2.519   4.821  1.5456  0.8725 -0.3267
 5426TIP3   OH237768   5.205   4.813   1.391  0.0695  0.4603  0.3694
 5426TIP3    H137769   5.137   4.814   1.324 -0.2575  0.0426  0.6859
 5426TIP3    H237770   5.257   4.891   1.374  0.0642  0.2983 -0.4425
 5427TIP3   OH237771   3.281   2.212   0.763  0.0982 -0.2414 -0.2237
 5427TIP3    H137772   3.222   2.196   0.837 -1.2898  2.4935 -0.6223
 5427TIP3    H237773   3.223   2.223   0.688  1.4202 -1.5857 -1.5208
 5428TIP3   OH237774   1.861   4.871   2.210 -0.0013  0.2167 -0.5759
 5428TIP3    H137775   1.800   4.943   2.194 -0.6041 -0.4769 -1.4756
 5428TIP3    H237776   1.823   4.823   2.284 -0.1496  0.2120 -0.6562
 5429TIP3   OH237777   0.152   3.197  11.921 -0.1418  0.1741  0.2039
 5429TIP3    H137778   0.174   3.124  11.863 -0.1859  1.9976 -2.2737
 5429TIP3    H237779   0.222   3.261  11.905 -1.0396  1.3767  0.9610
 5430TIP3   OH237780   3.875   1.361  13.832  0.2809  0.0640  0.4665
 5430TIP3    H137781   3.799   1.348  13.889 -0.2713  0.0166 -0.2630
 5430TIP3    H237782   3.946   1.316  13.877 -0.0987  0.1809  1.2066
 5431TIP3   OH237783   3.610   5.241  15.591 -0.1484 -0.3044  0.7382
 5431TIP3    H137784   3.563   5.180  15.648 -0.1261  1.3759  2.6776
 5431TIP3    H237785   3.626   5.318  15.646  2.2852  0.3695 -0.7311
 5432TIP3   OH237786   6.209   2.851   1.183 -0.0069  0.4160  0.5102
 5432TIP3    H137787   6.236   2.759   1.181 -1.2258  0.0063  1.5681
 5432TIP3    H237788   6.166   2.864   1.099  1.9604  0.6356 -0.5232
 5433TIP3   OH237789   1.066   3.256  13.502  0.3569 -0.6922  0.5775
 5433TIP3    H137790   1.106   3.204  13.431  1.3483  1.6214 -0.6891
 5433TIP3    H237791   1.129   3.326  13.517 -2.6658  2.6314 -0.8143
 5434TIP3   OH237792   2.253   2.815   5.054  0.3696 -0.1461 -0.0254
 5434TIP3    H137793   2.193   2.868   5.107 -1.0947 -0.7309 -1.0252
 5434TIP3    H237794   2.308   2.879   5.010 -1.3614  0.6172 -1.2069
 5435TIP3   OH237795   2.486   2.403   1.723  0.7013  0.2383 -0.2412
 5435TIP3    H137796   2.413   2.380   1.665  0.7718 -0.3117 -0.1201
 5435TIP3    H237797   2.477   2.344   1.798  0.3505  1.2519  0.5374
 5436TIP3   OH237798   6.314   3.099   1.201  0.1717  0.1019  0.3629
 5436TIP3    H137799   6.391   3.092   1.256 -0.8232 -0.5190  1.7296
 5436TIP3    H237800   6.280   3.010   1.194 -2.7878  0.7914  3.3876
 5437TIP3   OH237801   3.675   0.501  10.402  0.2777 -0.1966 -0.3842
 5437TIP3    H137802   3.620   0.457  10.337 -0.5916  1.9272 -1.1597
 5437TIP3    H237803   3.764   0.472  10.380 -0.1535 -0.7765 -1.4846
 5438TIP3   OH237804   0.152   2.720   2.157 -0.2156 -0.2125  0.2113
 5438TIP3    H137805   0.089   2.772   2.108  0.1494  0.3784  0.3476
 5438TIP3    H237806   0.115   2.713   2.245 -0.1438  0.0616  0.2674
 5439TIP3   OH237807   1.962   1.374  14.736  0.1418 -0.4906 -0.9076
 5439TIP3    H137808   1.884   1.327  14.763 -0.1503  0.6105  0.2412
 5439TIP3    H237809   2.033   1.335  14.787  0.5093 -1.9277 -2.4117
 5440TIP3   OH237810   4.985   6.720   2.208 -0.0095  0.3246 -0.0467
 5440TIP3    H137811   5.060   6.743   2.263 -0.3123  0.1963  0.4302
 5440TIP3    H237812   4.971   6.797   2.153 -0.1678  0.7581  0.5844
 5441TIP3   OH237813   6.547   5.554  11.850 -0.6764  0.4511  0.4301
 5441TIP3    H137814   6.536   5.638  11.896 -0.5838  1.9791 -2.1194
 5441TIP3    H237815   6.458   5.526  11.830 -0.6802  0.6876  0.0954
 5442TIP3   OH237816   0.668   5.102   0.369 -0.6657  0.2760 -0.2183
 5442TIP3    H137817   0.681   5.138   0.457 -0.7205 -1.1958  0.4163
 5442TIP3    H237818   0.645   5.010   0.384 -1.1362  0.1208 -1.7601
 5443TIP3   OH237819   3.371   6.618   1.609  0.4012 -0.1018 -0.5061
 5443TIP3    H137820   3.329   6.624   1.523  1.1657 -0.4721 -0.9221
 5443TIP3    H237821   3.438   6.686   1.608  1.6096 -1.2482 -0.9203
 5444TIP3   OH237822   6.532   0.204  11.191  0.2176 -0.0189 -0.1548
 5444TIP3    H137823   6.580   0.124  11.169  0.8983 -0.2387  1.9142
 5444TIP3    H237824   6.542   0.260  11.114 -0.5764 -2.0047 -1.8170
 5445TIP3   OH237825   4.498   2.851  16.699 -0.6901  0.7813 -0.1375
 5445TIP3    H137826   4.448   2.801  16.634 -0.4180  0.9782 -0.5009
 5445TIP3    H237827   4.586   2.857  16.662 -0.3205  0.2095  0.6155
 5446TIP3   OH237828   1.778   4.345  10.954 -0.3230 -0.3233 -0.0930
 5446TIP3    H137829   1.727   4.341  11.034  0.9353 -2.4799  0.6651
 5446TIP3    H237830   1.753   4.267  10.905  0.1925  0.0704 -1.0108
 5447TIP3   OH237831   5.180   6.510  15.017 -0.0968 -0.0185  0.1125
 5447TIP3    H137832   5.166   6.586  15.073  0.2678  0.9460 -1.0824
 5447TIP3    H237833   5.128   6.441  15.059 -0.7423  0.9666  1.0086
 5448TIP3   OH237834   6.150   2.872   0.929 -0.0541  0.4963 -0.8277
 5448TIP3    H137835   6.200   2.805   0.882  0.7291 -0.4648  1.2001
 5448TIP3    H237836   6.059   2.841   0.926  0.1074  0.0346 -1.0526
 5449TIP3   OH237837   4.583   3.027   5.065  0.4177  0.8902 -0.2042
 5449TIP3    H137838   4.639   3.092   5.106  0.6141  0.5160  0.1178
 5449TIP3    H237839   4.561   2.966   5.135  1.3419 -0.1582 -0.8000
 5450TIP3   OH237840   5.692   3.678   1.676  0.1954 -0.6407  0.2866
 5450TIP3    H137841   5.713   3.602   1.621 -1.1240  0.2136 -1.5377
 5450TIP3    H237842   5.771   3.732   1.674  0.5039 -1.0937  0.0264
 5451TIP3   OH237843   2.685   3.255  14.414 -0.1303 -0.2978 -0.1136
 5451TIP3    H137844   2.643   3.171  14.396 -1.6357  0.0576  1.4623
 5451TIP3    H237845   2.628   3.320  14.373 -0.3026  0.1017  0.7479
 5452TIP3   OH237846   6.814   2.854  11.676 -0.1496  0.4195  1.0832
 5452TIP3    H137847   6.854   2.857  11.589 -0.2945 -0.1366  0.9935
 5452TIP3    H237848   6.733   2.805  11.663  1.3482 -2.6218  2.0937
 5453TIP3   OH237849   4.564   0.559   3.324 -0.6417 -0.2175  0.3120
 5453TIP3    H137850   4.590   0.622   3.391 -0.2089  1.9420 -1.7328
 5453TIP3    H237851   4.637   0.497   3.319 -1.0657 -0.9400  2.3643
 5454TIP3   OH237852   0.145   0.935  16.860 -0.0811 -0.0934  0.3565
 5454TIP3    H137853   0.104   0.867  16.914 -0.1308 -1.1278 -0.9406
 5454TIP3    H237854   0.100   1.015  16.884 -2.2508 -1.0248 -0.3281
 5455TIP3   OH237855   2.600   2.897  16.409 -0.3455  0.1801 -0.1422
 5455TIP3    H137856   2.618   2.961  16.340 -0.3689  0.5496  0.1855
 5455TIP3    H237857   2.649   2.819  16.384 -0.7864  0.1213 -0.8553
 5456TIP3   OH237858   0.505   3.497   3.042 -0.3723  0.2060 -0.1677
 5456TIP3    H137859   0.507   3.518   3.136 -1.1353 -1.3977  0.2520
 5456TIP3    H237860   0.596   3.508   3.013 -0.2253  1.2131  0.6407
 5457TIP3   OH237861   3.167   1.331  12.552  0.0656 -0.2156  0.0517
 5457TIP3    H137862   3.093   1.356  12.608 -0.3422 -2.0233  0.3818
 5457TIP3    H237863   3.244   1.368  12.595 -0.4146 -0.2041  0.9153
 5458TIP3   OH237864   3.339   0.792  14.496  0.4579 -0.5301  0.3000
 5458TIP3    H137865   3.345   0.740  14.416 -0.0057 -0.6544  0.3436
 5458TIP3    H237866   3.247   0.788  14.521  0.3581  0.5773  0.1364
 5459TIP3   OH237867   5.679   3.113  13.759 -0.4932  0.1060 -0.1102
 5459TIP3    H137868   5.755   3.171  13.760 -0.9468  0.7444  1.7179
 5459TIP3    H237869   5.655   3.105  13.666  1.0005  0.9301 -0.5917
 5460TIP3   OH237870   0.656   0.681  12.019 -0.3162  0.3081 -0.5190
 5460TIP3    H137871   0.745   0.655  12.044 -1.4692 -3.2795  0.3708
 5460TIP3    H237872   0.640   0.635  11.936 -1.5868  0.2788 -0.2796
 5461TIP3   OH237873   3.537   1.063   0.254  1.0610 -0.5072 -0.2952
 5461TIP3    H137874   3.554   1.079   0.161  0.0411 -4.3306 -1.3376
 5461TIP3    H237875   3.442   1.075   0.263  1.2143  0.2726  0.3950
 5462TIP3   OH237876   3.870   3.320   0.110  0.3963  0.2545  0.5039
 5462TIP3    H137877   3.932   3.267   0.060  0.8244  0.9243  0.2978
 5462TIP3    H237878   3.900   3.410   0.096 -0.2955  0.5461  0.8632
 5463TIP3   OH237879   4.357   0.248   1.721 -0.2134 -0.6209  0.1728
 5463TIP3    H137880   4.268   0.240   1.685 -0.3679  0.0159  0.3898
 5463TIP3    H237881   4.355   0.330   1.770 -0.1831 -1.7216  2.1338
 5464TIP3   OH237882   4.009   5.082  15.586  0.9804  0.1428  0.2478
 5464TIP3    H137883   4.003   5.104  15.679  0.1560  1.2404 -0.0426
 5464TIP3    H237884   4.010   5.166  15.541  1.6620 -0.3655 -0.7368
 5465TIP3   OH237885   0.848   4.416   6.540 -0.2380  0.0833  0.8680
 5465TIP3    H137886   0.849   4.510   6.554  1.2160  0.1300  0.6172
 5465TIP3    H237887   0.757   4.395   6.518 -0.3384  1.6009 -0.2689
 5466TIP3   OH237888   2.946   5.920  11.626 -0.5575  0.2880  0.7072
 5466TIP3    H137889   3.004   5.863  11.676  0.1253 -0.1262 -0.5035
 5466TIP3    H237890   2.919   5.988  11.688  0.5993  0.0426  1.5167
 5467TIP3   OH237891   5.481   5.028  16.789 -0.0986 -0.4601 -0.5819
 5467TIP3    H137892   5.457   5.115  16.757  1.3046  0.7728  1.4717
 5467TIP3    H237893   5.399   4.991  16.821 -1.1286 -0.8621 -3.4125
 5468TIP3   OH237894   1.100   5.549   0.440  0.0978 -0.0827  0.4111
 5468TIP3    H137895   1.095   5.629   0.387  0.8940 -0.6813 -0.5829
 5468TIP3    H237896   1.135   5.579   0.524  2.0852  0.3657 -0.5317
 5469TIP3   OH237897   0.184   6.441  14.390 -0.3025  0.3612 -0.2245
 5469TIP3    H137898   0.220   6.528  14.408  0.4875  0.0083 -0.0677
 5469TIP3    H237899   0.258   6.382  14.401 -0.4118 -0.1648 -2.0012
 5470TIP3   OH237900   1.536   5.180   0.389  0.8302  0.1409 -0.1076
 5470TIP3    H137901   1.486   5.262   0.387 -1.0611 -0.9034  1.4224
 5470TIP3    H237902   1.561   5.170   0.481 -0.1360 -1.6321 -0.0039
 5471TIP3   OH237903   0.118   2.719   0.585 -1.0146 -0.0551  0.3799
 5471TIP3    H137904   0.213   2.724   0.572 -1.0546  0.1170  0.1610
 5471TIP3    H237905   0.108   2.666   0.664 -0.7190  0.2810  0.6504
 5472TIP3   OH237906   0.568   0.063  16.076  0.0724 -0.2998 -0.1432
 5472TIP3    H137907   0.499   0.018  16.124  0.3887 -1.2281 -0.5278
 5472TIP3    H237908   0.649   0.023  16.107  0.2395 -1.6348 -2.1000
 5473TIP3   OH237909   0.792   2.526  15.700 -0.6858  0.1604 -0.1755
 5473TIP3    H137910   0.865   2.520  15.638 -0.7321  0.2603 -0.2410
 5473TIP3    H237911   0.834   2.539  15.785 -0.5744 -1.3782  0.0273
 5474TIP3   OH237912   2.096   6.750  14.176 -0.2019  0.2912  0.1905
 5474TIP3    H137913   2.154   6.786  14.109 -1.9417  0.7957 -1.1204
 5474TIP3    H237914   2.010   6.750  14.135 -0.6155 -3.9812  0.6425
 5475TIP3   OH237915   4.940   5.063  15.081  0.0257  0.1123  0.4602
 5475TIP3    H137916   4.918   5.134  15.141 -0.7643 -0.2042  0.5565
 5475TIP3    H237917   4.867   5.060  15.019 -0.2814 -1.0193  0.8393
 5476TIP3   OH237918   6.138   6.372   0.072  0.1986 -0.0786 -0.2051
 5476TIP3    H137919   6.187   6.454   0.064 -0.0157 -0.0535 -1.4417
 5476TIP3    H237920   6.192   6.308   0.026 -0.0799 -0.4306 -0.0424
 5477TIP3   OH237921   3.665   3.687  15.843  0.1938 -0.2272  0.2977
 5477TIP3    H137922   3.601   3.639  15.895 -1.3788  0.8278 -0.5673
 5477TIP3    H237923   3.654   3.652  15.754 -2.1302  2.6194 -0.7113
 5478TIP3   OH237924   3.973   5.900  16.055 -0.3653  0.1003 -0.1147
 5478TIP3    H137925   4.004   5.812  16.073 -0.3859  0.4147  1.7410
 5478TIP3    H237926   3.884   5.902  16.091 -1.1769  0.3047 -1.9962
 5479TIP3   OH237927   5.160   0.387  12.601 -0.8351 -0.1248  0.2397
 5479TIP3    H137928   5.161   0.480  12.579 -0.2910 -0.4651 -1.3521
 5479TIP3    H237929   5.075   0.356  12.569 -0.8681 -0.2453  0.4445
 5480TIP3   OH237930   0.219   3.303  12.212  0.1084  0.3019 -0.5079
 5480TIP3    H137931   0.189   3.292  12.122 -0.0548 -0.8658 -0.3256
 5480TIP3    H237932   0.312   3.281  12.210  0.3573  1.2968 -0.5694
 5481TIP3   OH237933   4.288   4.762  16.248  0.0160 -0.0270 -0.3071
 5481TIP3    H137934   4.274   4.697  16.180  1.8916 -0.6236 -0.1772
 5481TIP3    H237935   4.336   4.833  16.205 -0.9101  0.7343 -0.1463
 5482TIP3   OH237936   5.964   4.769  13.890 -0.0942  0.9817  0.3157
 5482TIP3    H137937   5.959   4.847  13.835 -3.2855 -1.0043 -2.5726
 5482TIP3    H237938   6.052   4.735  13.875  0.0237  1.9451 -1.5152
 5483TIP3   OH237939   4.121   1.044  16.610 -0.2348 -1.1577 -0.4539
 5483TIP3    H137940   4.040   1.025  16.659 -0.5225  0.8637 -0.0456
 5483TIP3    H237941   4.092   1.091  16.532  0.4680 -1.5147 -0.9426
 5484TIP3   OH237942   5.939   4.178   5.889 -0.0219 -0.0469 -0.1994
 5484TIP3    H137943   5.922   4.249   5.951  1.4042 -0.8345  1.1771
 5484TIP3    H237944   6.022   4.201   5.848  0.6709 -1.0478  0.5617
 5485TIP3   OH237945   6.152   1.342   0.168  0.2816 -0.4124  0.5321
 5485TIP3    H137946   6.218   1.375   0.229  1.7941 -2.6304  0.2169
 5485TIP3    H237947   6.169   1.248   0.162 -1.0679 -0.5987 -1.7939
 5486TIP3   OH237948   1.449   0.329  12.911 -0.5842 -0.3900 -0.1987
 5486TIP3    H137949   1.415   0.333  12.821 -0.5047 -0.6016 -0.2377
 5486TIP3    H237950   1.372   0.348  12.965 -0.4698  0.4896 -0.3367
 5487TIP3   OH237951   5.527   0.338   1.317  0.3842 -0.0168  0.5497
 5487TIP3    H137952   5.561   0.425   1.337  0.2945  0.5900 -1.7255
 5487TIP3    H237953   5.603   0.280   1.330  1.1264  0.7419 -0.2627
 5488TIP3   OH237954   4.985   5.535   3.722  0.8069 -0.7722  0.2611
 5488TIP3    H137955   5.061   5.509   3.671  0.2445 -3.5964  0.6823
 5488TIP3    H237956   4.992   5.630   3.730  2.5384 -0.5672 -2.4069
 5489TIP3   OH237957   4.230   5.362   2.972  0.1936  0.0576  0.4168
 5489TIP3    H137958   4.241   5.379   3.066  0.2708 -2.0346  0.8502
 5489TIP3    H237959   4.282   5.429   2.929  0.1924  1.0365  1.8727
 5490TIP3   OH237960   3.219   4.191   1.906 -0.5573 -0.7065 -0.4670
 5490TIP3    H137961   3.258   4.234   1.830 -1.0145 -2.4890 -1.7898
 5490TIP3    H237962   3.205   4.261   1.969 -0.0217  0.8196 -1.9673
 5491TIP3   OH237963   5.081   4.156  15.819  0.0137 -0.2514 -0.7446
 5491TIP3    H137964   4.991   4.188  15.817  0.6373  1.6479 -0.4247
 5491TIP3    H237965   5.075   4.064  15.790 -1.9626 -0.0744 -1.0126
 5492TIP3   OH237966   6.576   5.525  13.408 -0.0484  0.5068  0.3467
 5492TIP3    H137967   6.506   5.473  13.448  1.0169 -0.6021  0.8357
 5492TIP3    H237968   6.552   5.530  13.316  1.0393 -3.1183 -0.2870
 5493TIP3   OH237969   0.627   3.861   4.300  0.1803 -0.4426 -0.1469
 5493TIP3    H137970   0.542   3.842   4.340 -0.1495 -0.3631 -0.7851
 5493TIP3    H237971   0.606   3.882   4.209  0.5784  2.2536  0.3029
 5494TIP3   OH237972   1.402   5.252  16.787  0.1839 -0.0930  0.1360
 5494TIP3    H137973   1.480   5.306  16.798 -0.4152  0.9469 -0.5679
 5494TIP3    H237974   1.436   5.165  16.765  1.1443  0.3171 -0.0493
 5495TIP3   OH237975   6.852   0.629  16.649 -0.3134  0.2585 -0.4447
 5495TIP3    H137976   6.867   0.538  16.623 -0.6956 -0.4037  1.4940
 5495TIP3    H237977   6.907   0.680  16.589  1.4529 -1.3720 -0.3381
 5496TIP3   OH237978   3.363   5.297  14.462 -0.3455 -0.5024 -0.3164
 5496TIP3    H137979   3.385   5.206  14.483 -1.2676 -0.5833  0.3454
 5496TIP3    H237980   3.412   5.349  14.526 -0.4600 -0.5773 -0.1677
 5497TIP3   OH237981   1.813   5.792   2.729  0.6914 -0.3586 -0.0953
 5497TIP3    H137982   1.838   5.854   2.798  2.3637 -1.8811  0.7416
 5497TIP3    H237983   1.726   5.821   2.702  0.3955  0.8848  1.9513
 5498TIP3   OH237984   0.911   6.022  10.927  0.3130  0.2681 -0.0905
 5498TIP3    H137985   0.915   5.933  10.961  0.7738 -0.1392 -1.1693
 5498TIP3    H237986   1.001   6.042  10.901 -0.0111  0.5724 -1.0161
 5499TIP3   OH237987   0.464   6.297  15.820  0.3440 -0.5416  0.3163
 5499TIP3    H137988   0.384   6.312  15.870  0.6852 -0.2286  0.7882
 5499TIP3    H237989   0.437   6.244  15.745 -0.3352 -0.2637  0.3584
 5500TIP3   OH237990   3.169   3.240   0.343 -0.0407  0.0239  0.2961
 5500TIP3    H137991   3.242   3.297   0.368  0.4875 -0.7452  0.5495
 5500TIP3    H237992   3.182   3.161   0.395 -0.0192 -0.8544 -1.0006
 5501TIP3   OH237993   0.619   4.646  14.078 -0.1574  0.0014  0.0057
 5501TIP3    H137994   0.622   4.648  13.983 -1.6730  1.9196 -0.0692
 5501TIP3    H237995   0.534   4.608  14.099 -0.7522  1.5029  0.4954
 5502TIP3   OH237996   5.644   5.825   5.366  0.1820  0.5703  0.0342
 5502TIP3    H137997   5.647   5.920   5.377  1.6867  0.7591 -1.4337
 5502TIP3    H237998   5.555   5.800   5.390  0.0126  2.2218  1.2773
 5503TIP3   OH237999   2.125   2.041   4.685  0.1451  0.2208 -0.5413
 5503TIP3    H138000   2.110   2.112   4.748  1.2295 -0.1837  0.2061
 5503TIP3    H238001   2.218   2.019   4.696 -0.1095 -1.1220 -0.9596
 5504TIP3   OH238002   4.171   6.686   2.662 -0.5730 -0.1403  0.0444
 5504TIP3    H138003   4.252   6.736   2.663 -0.1393 -0.8383  0.0789
 5504TIP3    H238004   4.189   6.611   2.607 -0.5952 -1.2794  1.5176
 5505TIP3   OH238005   2.202   6.572  13.253  0.5501  0.1762 -0.4351
 5505TIP3    H138006   2.204   6.588  13.348 -0.5056 -1.1262 -0.1442
 5505TIP3    H238007   2.127   6.623  13.222  0.6609  0.2974 -0.5035
 5506TIP3   OH238008   3.399   6.718  14.841  0.0848 -0.0596  0.1419
 5506TIP3    H138009   3.323   6.679  14.798 -0.2315 -0.2820  0.8701
 5506TIP3    H238010   3.362   6.777  14.907  0.5609  0.9880 -0.5074
 5507TIP3   OH238011   3.253   3.873  15.906  0.0307 -0.0135  0.4011
 5507TIP3    H138012   3.239   3.964  15.929  0.2232 -0.4484  2.3668
 5507TIP3    H238013   3.165   3.834  15.903 -0.0365  0.1733 -0.2450
 5508TIP3   OH238014   6.807   4.103   2.459  0.0022  0.1433 -0.0530
 5508TIP3    H138015   6.801   4.009   2.476  0.1181  0.5791  2.8643
 5508TIP3    H238016   6.891   4.128   2.497 -0.0778  1.4782 -0.7026
 5509TIP3   OH238017   2.141   2.529   0.353  0.3759 -0.0377 -0.1694
 5509TIP3    H138018   2.125   2.608   0.302  2.4811  0.8527  0.4017
 5509TIP3    H238019   2.056   2.507   0.391 -0.4736  1.3678 -1.1437
 5510TIP3   OH238020   3.518   2.296   5.613  0.3579  0.2128 -0.5622
 5510TIP3    H138021   3.603   2.337   5.593  0.5953  0.0296  0.0514
 5510TIP3    H238022   3.533   2.203   5.599  0.1669  0.2080 -0.7457
 5511TIP3   OH238023   5.558   0.348   1.670  0.0238  0.6788 -0.0186
 5511TIP3    H138024   5.546   0.412   1.739 -1.7729  1.1533 -0.7137
 5511TIP3    H238025   5.633   0.296   1.698 -0.6002  0.8895  2.2408
 5512TIP3   OH238026   0.814   3.192  13.901 -0.3203 -0.3255  0.5447
 5512TIP3    H138027   0.770   3.196  13.985 -1.5782 -0.5790 -0.0845
 5512TIP3    H238028   0.902   3.225  13.918 -1.2216  1.7259  1.5228
 5513TIP3   OH238029   5.398   3.643   0.121  0.8337 -0.0018  0.2224
 5513TIP3    H138030   5.360   3.729   0.141  2.2658  0.6800  0.1385
 5513TIP3    H238031   5.380   3.630   0.028  0.5149  0.1485  0.2606
 5514TIP3   OH238032   5.875   6.396  12.135  0.2982  0.6499 -0.4798
 5514TIP3    H138033   5.944   6.436  12.188  0.1293 -0.0051  0.2403
 5514TIP3    H238034   5.909   6.310  12.110  0.1766  0.7547 -1.0317
 5515TIP3   OH238035   0.960   5.125   2.974  0.3668  0.6159 -0.2940
 5515TIP3    H138036   0.925   5.167   3.053 -0.5554 -2.0225  0.8374
 5515TIP3    H238037   1.055   5.131   2.984  0.3092 -0.9109  1.8459
 5516TIP3   OH238038   4.054   4.220  13.353 -0.1684  0.3742  0.0489
 5516TIP3    H138039   4.060   4.277  13.430  1.6462  0.4279 -0.0958
 5516TIP3    H238040   4.138   4.175  13.350  0.3909  1.4176 -2.7292
 5517TIP3   OH238041   4.020   0.863  15.450  0.3531  0.1491  0.3306
 5517TIP3    H138042   4.065   0.911  15.519 -2.8613  1.2842  1.8131
 5517TIP3    H238043   4.029   0.771  15.474  1.1441  0.3954  1.0148
 5518TIP3   OH238044   6.482   4.015  14.114 -0.6765  0.0060  0.3081
 5518TIP3    H138045   6.488   4.082  14.182 -0.8477 -0.5825  0.9143
 5518TIP3    H238046   6.537   4.048  14.043 -1.2018  1.0525  0.3670
 5519TIP3   OH238047   1.333   0.660   3.441  0.2363  0.1977 -0.2195
 5519TIP3    H138048   1.389   0.737   3.444 -0.0221  0.3628  0.9002
 5519TIP3    H238049   1.244   0.695   3.437  0.0584  0.0072  1.2751
 5520TIP3   OH238050   3.103   2.256   4.481  0.4098  0.4316  0.0736
 5520TIP3    H138051   3.049   2.218   4.551 -0.9342  1.2947 -0.4340
 5520TIP3    H238052   3.193   2.240   4.508 -0.0835 -1.8082  0.5508
 5521TIP3   OH238053   1.986   2.577  13.971 -0.3193 -0.1137 -0.2128
 5521TIP3    H138054   2.058   2.557  14.031 -0.7612  1.1005  0.7712
 5521TIP3    H238055   1.993   2.671  13.954 -1.8385  0.1002  0.1553
 5522TIP3   OH238056   5.468   3.387  16.406  0.0795 -0.2670  0.0862
 5522TIP3    H138057   5.417   3.458  16.444  0.5170 -0.9924  2.1681
 5522TIP3    H238058   5.404   3.334  16.358 -0.4922  0.6882 -0.2425
 5523TIP3   OH238059   6.192   3.450   5.386  0.6307  0.2513 -0.7968
 5523TIP3    H138060   6.284   3.428   5.393  1.1389  2.2483 -0.5993
 5523TIP3    H238061   6.186   3.540   5.416 -1.4746  0.0190 -0.3009
 5524TIP3   OH238062   4.554   6.644   3.416 -0.0329 -0.4985 -0.2823
 5524TIP3    H138063   4.592   6.677   3.498  1.6310 -1.2217 -0.7418
 5524TIP3    H238064   4.532   6.553   3.434 -1.1426 -0.2306 -0.1816
 5525TIP3   OH238065   5.636   0.345   0.910 -0.5872  0.0043  0.2328
 5525TIP3    H138066   5.653   0.299   0.993  0.5021 -0.9168 -0.4684
 5525TIP3    H238067   5.542   0.365   0.912 -0.2233  1.8931  2.6075
 5526TIP3   OH238068   2.350   0.331   3.233 -0.3985  0.2076 -0.2267
 5526TIP3    H138069   2.327   0.419   3.266 -0.0508  0.2572 -0.1169
 5526TIP3    H238070   2.415   0.347   3.166  0.9244 -0.0627  0.9467
 5527TIP3   OH238071   2.359   4.870   0.143 -0.1404 -0.0624 -0.3165
 5527TIP3    H138072   2.274   4.890   0.182 -0.9707  0.1133 -2.1430
 5527TIP3    H238073   2.395   4.956   0.117  1.8546  0.1957  2.7458
 5528TIP3   OH238074   1.117   3.639  11.170  0.2107 -0.5595  0.4792
 5528TIP3    H138075   1.202   3.650  11.214 -0.2943 -0.0812  1.3705
 5528TIP3    H238076   1.139   3.628  11.078  1.2122  0.4122  0.5734
 5529TIP3   OH238077   0.520   5.932  15.068  0.0170  0.4725  0.3396
 5529TIP3    H138078   0.610   5.930  15.035 -0.3975  1.0359 -0.8680
 5529TIP3    H238079   0.473   5.988  15.007 -1.1146  0.3729  1.0896
 5530TIP3   OH238080   4.736   2.965  11.344 -0.2003 -0.1656 -0.9083
 5530TIP3    H138081   4.823   2.927  11.341 -0.1181 -0.0993  0.2395
 5530TIP3    H238082   4.688   2.921  11.273  0.5618 -0.6992 -1.1025
 5531TIP3   OH238083   1.054   4.015   3.928  0.0975 -0.0147  0.3522
 5531TIP3    H138084   1.115   4.075   3.971 -1.4922  1.7687  0.3090
 5531TIP3    H238085   0.994   3.987   3.997 -0.0679 -0.3411  0.0809
 5532TIP3   OH238086   3.337   5.434   6.167 -0.0655 -0.7022  0.1089
 5532TIP3    H138087   3.285   5.446   6.247  0.2163  3.3791 -0.1187
 5532TIP3    H238088   3.290   5.484   6.101  1.7547 -0.7512 -1.2812
 5533TIP3   OH238089   1.837   2.866   1.315  0.0760 -0.4041 -0.1645
 5533TIP3    H138090   1.810   2.779   1.286 -0.1166 -0.5120  0.3242
 5533TIP3    H238091   1.763   2.900   1.364 -0.1408  0.3571 -0.9922
 5534TIP3   OH238092   4.147   6.450  12.800 -0.1424 -0.0955 -0.3894
 5534TIP3    H138093   4.171   6.456  12.707 -0.5636 -1.2530 -0.5852
 5534TIP3    H238094   4.135   6.541  12.827  0.9348  0.3250 -1.2085
 5535TIP3   OH238095   3.281   3.922  10.536 -0.5072 -0.8666  0.6349
 5535TIP3    H138096   3.367   3.900  10.571  0.7290  2.4313  0.0327
 5535TIP3    H238097   3.223   3.925  10.612  0.0661 -2.3284  1.1522
 5536TIP3   OH238098   5.178   3.769   3.732 -0.1739 -0.2606 -0.0816
 5536TIP3    H138099   5.103   3.816   3.694 -0.0846 -0.8837 -1.0462
 5536TIP3    H238100   5.151   3.678   3.733  0.4345 -0.4420 -0.0781
 5537TIP3   OH238101   0.428   0.007  11.751  0.3701 -0.1979  0.1900
 5537TIP3    H138102   0.407   0.036  11.662  2.2375  0.1884 -0.1594
 5537TIP3    H238103   0.414  -0.088  11.749  0.7865 -0.2475 -0.6325
 5538TIP3   OH238104   3.255   6.820   5.247  0.4545 -0.2437 -0.6785
 5538TIP3    H138105   3.184   6.777   5.199  0.3668 -0.7632 -0.0968
 5538TIP3    H238106   3.221   6.829   5.336  0.8350  0.1869 -0.5747
 5539TIP3   OH238107   1.920   0.426   1.145 -0.0247  0.2779 -0.1871
 5539TIP3    H138108   1.947   0.370   1.218 -1.2269 -1.6463 -1.1526
 5539TIP3    H238109   1.866   0.370   1.089 -0.2820  2.0682 -1.8671
 5540TIP3   OH238110   0.383   1.457   0.837 -0.1457 -0.4865  0.4853
 5540TIP3    H138111   0.353   1.368   0.818  1.0467 -0.9754  0.7735
 5540TIP3    H238112   0.378   1.503   0.754  0.0254 -1.0782  0.1401
 5541TIP3   OH238113   0.674   2.862  11.989 -0.4806  0.1478 -0.2216
 5541TIP3    H138114   0.717   2.925  11.931 -1.4389  1.7046  0.6912
 5541TIP3    H238115   0.740   2.841  12.056 -0.4286  0.8482 -0.0525
 5542TIP3   OH238116   4.903   0.258  16.342  0.2337  0.0300 -0.1885
 5542TIP3    H138117   4.910   0.348  16.312 -3.1591  0.6016  0.3839
 5542TIP3    H238118   4.962   0.254  16.418  1.0729  1.4679 -0.7167
 5543TIP3   OH238119   3.718   3.770  11.327  0.1507  0.4840 -0.0668
 5543TIP3    H138120   3.630   3.803  11.343 -0.3050  0.2057 -1.8367
 5543TIP3    H238121   3.706   3.680  11.300  1.1627 -0.2055  1.5866
 5544TIP3   OH238122   1.701   3.418   0.928  0.0718  0.9889 -0.4822
 5544TIP3    H138123   1.629   3.456   0.877 -0.2521 -0.1985 -0.9465
 5544TIP3    H238124   1.660   3.347   0.978  0.8584  0.5053 -0.5055
 5545TIP3   OH238125   5.642   1.206  14.688 -0.2462 -0.5039  0.2650
 5545TIP3    H138126   5.680   1.200  14.600  2.2073 -1.8931  1.3143
 5545TIP3    H238127   5.649   1.117  14.723  1.9395  0.6182  3.0188
 5546TIP3   OH238128   0.873   6.235   0.452 -0.5978 -0.0018  0.4881
 5546TIP3    H138129   0.894   6.154   0.405 -0.2533 -0.7556  1.8676
 5546TIP3    H238130   0.781   6.226   0.475 -0.3292 -0.4822  1.4665
 5547TIP3   OH238131   5.497   0.643  11.586 -0.1614 -0.3411 -0.2753
 5547TIP3    H138132   5.553   0.720  11.577 -0.3030 -0.3054 -0.9708
 5547TIP3    H238133   5.556   0.569  11.571 -0.1800 -0.3287 -0.4143
 5548TIP3   OH238134   3.984   4.233   4.185  0.5350  0.1440  0.0541
 5548TIP3    H138135   3.927   4.310   4.176  0.6083  0.1966  0.0355
 5548TIP3    H238136   4.036   4.232   4.105  0.8454  0.3307  0.2503
 5549TIP3   OH238137   2.231   1.154  13.467 -0.4145  0.1358  0.0666
 5549TIP3    H138138   2.263   1.160  13.558 -0.6871  1.0759  0.1059
 5549TIP3    H238139   2.301   1.193  13.415 -2.1804  4.0094  0.3191
 5550TIP3   OH238140   0.653   0.468   4.206 -0.0486  0.9122  0.2651
 5550TIP3    H138141   0.692   0.449   4.120 -0.2179 -2.1097  0.7689
 5550TIP3    H238142   0.650   0.564   4.210  2.7527  1.1979 -1.8247
 5551TIP3   OH238143   2.433   5.268   5.401  0.5023  0.4660  0.4310
 5551TIP3    H138144   2.345   5.232   5.411  0.1039 -0.1456 -3.5874
 5551TIP3    H238145   2.488   5.192   5.381  1.5820  1.0580  1.0370
 5552TIP3   OH238146   0.766   4.606  14.606 -0.4706 -0.1902  0.9806
 5552TIP3    H138147   0.807   4.682  14.646  3.8969 -0.1594 -2.8187
 5552TIP3    H238148   0.696   4.642  14.551  0.4338  0.9537  0.5445
 5553TIP3   OH238149   5.318   4.903   6.494 -0.6495 -0.3078  0.2845
 5553TIP3    H138150   5.230   4.941   6.487  0.1872  1.9891  1.1236
 5553TIP3    H238151   5.328   4.883   6.587 -0.6871 -1.6820  0.0086
 5554TIP3   OH238152   3.572   2.272  16.669 -0.2425 -1.0878 -0.2803
 5554TIP3    H138153   3.586   2.271  16.574  1.2849  2.5314 -0.2296
 5554TIP3    H238154   3.660   2.279  16.706 -0.9497  0.0989  1.2555
 5555TIP3   OH238155   3.000   3.201   5.290 -0.1374  0.9978 -0.5768
 5555TIP3    H138156   3.021   3.278   5.342  2.0858  0.6362 -0.8415
 5555TIP3    H238157   3.068   3.198   5.223 -0.9998 -0.4044 -1.4358
 5556TIP3   OH238158   2.620   5.795   0.722 -0.0930 -0.2002  0.0783
 5556TIP3    H138159   2.701   5.746   0.735 -0.3276 -0.2892  1.2788
 5556TIP3    H238160   2.646   5.886   0.732  0.1320 -0.1209 -1.0609
 5557TIP3   OH238161   1.673   1.765   1.216  0.0610 -0.3107 -0.4614
 5557TIP3    H138162   1.617   1.833   1.178  0.3381  0.3769  0.3494
 5557TIP3    H238163   1.613   1.709   1.265  0.0038  0.0871 -0.0764
 5558TIP3   OH238164   6.285   2.847  13.225  0.2203 -0.4517 -0.0990
 5558TIP3    H138165   6.295   2.937  13.257 -0.7057 -1.1510  2.4065
 5558TIP3    H238166   6.200   2.819  13.259  1.7225 -3.2300  1.7814
 5559TIP3   OH238167   3.257   4.620   4.892  0.8381  0.1480 -0.1307
 5559TIP3    H138168   3.253   4.574   4.809  0.2290 -1.0624  0.5521
 5559TIP3    H238169   3.225   4.708   4.872 -3.0849 -1.1871 -0.4762
 5560TIP3   OH238170   3.643   6.756  13.641  0.2378 -0.2339 -0.5290
 5560TIP3    H138171   3.653   6.697  13.716  2.8001  0.4417 -0.2270
 5560TIP3    H238172   3.619   6.840  13.680 -0.2607 -0.3249 -0.6428
 5561TIP3   OH238173   2.434   4.202   4.265 -0.6945 -0.6282  0.0545
 5561TIP3    H138174   2.357   4.221   4.319 -0.9687  0.5453 -0.7246
 5561TIP3    H238175   2.408   4.228   4.177  0.5794 -0.2829 -0.2336
 5562TIP3   OH238176   3.909   4.026   3.876 -0.0443  0.5220  0.6294
 5562TIP3    H138177   3.818   4.056   3.882 -0.2417  0.3391 -1.0472
 5562TIP3    H238178   3.918   3.960   3.945 -2.2588 -2.0553 -1.3392
 5563TIP3   OH238179   0.061   2.215   2.236 -0.1050  0.8234  0.4435
 5563TIP3    H138180   0.045   2.135   2.186  1.2915  0.4299  0.5839
 5563TIP3    H238181  -0.014   2.221   2.295 -0.5986  0.0281 -0.0717
 5564TIP3   OH238182   1.975   0.770  11.626 -0.1981 -0.1791 -0.7221
 5564TIP3    H138183   1.936   0.701  11.679 -1.1550 -0.8088 -2.1761
 5564TIP3    H238184   2.064   0.739  11.607 -0.0936 -0.2759 -0.1049
 5565TIP3   OH238185   1.790   3.803  16.850 -0.2428 -0.0814  0.5716
 5565TIP3    H138186   1.778   3.862  16.775  0.5457 -1.2556 -0.5356
 5565TIP3    H238187   1.767   3.717  16.816  1.1196 -0.7995  1.3733
 5566TIP3   OH238188   3.364   4.024  15.669 -0.2270 -0.1566  0.2745
 5566TIP3    H138189   3.366   3.964  15.744 -0.6665 -0.6001 -0.0597
 5566TIP3    H238190   3.271   4.045  15.659 -0.2836 -0.7938 -0.6818
 5567TIP3   OH238191   0.462   4.253  12.129  0.1895  0.2769  0.4201
 5567TIP3    H138192   0.543   4.209  12.154  0.2887  0.4384  0.3816
 5567TIP3    H238193   0.486   4.306  12.053 -0.2738 -0.7942 -0.5136
 5568TIP3   OH238194   6.227   3.412  13.503 -0.2353  0.0215 -0.3422
 5568TIP3    H138195   6.286   3.424  13.429  0.5933  0.0228  0.2969
 5568TIP3    H238196   6.177   3.494  13.509 -1.6850 -0.6729 -2.0405
 5569TIP3   OH238197   4.821   1.393   6.587 -0.5534  0.4699  0.2696
 5569TIP3    H138198   4.830   1.473   6.536 -2.6700 -1.0122 -2.6939
 5569TIP3    H238199   4.911   1.360   6.596  0.1668  2.2488  0.0987
 5570TIP3   OH238200   3.409   2.708  14.300 -0.4238 -0.7655  0.2315
 5570TIP3    H138201   3.410   2.619  14.335 -0.4277 -1.1225 -0.6286
 5570TIP3    H238202   3.415   2.696  14.205 -1.1776  0.1210  0.0495
 5571TIP3   OH238203   3.075   6.235   5.767 -0.1250 -0.0827 -0.0088
 5571TIP3    H138204   3.042   6.152   5.734  0.4196 -0.7368  1.0385
 5571TIP3    H238205   3.004   6.269   5.821  0.4797 -1.0051  1.4286
 5572TIP3   OH238206   2.902   3.587  14.390 -0.3598  0.0096  0.0035
 5572TIP3    H138207   2.903   3.500  14.349 -4.3579 -0.3315  0.2083
 5572TIP3    H238208   2.961   3.639  14.336  2.8753 -2.8949  0.3701
 5573TIP3   OH238209   3.952   2.881  12.478 -0.3060 -0.3790  0.5675
 5573TIP3    H138210   3.962   2.931  12.559 -1.7838  1.5250 -0.3189
 5573TIP3    H238211   3.879   2.822  12.496 -0.7822  0.1988  0.6019
 5574TIP3   OH238212   2.831   4.068   0.301 -0.3112  0.2095 -0.5284
 5574TIP3    H138213   2.802   4.032   0.217 -1.2417 -0.6501  0.1248
 5574TIP3    H238214   2.873   4.151   0.279  1.2229 -0.8931 -2.0357
 5575TIP3   OH238215   1.473   1.500   4.576  0.5016 -0.1461 -0.5515
 5575TIP3    H138216   1.531   1.426   4.595  1.5942  0.5867 -0.8865
 5575TIP3    H238217   1.449   1.535   4.661  1.5156  0.2432 -0.4121
 5576TIP3   OH238218   2.145   2.791   2.419 -0.6379  0.4470 -0.9223
 5576TIP3    H138219   2.131   2.863   2.357 -3.6527  1.8488  1.1673
 5576TIP3    H238220   2.153   2.834   2.504  1.0588 -1.5624  0.0108
 5577TIP3   OH238221   2.707   4.124   1.823  0.7131 -0.5544  0.0473
 5577TIP3    H138222   2.796   4.096   1.806  1.7498  0.9106  2.5106
 5577TIP3    H238223   2.684   4.178   1.747  1.5479 -1.6618 -1.0298
 5578TIP3   OH238224   5.168   3.186  10.660  0.2339 -0.1600 -0.2123
 5578TIP3    H138225   5.125   3.166  10.744 -0.5438 -1.2352 -0.8442
 5578TIP3    H238226   5.225   3.110  10.644  0.6631  0.2163 -0.4801
 5579TIP3   OH238227   3.209   5.844   3.311 -1.0950 -0.6932  0.1421
 5579TIP3    H138228   3.234   5.805   3.227  1.0554  1.1260 -0.1877
 5579TIP3    H238229   3.291   5.847   3.361 -1.9813 -0.1634  1.6207
 5580TIP3   OH238230   0.752   5.222   4.881 -0.1345 -0.2236 -0.1044
 5580TIP3    H138231   0.762   5.167   4.958 -0.5429 -0.3483 -0.1435
 5580TIP3    H238232   0.741   5.161   4.809  0.4771 -0.1135 -0.3009
 5581TIP3   OH238233   2.780   1.409   4.017  0.8412 -0.4729  0.4125
 5581TIP3    H138234   2.830   1.446   3.944  2.9003  0.1756  2.0592
 5581TIP3    H238235   2.747   1.485   4.065 -0.1343 -0.8850  0.4166
 5582TIP3   OH238236   3.679   3.173  14.941  0.1224 -0.1233  0.5302
 5582TIP3    H138237   3.622   3.103  14.910 -0.9518  0.8237  0.3172
 5582TIP3    H238238   3.622   3.249  14.950  1.2282  0.6926  0.9228
 5583TIP3   OH238239   1.738   3.339  11.849  0.2740 -0.4692  0.0741
 5583TIP3    H138240   1.749   3.434  11.850 -0.8610 -0.3293  0.8394
 5583TIP3    H238241   1.724   3.316  11.941  1.3104 -1.4923  0.0035
 5584TIP3   OH238242   0.712   4.571   4.597 -0.0463 -0.4621  0.0001
 5584TIP3    H138243   0.651   4.499   4.581  0.2136 -1.7023  3.7061
 5584TIP3    H238244   0.793   4.543   4.554 -0.5796 -1.3327 -0.4612
 5585TIP3   OH238245   1.939   0.288   1.770 -0.1033 -0.2840  0.4401
 5585TIP3    H138246   1.970   0.349   1.702  0.4854  2.0774  2.6818
 5585TIP3    H238247   2.019   0.251   1.806 -0.1629  1.0007  1.9892
 5586TIP3   OH238248   6.395   3.909   4.573  0.1432 -0.3380  0.4967
 5586TIP3    H138249   6.449   3.983   4.602 -0.1757  0.2768 -0.4516
 5586TIP3    H238250   6.374   3.929   4.482 -0.1130 -1.5104  0.2895
 5587TIP3   OH238251   5.753   0.194  12.394 -0.0613 -0.0173 -0.5351
 5587TIP3    H138252   5.842   0.216  12.367 -0.0619  0.2011 -0.3618
 5587TIP3    H238253   5.763   0.147  12.477 -0.2114  1.8498  0.5951
 5588TIP3   OH238254   4.477   1.915   5.020 -0.1776 -0.3105  0.0911
 5588TIP3    H138255   4.498   1.902   4.927 -1.2560  0.9096 -0.3524
 5588TIP3    H238256   4.488   1.828   5.059  0.4624 -0.8070 -1.1376
 5589TIP3   OH238257   2.450   5.384   4.593  0.1943 -0.0253 -0.0235
 5589TIP3    H138258   2.397   5.305   4.603 -0.9359  0.7735  0.4082
 5589TIP3    H238259   2.389   5.456   4.604  1.3196  0.9271  0.1904
 5590TIP3   OH238260   3.396   5.147  13.199 -0.6175  0.2014  0.2928
 5590TIP3    H138261   3.488   5.129  13.219  0.8590  2.7802 -3.1353
 5590TIP3    H238262   3.348   5.113  13.275  3.2915  0.8024  3.3752
 5591TIP3   OH238263   1.176   2.605  16.201  0.4586 -0.7462 -0.0003
 5591TIP3    H138264   1.091   2.648  16.207  0.2261 -0.7536 -2.3466
 5591TIP3    H238265   1.238   2.671  16.232 -0.1987  0.0953 -0.4253
 5592TIP3   OH238266   1.168   6.741  15.100  0.4226  0.1946  0.5656
 5592TIP3    H138267   1.231   6.788  15.045  1.9918  2.3741  3.8924
 5592TIP3    H238268   1.220   6.674  15.145 -0.7519 -1.3549 -0.2851
 5593TIP3   OH238269   2.575   4.756  14.692 -0.1052  0.4812 -0.7038
 5593TIP3    H138270   2.665   4.724  14.687 -0.9564 -2.1041 -1.0969
 5593TIP3    H238271   2.577   4.839  14.646  2.2563  0.9954  0.1453
 5594TIP3   OH238272   1.136   2.624   0.421  0.0644  0.0163 -0.1708
 5594TIP3    H138273   1.133   2.539   0.463 -0.3597  0.3527  0.4842
 5594TIP3    H238274   1.225   2.655   0.437 -0.0656  0.1009  0.3970
 5595TIP3   OH238275   1.415   2.211  14.025  0.2384  0.1287  0.8875
 5595TIP3    H138276   1.493   2.168  13.989 -0.7997 -2.1043  1.1509
 5595TIP3    H238277   1.368   2.244  13.949 -0.3161 -1.7014  0.3860
 5596TIP3   OH238278   1.302   3.065  11.155  0.1481  0.3568 -0.0493
 5596TIP3    H138279   1.394   3.039  11.163  0.1035  0.5473  1.4565
 5596TIP3    H238280   1.305   3.149  11.111  0.5565 -0.3991 -1.5394
 5597TIP3   OH238281   1.640   4.029  11.109  0.6767 -0.3967 -0.3585
 5597TIP3    H138282   1.578   3.973  11.062 -0.2837 -0.2313  0.6524
 5597TIP3    H238283   1.597   4.115  11.112 -0.5909 -0.9659  2.9817
 5598TIP3   OH238284   2.199   0.020   1.501 -0.2650 -0.1730 -0.2307
 5598TIP3    H138285   2.289  -0.008   1.480  0.3840 -0.5108  2.6122
 5598TIP3    H238286   2.210   0.087   1.568 -2.1369 -0.4246  0.3738
 5599TIP3   OH238287   3.978   2.503  13.234 -0.1917  0.1593  0.8053
 5599TIP3    H138288   4.006   2.539  13.318 -1.4926 -0.2157  1.4293
 5599TIP3    H238289   3.903   2.557  13.209 -1.0815 -0.9955  0.8985
 5600TIP3   OH238290   2.215   1.353   2.653  0.1220 -0.2531  0.0910
 5600TIP3    H138291   2.125   1.348   2.686  0.5356 -0.5963  1.1821
 5600TIP3    H238292   2.270   1.339   2.729  1.1109 -0.4108 -0.6312
 5601TIP3   OH238293   1.834   2.017  12.211  0.4092 -0.5018 -0.1386
 5601TIP3    H138294   1.881   2.052  12.136 -0.1543  0.4893 -0.0423
 5601TIP3    H238295   1.776   1.951  12.174  0.7901 -0.6634 -0.4507
 5602TIP3   OH238296   0.296   3.330  15.888  0.4355  0.3136  0.8506
 5602TIP3    H138297   0.288   3.424  15.900  2.7335  0.6608  0.1461
 5602TIP3    H238298   0.296   3.294  15.976  0.0821  1.0087  1.1380
 5603TIP3   OH238299   2.605   4.908  11.792  0.4299 -0.5726 -0.3424
 5603TIP3    H138300   2.642   4.913  11.880  1.3439 -2.9498 -0.5191
 5603TIP3    H238301   2.510   4.905  11.807  0.5138  0.2686  0.4606
 5604TIP3   OH238302   1.988   4.488  16.383  0.1643  0.3322  0.2447
 5604TIP3    H138303   1.905   4.473  16.431 -0.6681 -0.1666 -1.2826
 5604TIP3    H238304   2.050   4.428  16.425 -1.1637 -1.8881 -0.7555
 5605TIP3   OH238305   0.210   5.418   2.993  0.1210  0.4836  0.2981
 5605TIP3    H138306   0.132   5.449   3.038  1.1022  1.0371  1.6991
 5605TIP3    H238307   0.244   5.348   3.049 -0.4095 -1.1278 -1.3010
 5606TIP3   OH238308   1.624   1.827   4.376 -0.0287 -0.3822  1.0894
 5606TIP3    H138309   1.603   1.896   4.438  2.8207 -0.0830  1.8863
 5606TIP3    H238310   1.671   1.761   4.428 -1.2296 -2.1794  0.0287
 5607TIP3   OH238311   1.448   3.670   5.473 -0.2194  0.0716  0.7220
 5607TIP3    H138312   1.355   3.687   5.486 -1.1895 -2.7505 -1.4652
 5607TIP3    H238313   1.457   3.575   5.484  1.7535 -0.2120 -2.1203
 5608TIP3   OH238314   2.982   5.354   1.881  0.2353 -0.2773 -0.2337
 5608TIP3    H138315   2.933   5.394   1.809  0.2505 -0.6884 -0.4778
 5608TIP3    H238316   2.922   5.288   1.917  0.0093  0.3290  0.5125
 5609TIP3   OH238317   2.261   2.046   1.657 -0.4082 -0.7070  0.4983
 5609TIP3    H138318   2.280   2.077   1.568  2.3106 -0.5592  1.0389
 5609TIP3    H238319   2.166   2.052   1.664 -0.4922  4.4133 -0.6185
 5610TIP3   OH238320   3.421   5.144   3.528  0.4562 -0.2517  0.0430
 5610TIP3    H138321   3.337   5.105   3.551 -0.3174 -0.1082 -2.2667
 5610TIP3    H238322   3.462   5.165   3.612 -1.3320 -1.2960  1.2383
 5611TIP3   OH238323   2.272   5.388  11.615 -0.0617  0.4954  0.5028
 5611TIP3    H138324   2.296   5.381  11.708 -0.1494  0.2652  0.5089
 5611TIP3    H238325   2.327   5.322  11.572  0.2156  0.8255  0.3463
 5612TIP3   OH238326   2.012   4.814   0.971 -0.4267  0.0274 -0.2628
 5612TIP3    H138327   2.094   4.819   1.021 -0.2972 -2.0595 -0.1888
 5612TIP3    H238328   1.984   4.905   0.963  0.6296  0.6087  1.8179
 5613TIP3   OH238329   2.120   3.462   2.230  0.1388  0.2144 -0.2587
 5613TIP3    H138330   2.129   3.548   2.189 -1.2153  0.9357  0.8401
 5613TIP3    H238331   2.108   3.481   2.323 -0.2882 -1.1513 -0.0058
 5614TIP3   OH238332   3.020   2.138   2.800  0.1913 -0.5435  0.3897
 5614TIP3    H138333   3.061   2.224   2.811 -0.8203 -0.0287  0.2387
 5614TIP3    H238334   2.974   2.122   2.882  0.9015 -1.2422  0.6612
 5615TIP3   OH238335   5.970   5.630  14.522 -0.2586  0.5380 -0.0111
 5615TIP3    H138336   6.032   5.627  14.594 -1.5712  1.0307  1.1837
 5615TIP3    H238337   5.893   5.674  14.558 -0.9749  0.7620 -1.7010
 5616TIP3   OH238338   5.704   0.155   0.328  0.4178 -0.4132  0.4263
 5616TIP3    H138339   5.668   0.191   0.409 -1.5391 -0.1570 -0.4977
 5616TIP3    H238340   5.674   0.215   0.260  2.6742 -0.1866 -0.4409
 5617TIP3   OH238341   2.010   1.758  13.014 -0.3615  0.5370 -0.0739
 5617TIP3    H138342   2.014   1.846  13.052  0.5572  0.3682  0.2327
 5617TIP3    H238343   1.981   1.772  12.924 -0.1171  1.1596 -0.0590
 5618TIP3   OH238344   1.107   5.350  11.498  0.6510  0.3986  0.0854
 5618TIP3    H138345   1.086   5.308  11.582  1.1377 -1.4747 -0.6747
 5618TIP3    H238346   1.180   5.408  11.517  2.0314 -1.4383  0.6441
 5619TIP3   OH238347   3.116   0.369  11.543  0.4949 -0.2914  0.3092
 5619TIP3    H138348   3.121   0.464  11.531  0.6842 -0.4271 -0.7570
 5619TIP3    H238349   3.066   0.358  11.624 -1.5438  0.6651 -0.7614
 5620TIP3   OH238350   5.059   2.257   2.541  0.8568  0.0580  0.5214
 5620TIP3    H138351   5.044   2.201   2.617  0.8245 -1.7443 -0.7391
 5620TIP3    H238352   4.977   2.305   2.529  0.5770 -0.2639  1.1365
 5621TIP3   OH238353   2.160   2.640  14.719  0.1882  0.3667  0.2178
 5621TIP3    H138354   2.234   2.677  14.671 -0.0113  0.5094  0.0155
 5621TIP3    H238355   2.084   2.662  14.665 -0.1203  1.1399  0.9469
 5622TIP3   OH238356   4.854   2.424   3.861  0.5685  0.6249  0.1032
 5622TIP3    H138357   4.881   2.449   3.772  1.4954  0.1786  0.2487
 5622TIP3    H238358   4.936   2.400   3.905 -0.1300 -1.8497  0.2119
 5623TIP3   OH238359   3.514   5.240   3.754 -0.1014 -0.5455 -0.2907
 5623TIP3    H138360   3.544   5.169   3.810  0.2475 -1.3059 -1.4021
 5623TIP3    H238361   3.435   5.273   3.796  1.8620  1.1270  2.4119
 5624TIP3   OH238362   4.118   6.458   1.650 -0.3413  0.1895  0.6192
 5624TIP3    H138363   4.170   6.532   1.679  0.1024 -0.0532  0.4499
 5624TIP3    H238364   4.088   6.416   1.731 -0.7549  0.6614  0.7151
 5625TIP3   OH238365   6.204   0.225   5.778 -0.0998 -0.4111 -0.0951
 5625TIP3    H138366   6.177   0.313   5.751 -2.8416 -1.0201  0.3842
 5625TIP3    H238367   6.250   0.239   5.861  1.2236  0.7042 -0.9746
 5626TIP3   OH238368   0.765   6.200  10.768  0.1687 -0.3059 -0.2665
 5626TIP3    H138369   0.838   6.253  10.733 -0.1880 -0.1316 -0.7652
 5626TIP3    H238370   0.808   6.126  10.810  0.6417 -0.2077 -0.5581
 5627TIP3   OH238371   0.927   1.841   3.850  0.2760  0.4448  0.0946
 5627TIP3    H138372   0.954   1.933   3.857 -0.6027  0.7464 -0.3183
 5627TIP3    H238373   1.006   1.795   3.822  0.7242  1.0746  0.2924
 5628TIP3   OH238374   4.908   6.212  14.151 -0.5095  0.5058  0.1469
 5628TIP3    H138375   4.930   6.260  14.231  2.9364  2.1031 -1.5202
 5628TIP3    H238376   4.970   6.138  14.150 -1.2777 -0.1462 -0.5216
 5629TIP3   OH238377   1.089   4.956   0.847  0.1804 -0.1991 -0.2453
 5629TIP3    H138378   1.183   4.950   0.866  0.4207  1.5753 -0.7148
 5629TIP3    H238379   1.081   4.915   0.760  0.7392  0.7033 -0.7421
 5630TIP3   OH238380   2.676   2.846  16.795  0.1689 -0.1633  0.5374
 5630TIP3    H138381   2.664   2.823  16.887  0.2448 -0.2817  0.5172
 5630TIP3    H238382   2.685   2.941  16.795  1.2894 -0.2635  0.7651
 5631TIP3   OH238383   1.595   3.212   2.507 -0.7126 -0.2145  0.8275
 5631TIP3    H138384   1.541   3.147   2.463 -0.7945  0.7460 -0.5791
 5631TIP3    H238385   1.583   3.195   2.600 -2.7576 -0.5659  0.5450
 5632TIP3   OH238386   4.268   2.041  14.645  0.3705  0.5517  0.1434
 5632TIP3    H138387   4.353   1.999  14.640 -0.3881 -0.9475 -0.9041
 5632TIP3    H238388   4.206   1.974  14.618 -1.3774  1.0269  2.6836
 5633TIP3   OH238389   5.643   5.091  15.948  0.5250 -0.9308 -0.5120
 5633TIP3    H138390   5.550   5.106  15.963  0.3799 -1.5268 -0.7808
 5633TIP3    H238391   5.680   5.178  15.931 -0.0288 -0.7275 -0.6745
 5634TIP3   OH238392   5.505   4.980   3.517 -0.1125  0.0114  0.0481
 5634TIP3    H138393   5.500   4.905   3.457  0.1757  0.8142 -1.0272
 5634TIP3    H238394   5.576   5.034   3.482 -0.3174  0.7950  0.7860
 5635TIP3   OH238395   6.494   6.365  16.529  0.1943  0.2340 -0.3458
 5635TIP3    H138396   6.472   6.273  16.510  1.2406  0.3511 -2.3644
 5635TIP3    H238397   6.589   6.365  16.536  0.5483  1.6164 -3.5594
 5636TIP3   OH238398   5.996   1.804  10.073 -0.4459 -0.2393 -0.5305
 5636TIP3    H138399   5.912   1.849  10.062 -0.7896 -0.6600  0.2509
 5636TIP3    H238400   5.974   1.711  10.071 -0.3514 -0.3680  1.8489
 5637TIP3   OH238401   3.398   4.325   3.965 -0.4870  0.1758 -0.6566
 5637TIP3    H138402   3.468   4.298   4.024  0.0401  1.8475 -0.4622
 5637TIP3    H238403   3.387   4.251   3.905 -0.2958 -1.1180  0.8495
 5638TIP3   OH238404   6.450   0.839  10.547 -0.1623  0.1897  0.2033
 5638TIP3    H138405   6.445   0.838  10.643  0.0538 -1.3312  0.2334
 5638TIP3    H238406   6.360   0.822  10.518 -0.0561 -0.3208  0.1650
 5639TIP3   OH238407   5.940   2.955  10.283 -0.2702  0.1394 -0.7716
 5639TIP3    H138408   6.012   2.892  10.274 -0.3564  0.0383 -0.7632
 5639TIP3    H238409   5.871   2.906  10.327 -0.3559  0.2266 -0.8081
 5640TIP3   OH238410   2.038   3.676  13.860  0.3427  0.0821  0.3811
 5640TIP3    H138411   2.013   3.758  13.818  0.3351 -1.3586 -2.7347
 5640TIP3    H238412   2.131   3.665  13.840  0.6710 -0.1104  1.8772
 5641TIP3   OH238413   5.542   2.255   4.930  0.0818  0.1787  0.2506
 5641TIP3    H138414   5.470   2.227   4.873  1.7511 -0.6155 -1.5973
 5641TIP3    H238415   5.579   2.331   4.886  0.5492  0.4244  1.0435
 5642TIP3   OH238416   4.244   2.918   6.082 -0.6879 -0.4289  0.9517
 5642TIP3    H138417   4.150   2.903   6.093 -0.6502 -0.9509  0.5628
 5642TIP3    H238418   4.278   2.922   6.171 -0.9625 -0.9750  1.0852
 5643TIP3   OH238419   4.431   5.046  11.656  0.2210 -0.1735 -0.6131
 5643TIP3    H138420   4.390   4.963  11.633  1.0924 -1.3778  1.8926
 5643TIP3    H238421   4.474   5.075  11.575 -2.1350 -0.8469 -2.2191
 5644TIP3   OH238422   6.601   1.336   2.450  0.2088  0.0473 -0.3031
 5644TIP3    H138423   6.528   1.393   2.427  0.4489  0.1696 -0.7760
 5644TIP3    H238424   6.642   1.314   2.367  0.2516 -0.6459 -0.1062
 5645TIP3   OH238425   4.089   0.434  15.803  0.0477  0.5741  0.8791
 5645TIP3    H138426   4.169   0.430  15.854  0.4716  0.9440  0.2573
 5645TIP3    H238427   4.048   0.348  15.816  1.7579 -0.5733 -0.7182
 5646TIP3   OH238428   3.934   1.226   5.692 -0.0371  0.0453  0.3568
 5646TIP3    H138429   3.959   1.319   5.688 -0.1895  0.0979  0.5934
 5646TIP3    H238430   4.017   1.179   5.702  0.2316  0.0118 -1.5972
 5647TIP3   OH238431   1.876   2.474  12.704  0.3871 -0.0372  0.4700
 5647TIP3    H138432   1.878   2.570  12.704 -1.0913  0.0496 -1.2451
 5647TIP3    H238433   1.836   2.451  12.789  1.3857  0.8037  1.1905
 5648TIP3   OH238434   6.006   5.674  12.904  0.2382  0.0360  0.2497
 5648TIP3    H138435   5.975   5.744  12.847  0.9632 -0.0044 -0.2029
 5648TIP3    H238436   6.014   5.715  12.990  0.1808  0.3780  0.0933
 5649TIP3   OH238437   4.916   4.656  12.259  0.2563  0.2232  0.1657
 5649TIP3    H138438   4.943   4.565  12.256  1.8476  0.6795 -0.3684
 5649TIP3    H238439   4.971   4.696  12.326 -1.4065  0.5161  1.4009
 5650TIP3   OH238440   6.813   0.227  16.710  0.1569  0.2897 -0.4034
 5650TIP3    H138441   6.876   0.250  16.778  0.1178  2.9557 -1.1424
 5650TIP3    H238442   6.728   0.230  16.754  0.3047 -0.3252 -0.0685
 5651TIP3   OH238443   1.641   6.282  11.915 -0.0571 -0.2331 -0.1787
 5651TIP3    H138444   1.675   6.363  11.879 -1.5760 -0.1495 -1.5443
 5651TIP3    H238445   1.548   6.282  11.891 -0.0126 -2.5672 -0.6089
 5652TIP3   OH238446   5.078   3.828   1.582  0.1135 -0.4096 -0.6249
 5652TIP3    H138447   5.154   3.780   1.550  0.6055  0.1629 -0.3179
 5652TIP3    H238448   5.022   3.838   1.505 -1.1812 -3.5856 -0.2577
 5653TIP3   OH238449   2.107   0.264  16.914 -0.3410  0.5070  0.0249
 5653TIP3    H138450   2.151   0.331  16.861 -1.2619  0.2454 -1.1193
 5653TIP3    H238451   2.096   0.190  16.854  1.1642 -0.9259  1.4362
 5654TIP3   OH238452   6.157   1.996  13.697  0.7206 -0.1503 -0.6562
 5654TIP3    H138453   6.192   1.924  13.750  2.1293  1.2727  0.4195
 5654TIP3    H238454   6.108   2.050  13.758  2.2018  1.4086 -0.7693
 5655TIP3   OH238455   4.192   5.256  13.478 -0.4462 -0.7477  0.8299
 5655TIP3    H138456   4.212   5.172  13.436 -2.8956  0.0073 -2.2181
 5655TIP3    H238457   4.277   5.292  13.502  0.7881 -3.2324  0.4762
 5656TIP3   OH238458   3.398   0.262   3.318  0.4606 -0.0898 -0.6310
 5656TIP3    H138459   3.493   0.253   3.327  0.2109 -1.2140  1.6085
 5656TIP3    H238460   3.375   0.205   3.245  1.5122  0.4645 -1.4307
 5657TIP3   OH238461   5.792   1.240  12.845 -0.0846  0.1309  0.5065
 5657TIP3    H138462   5.742   1.270  12.770  0.5081 -0.3375 -0.0857
 5657TIP3    H238463   5.861   1.305  12.857  1.4633 -1.1375 -1.0431
 5658TIP3   OH238464   1.893   4.374  15.364 -0.4259 -0.3260 -0.0681
 5658TIP3    H138465   1.896   4.322  15.283 -1.2988  0.8054 -0.8715
 5658TIP3    H238466   1.826   4.440  15.347  0.4957  0.9400  0.9851
 5659TIP3   OH238467   3.543   1.748   2.143 -0.4912 -0.4534  0.0904
 5659TIP3    H138468   3.468   1.738   2.202 -2.1148  2.1591 -1.3027
 5659TIP3    H238469   3.506   1.735   2.055  1.0636 -0.7418 -0.5440
 5660TIP3   OH238470   1.356   4.009  16.268 -0.0481  0.4264 -0.6315
 5660TIP3    H138471   1.368   4.062  16.189 -1.9346 -0.6949 -1.7752
 5660TIP3    H238472   1.365   3.919  16.237 -2.7621 -0.1317 -0.0560
 5661TIP3   OH238473   0.631   6.209  15.301 -0.4818  0.3328  0.0939
 5661TIP3    H138474   0.651   6.126  15.345 -1.8202  0.2356  0.5780
 5661TIP3    H238475   0.537   6.202  15.279 -0.5049  1.5426 -0.2520
 5662TIP3   OH238476   4.233   4.553   5.127  0.2415 -0.1188 -0.3551
 5662TIP3    H138477   4.167   4.498   5.083  1.4003 -2.3502  0.5513
 5662TIP3    H238478   4.289   4.584   5.055  2.2600 -3.9169 -0.6894
 5663TIP3   OH238479   0.256   3.596  12.718  0.4363 -0.1106  0.2356
 5663TIP3    H138480   0.330   3.542  12.691  1.9600  1.8887  0.2271
 5663TIP3    H238481   0.276   3.683  12.686 -0.8010  1.0034  2.2373
 5664TIP3   OH238482   1.672   4.209  12.359 -0.0483 -0.0036  0.1143
 5664TIP3    H138483   1.758   4.183  12.325  0.0070 -0.0165  0.2638
 5664TIP3    H238484   1.691   4.276  12.424 -0.2072  0.5307 -0.3900
 5665TIP3   OH238485   2.683   1.279  16.257  0.0662 -0.1858  0.0430
 5665TIP3    H138486   2.648   1.233  16.181  0.9986  0.6675 -0.9495
 5665TIP3    H238487   2.632   1.359  16.263 -1.9037 -1.4802  2.0814
 5666TIP3   OH238488   2.185   6.283  10.976 -0.1655 -0.1468 -0.7227
 5666TIP3    H138489   2.146   6.274  10.889 -0.4452 -2.4878 -0.4114
 5666TIP3    H238490   2.126   6.235  11.034  1.4955 -1.0548  0.2889
 5667TIP3   OH238491   3.058   6.396   4.759  0.7290  0.0967 -0.5760
 5667TIP3    H138492   3.117   6.406   4.685  3.0672 -0.0879  1.1264
 5667TIP3    H238493   3.062   6.481   4.804  1.6784 -0.6586  0.8656
 5668TIP3   OH238494   1.825   0.797  14.061 -0.3800  0.2812 -0.1286
 5668TIP3    H138495   1.833   0.827  13.970 -1.9451  0.6873 -0.1656
 5668TIP3    H238496   1.904   0.830  14.104  0.3208  0.1973 -1.3076
 5669TIP3   OH238497   1.406   4.374   5.014  0.2848  0.1731 -0.0046
 5669TIP3    H138498   1.401   4.279   5.003 -2.0361  0.1204  1.0538
 5669TIP3    H238499   1.464   4.403   4.944  0.3740 -1.9243 -0.8633
 5670TIP3   OH238500   1.235   0.474  14.484 -0.4459 -0.6516  0.0089
 5670TIP3    H138501   1.163   0.444  14.428  0.4390 -2.0959 -0.3969
 5670TIP3    H238502   1.298   0.514  14.424 -1.8024  2.6758  0.5758
 5671TIP3   OH238503   6.245   1.100  12.256  0.2339 -0.2772  0.0648
 5671TIP3    H138504   6.261   1.180  12.305 -0.5854 -0.2053  0.2289
 5671TIP3    H238505   6.204   1.041  12.319 -1.5824  0.0962 -0.6848
 5672TIP3   OH238506   5.623   3.256   3.750  0.5534 -0.2486 -0.2335
 5672TIP3    H138507   5.588   3.341   3.778  1.9576  0.6954 -1.1907
 5672TIP3    H238508   5.552   3.218   3.697 -0.3235  0.0310  0.7091
 5673TIP3   OH238509   1.863   3.604   6.462  0.2230  0.0219  0.2326
 5673TIP3    H138510   1.887   3.598   6.369 -1.8625  2.1926 -0.5518
 5673TIP3    H238511   1.908   3.530   6.503 -0.1957 -2.1333 -2.8065
 5674TIP3   OH238512   1.103   4.049   5.204  0.3638 -0.4130 -0.0347
 5674TIP3    H138513   1.023   3.998   5.216  0.9293 -1.2843  0.0643
 5674TIP3    H238514   1.128   4.076   5.293 -0.0712  0.2700 -0.1094
 5675TIP3   OH238515   1.426   6.452  13.726 -0.7275  0.0074  0.5268
 5675TIP3    H138516   1.382   6.369  13.705 -0.7104 -0.2165  1.3318
 5675TIP3    H238517   1.496   6.460  13.662 -0.3742 -0.8859  0.7953
 5676TIP3   OH238518   4.213   5.845   5.578  0.2823 -0.0162 -0.6647
 5676TIP3    H138519   4.219   5.754   5.548  1.4771 -0.0921 -0.2548
 5676TIP3    H238520   4.221   5.897   5.498 -1.5660 -0.2555 -1.0512
 5677TIP3   OH238521   0.859   4.118   0.394  0.3308  0.0670 -0.2585
 5677TIP3    H138522   0.816   4.059   0.456  2.6881 -0.0537  1.3809
 5677TIP3    H238523   0.889   4.061   0.324 -1.6956  0.0976 -1.2203
 5678TIP3   OH238524   4.239   6.383  16.507  0.2817 -0.2431 -0.1874
 5678TIP3    H138525   4.276   6.379  16.595 -0.6334  1.2312  0.2923
 5678TIP3    H238526   4.311   6.417  16.453  0.1063  1.1952  0.4604
 5679TIP3   OH238527   5.757   5.006   6.094  0.1068  0.2370 -0.0303
 5679TIP3    H138528   5.840   5.001   6.140 -0.0583 -0.1168  0.2313
 5679TIP3    H238529   5.756   4.928   6.038 -0.0276  0.2621 -0.0642
 5680TIP3   OH238530   5.619   2.733   0.841 -0.5957 -0.2547  0.8234
 5680TIP3    H138531   5.549   2.754   0.778  0.9020  0.4126 -0.6950
 5680TIP3    H238532   5.642   2.817   0.880  2.0617  0.3396 -1.6865
 5681TIP3   OH238533   5.504   6.414  16.001 -0.3258 -0.2758  0.0603
 5681TIP3    H138534   5.502   6.507  16.022 -1.9607 -0.1316 -0.5766
 5681TIP3    H238535   5.555   6.374  16.071 -0.9715  0.8785  1.2133
 5682TIP3   OH238536   1.824   3.920  10.364 -0.3789  0.2112 -0.1024
 5682TIP3    H138537   1.828   3.881  10.451 -0.8969  1.5051  0.5244
 5682TIP3    H238538   1.814   3.846  10.304 -4.4027 -0.5423  1.2453
 5683TIP3   OH238539   5.064   6.454  16.028  0.4639  0.0902  0.2890
 5683TIP3    H138540   5.030   6.543  16.021 -0.3609  0.0169  2.6127
 5683TIP3    H238541   5.079   6.427  15.937  0.2894  2.4069 -0.4832
 5684TIP3   OH238542   3.008   0.799   3.374 -0.3315 -0.6201 -0.1053
 5684TIP3    H138543   3.027   0.819   3.466  1.3257 -1.9502 -0.1122
 5684TIP3    H238544   3.014   0.703   3.369 -1.2125 -0.6280 -1.4444
 5685TIP3   OH238545   4.258   0.313  15.034 -0.0765 -0.5970 -0.2113
 5685TIP3    H138546   4.172   0.345  15.009 -0.7344 -0.8610  1.5505
 5685TIP3    H238547   4.299   0.387  15.079  0.1447 -0.8455  0.0024
 5686TIP3   OH238548   6.428   4.479   3.934  0.2836  0.8439  0.2088
 5686TIP3    H138549   6.353   4.461   3.878  0.1545 -0.3234  0.7203
 5686TIP3    H238550   6.500   4.493   3.874 -0.2399  1.4960 -0.2770
 5687TIP3   OH238551   0.409   3.806  15.672  0.2625  0.2328 -0.2107
 5687TIP3    H138552   0.420   3.754  15.592 -2.0988 -2.2329  0.9338
 5687TIP3    H238553   0.456   3.757  15.739  0.2461  1.0348  0.3983
 5688TIP3   OH238554   1.781   3.210  12.835 -0.0138 -0.6028  0.1882
 5688TIP3    H138555   1.802   3.240  12.746  0.8703 -0.6619  0.3635
 5688TIP3    H238556   1.822   3.275  12.892  0.2369 -1.0750  0.5528
 5689TIP3   OH238557   4.171   5.481   6.832  0.7762  0.2625 -0.4600
 5689TIP3    H138558   4.120   5.426   6.774  1.3730 -0.6626 -0.1266
 5689TIP3    H238559   4.109   5.508   6.900  0.7193 -0.8798 -0.0350
 5690TIP3   OH238560   1.976   1.686   3.471 -0.0077 -0.0710  0.4095
 5690TIP3    H138561   1.966   1.710   3.563  1.8596 -0.6779  0.8007
 5690TIP3    H238562   1.905   1.625   3.455  0.6723 -1.3480  1.9733
 5691TIP3   OH238563   5.771   3.111  12.321  0.4077  0.2974  0.3454
 5691TIP3    H138564   5.835   3.171  12.360  0.3220  0.4308  0.2795
 5691TIP3    H238565   5.812   3.025  12.329  1.0470  0.4939 -0.6017
 5692TIP3   OH238566   4.143   1.196  14.534  0.7880  0.0464  0.5464
 5692TIP3    H138567   4.122   1.287  14.558  0.1009 -0.4543  1.9655
 5692TIP3    H238568   4.238   1.190  14.548  0.6878  0.2887  1.4040
 5693TIP3   OH238569   5.510   0.758   5.639  0.4944  0.2627  0.1252
 5693TIP3    H138570   5.598   0.784   5.611  0.9288 -1.1441  0.1374
 5693TIP3    H238571   5.489   0.819   5.710  0.8768  1.4950 -0.7774
 5694TIP3   OH238572   6.034   3.133  13.438 -0.2756  0.2382  0.0442
 5694TIP3    H138573   6.081   3.198  13.490 -1.0449  0.0227  1.0598
 5694TIP3    H238574   6.103   3.077  13.401  0.4833  2.3356 -1.9264
 5695TIP3   OH238575   6.686   6.443   2.991  0.5523 -0.2105  0.0781
 5695TIP3    H138576   6.774   6.480   2.989  0.5083  0.2685  2.8892
 5695TIP3    H238577   6.644   6.484   3.067 -1.5214 -1.6873 -0.1687
 5696TIP3   OH238578   3.891   3.753  16.439  0.0923 -0.3177 -0.1558
 5696TIP3    H138579   3.980   3.722  16.456  0.1814 -1.1098 -1.9507
 5696TIP3    H238580   3.900   3.848  16.432  1.1861 -0.5208 -2.2738
 5697TIP3   OH238581   6.786   1.303  14.977 -0.5649 -0.8564 -0.2964
 5697TIP3    H138582   6.710   1.350  15.009 -1.3167 -2.3852  0.2940
 5697TIP3    H238583   6.758   1.211  14.975  0.3536 -1.1676 -2.7097
 5698TIP3   OH238584   1.483   2.544  15.693 -0.1471 -0.0138  1.0784
 5698TIP3    H138585   1.462   2.608  15.625 -0.5907 -0.1305  1.0991
 5698TIP3    H238586   1.488   2.596  15.774  0.9539  0.2103  0.8732
 5699TIP3   OH238587   4.829   4.557   1.274 -0.1262  0.0018  0.1343
 5699TIP3    H138588   4.920   4.552   1.303  0.3724  0.8892 -1.1617
 5699TIP3    H238589   4.795   4.636   1.315  0.2487  0.6497 -0.7566
 5700TIP3   OH238590   0.398   3.121   1.873 -0.0143 -0.4482  0.4760
 5700TIP3    H138591   0.400   3.037   1.921  0.2829 -0.3769  0.5942
 5700TIP3    H238592   0.430   3.099   1.786 -0.2801 -0.5248  0.3979
 5701TIP3   OH238593   2.887   0.409   3.234  0.7757 -0.1448  0.0433
 5701TIP3    H138594   2.977   0.380   3.242  1.2939  1.1665 -0.7513
 5701TIP3    H238595   2.841   0.336   3.193  1.6362 -0.5638 -0.1852
 5702TIP3   OH238596   3.470   5.361   4.981 -0.0019 -0.1492  0.3094
 5702TIP3    H138597   3.527   5.437   4.973  0.3255 -0.5537 -1.9423
 5702TIP3    H238598   3.395   5.381   4.925 -0.3784 -1.0795  0.4664
 5703TIP3   OH238599   1.187   5.760   1.657  0.3975  0.5932 -0.1182
 5703TIP3    H138600   1.164   5.834   1.713  0.9279  1.0988 -0.5657
 5703TIP3    H238601   1.195   5.797   1.569  2.0400  0.2777 -0.1243
 5704TIP3   OH238602   1.599   2.605  11.479  0.4801 -0.2869 -0.2108
 5704TIP3    H138603   1.535   2.658  11.432 -0.7716 -0.4346  1.2140
 5704TIP3    H238604   1.637   2.548  11.412  0.8679  1.4342 -1.5143
 5705TIP3   OH238605   0.164   5.748  13.844  0.0418  0.0493 -0.8622
 5705TIP3    H138606   0.133   5.756  13.935  0.2410  0.4149 -0.8228
 5705TIP3    H238607   0.253   5.715  13.852  0.3673  0.9033 -0.8815
 5706TIP3   OH238608   4.847   6.709  12.068 -0.1650 -0.3216 -0.5227
 5706TIP3    H138609   4.781   6.738  12.006 -0.5296 -1.0669 -0.4938
 5706TIP3    H238610   4.814   6.737  12.153  1.2046  2.3414 -0.7609
 5707TIP3   OH238611   3.681   6.460   0.501 -0.6298 -0.6829 -0.3046
 5707TIP3    H138612   3.591   6.429   0.499 -1.0674  0.5231  0.0111
 5707TIP3    H238613   3.714   6.434   0.587 -0.8019 -0.7845 -0.2687
 5708TIP3   OH238614   0.262   3.390   1.319 -0.0078  0.4269  0.2280
 5708TIP3    H138615   0.305   3.383   1.233  0.5057 -0.2546  0.5324
 5708TIP3    H238616   0.288   3.476   1.352 -0.8010  1.0075 -0.6058
 5709TIP3   OH238617   4.160   4.809  13.016  0.3575 -0.2533 -0.0725
 5709TIP3    H138618   4.188   4.802  12.925  0.9382  1.5499 -0.0701
 5709TIP3    H238619   4.151   4.718  13.046  0.3534 -0.8695 -1.8454
 5710TIP3   OH238620   5.179   1.644  11.383 -0.0204  0.1329  0.3696
 5710TIP3    H138621   5.145   1.691  11.307  1.2231 -0.1510 -0.3825
 5710TIP3    H238622   5.112   1.579  11.403  0.4396 -1.0576 -1.6856
 5711TIP3   OH238623   3.328   1.139  13.138  0.4530 -0.2466  0.4115
 5711TIP3    H138624   3.402   1.167  13.084 -0.1857 -0.9343 -0.8591
 5711TIP3    H238625   3.337   1.044  13.144 -1.3041 -0.5775 -1.3169
 5712TIP3   OH238626   4.974   3.209  11.799  0.1078  0.0121  0.7575
 5712TIP3    H138627   4.915   3.135  11.786  0.6183 -0.0392 -2.0301
 5712TIP3    H238628   5.055   3.171  11.832  0.0941 -0.5832  0.1232
 5713TIP3   OH238629   4.307   2.187   0.668 -0.0403  0.1916  0.3460
 5713TIP3    H138630   4.293   2.213   0.759 -0.8654 -0.5902  0.4584
 5713TIP3    H238631   4.357   2.106   0.673  1.0086  0.7966  0.0477
 5714TIP3   OH238632   3.557   4.079   2.168 -0.2194 -0.0870 -0.4560
 5714TIP3    H138633   3.586   3.999   2.125 -0.2129 -1.2132  1.5591
 5714TIP3    H238634   3.474   4.056   2.209 -0.0444  0.8282  0.4596
 5715TIP3   OH238635   6.785   4.018   6.444 -0.0386 -0.8226  0.3835
 5715TIP3    H138636   6.821   3.944   6.492 -0.5071  1.1007  3.9791
 5715TIP3    H238637   6.852   4.085   6.448 -1.2024  0.3561  0.9236
 5716TIP3   OH238638   2.221   2.730  13.686 -0.1506  0.4954  0.1418
 5716TIP3    H138639   2.309   2.762  13.667 -0.8757  1.6679 -1.5433
 5716TIP3    H238640   2.221   2.640  13.654 -0.2555  1.3010 -2.3641
 5717TIP3   OH238641   0.988   5.981   6.291  0.5775 -0.3165  0.3126
 5717TIP3    H138642   1.009   5.892   6.263 -0.5608 -0.5191  0.0566
 5717TIP3    H238643   0.993   6.033   6.210  0.9930 -0.1883  0.4175
 5718TIP3   OH238644   2.154   1.631  16.091  0.0860  0.3515  0.3978
 5718TIP3    H138645   2.187   1.667  16.009  0.9256 -0.9306  0.1543
 5718TIP3    H238646   2.146   1.537  16.075  2.2351 -0.2514  2.4019
 5719TIP3   OH238647   6.638   2.636  14.100 -0.0746 -0.3251 -0.4058
 5719TIP3    H138648   6.624   2.546  14.071 -1.6769 -0.2624  0.0811
 5719TIP3    H238649   6.715   2.631  14.157  1.0134 -1.0290 -1.8642
 5720TIP3   OH238650   6.297   3.389  11.903  0.3474 -0.1772  0.4600
 5720TIP3    H138651   6.361   3.332  11.945 -1.0584 -0.9542  1.6141
 5720TIP3    H238652   6.308   3.371  11.809  0.9812 -1.2091  0.7084
 5721TIP3   OH238653   5.757   4.620  16.709 -0.0548 -0.3052 -0.7128
 5721TIP3    H138654   5.693   4.584  16.648  0.5980  0.1566 -1.7055
 5721TIP3    H238655   5.787   4.701  16.667 -0.0723  0.3852  0.5445
 5722TIP3   OH238656   0.096   2.103   1.108  0.0433 -0.3269  0.2253
 5722TIP3    H138657   0.054   2.018   1.096 -0.6658  0.0075  0.2573
 5722TIP3    H238658   0.097   2.117   1.202 -1.1217  0.3069  0.1626
 5723TIP3   OH238659   4.293   0.017   4.041 -0.0492  0.8869 -0.0684
 5723TIP3    H138660   4.366   0.009   3.979 -0.8275  1.0367 -1.0158
 5723TIP3    H238661   4.282  -0.072   4.075  0.0960  0.7028 -0.4852
 5724TIP3   OH238662   3.794   3.192   4.084 -0.1917 -0.0235  0.1472
 5724TIP3    H138663   3.712   3.243   4.079 -0.1598  0.4346  2.9710
 5724TIP3    H238664   3.859   3.255   4.116  0.9735 -0.7549 -0.6993
 5725TIP3   OH238665   4.524   3.337   5.687  0.0894  0.1608  0.2088
 5725TIP3    H138666   4.432   3.311   5.678  0.6351 -1.8194  0.0300
 5725TIP3    H238667   4.537   3.348   5.781  0.2350 -1.9426  0.4850
 5726TIP3   OH238668   0.743   1.154   0.366 -0.2736  0.4267  0.0740
 5726TIP3    H138669   0.746   1.082   0.429 -2.1250 -0.2968 -0.6030
 5726TIP3    H238670   0.816   1.211   0.391 -0.0511 -0.6055  1.9287
 5727TIP3   OH238671   4.775   4.797   1.388 -0.0782 -0.3815  0.1391
 5727TIP3    H138672   4.815   4.877   1.354 -2.0227  0.0467 -1.3310
 5727TIP3    H238673   4.758   4.816   1.480  1.4153  0.0647  0.3487
 5728TIP3   OH238674   5.206   2.872   4.231  0.0051  0.1705  0.5190
 5728TIP3    H138675   5.171   2.919   4.307  0.3744 -3.0202  2.9055
 5728TIP3    H238676   5.161   2.788   4.233  1.6691 -0.8438 -1.4795
 5729TIP3   OH238677   2.497   6.410   2.427 -0.6915 -0.3558  0.1899
 5729TIP3    H138678   2.587   6.394   2.455 -0.5813 -0.7234 -0.3604
 5729TIP3    H238679   2.445   6.395   2.506 -0.3799 -1.3625  0.2210
 5730TIP3   OH238680   0.363   6.060   3.141 -0.3033  0.2583  0.1553
 5730TIP3    H138681   0.335   6.102   3.060 -1.5554 -2.0371 -0.7110
 5730TIP3    H238682   0.282   6.032   3.183  0.4057  0.0516  1.4391
 5731TIP3   OH238683   1.047   2.257   1.581  0.7423 -0.1971  0.7960
 5731TIP3    H138684   0.985   2.215   1.640 -1.3683 -0.1067 -1.2513
 5731TIP3    H238685   1.064   2.191   1.513 -0.3155  1.1847 -0.8563
 5732TIP3   OH238686   1.980   4.336  16.908  0.3264 -0.2843 -0.0147
 5732TIP3    H138687   1.934   4.335  16.824 -0.0563  1.4678  0.1387
 5732TIP3    H238688   2.003   4.244  16.924 -1.1531 -0.8951 -1.1639
 5733TIP3   OH238689   2.715   6.153   1.841  0.2432  0.0492  0.6925
 5733TIP3    H138690   2.777   6.080   1.832  0.2422  0.1350 -0.0733
 5733TIP3    H238691   2.761   6.216   1.897  0.3320 -0.4355  1.1771
 5734TIP3   OH238692   3.923   2.311  15.494  0.1016 -0.1663  0.5317
 5734TIP3    H138693   3.942   2.389  15.443 -0.4916 -1.6482 -2.1655
 5734TIP3    H238694   3.859   2.340  15.559 -1.9059  1.2221 -1.8768
 5735TIP3   OH238695   1.833   3.847   3.527  0.4520  0.5110 -0.0456
 5735TIP3    H138696   1.798   3.838   3.615  0.6584  0.5710  0.0435
 5735TIP3    H238697   1.796   3.774   3.478 -1.2323  1.5782 -0.4222
 5736TIP3   OH238698   3.189   1.058   1.335 -0.0626  0.3465  0.3222
 5736TIP3    H138699   3.216   1.112   1.410  2.4939  0.7459 -0.7629
 5736TIP3    H238700   3.218   0.970   1.358 -3.4169 -0.5584  1.6885
 5737TIP3   OH238701   0.586   1.637  12.934 -0.0833  0.5029  0.3403
 5737TIP3    H138702   0.517   1.693  12.899 -0.9046 -0.6608  0.0121
 5737TIP3    H238703   0.649   1.697  12.974 -0.0274  1.7629 -1.5335
 5738TIP3   OH238704   5.831   5.929   4.745  0.0898 -0.6219 -0.4773
 5738TIP3    H138705   5.805   5.978   4.823  0.2083  0.3526 -1.0343
 5738TIP3    H238706   5.926   5.941   4.739  0.4833 -2.7204  0.5705
 5739TIP3   OH238707   0.771   0.500   1.686  0.1658  0.2014 -0.1704
 5739TIP3    H138708   0.788   0.406   1.681  1.6562  0.4529 -0.2077
 5739TIP3    H238709   0.757   0.516   1.780 -2.8177 -0.4512 -0.4042
 5740TIP3   OH238710   0.975   2.387   0.748  0.1140 -0.1711  0.1494
 5740TIP3    H138711   0.999   2.339   0.669  1.1366  0.2507  0.1902
 5740TIP3    H238712   0.922   2.460   0.717  1.9633  1.0085 -0.3585
 5741TIP3   OH238713   6.604   4.256  14.583  0.0553 -0.8542  0.4117
 5741TIP3    H138714   6.520   4.294  14.559 -0.9331 -3.1614 -0.0461
 5741TIP3    H238715   6.620   4.286  14.673 -0.0267  1.5299 -0.2917
 5742TIP3   OH238716   5.617   5.250  11.279  0.4200 -0.0663 -0.1144
 5742TIP3    H138717   5.631   5.343  11.260  0.8388 -0.0631  0.2067
 5742TIP3    H238718   5.633   5.242  11.373  2.3481 -0.8166 -0.4626
 5743TIP3   OH238719   6.212   4.939   2.057  0.3142 -0.0039  0.6716
 5743TIP3    H138720   6.195   4.981   1.972 -0.5514 -1.0585  0.3071
 5743TIP3    H238721   6.234   4.848   2.035 -0.1661 -0.3510  1.5905
 5744TIP3   OH238722   2.565   3.853   1.907  0.0244  0.0567 -0.0645
 5744TIP3    H138723   2.541   3.945   1.920  0.1161  0.2054 -0.9081
 5744TIP3    H238724   2.548   3.836   1.815 -0.3811 -0.9005  0.1778
 5745TIP3   OH238725   3.048   2.724   5.297  0.8695  0.2460  0.3439
 5745TIP3    H138726   3.134   2.762   5.281  0.7357  1.0722  1.4810
 5745TIP3    H238727   3.060   2.671   5.376  0.2105  0.8404  0.8522
 5746TIP3   OH238728   0.462   1.069  14.237  0.0721  0.3382  0.5860
 5746TIP3    H138729   0.555   1.050  14.250  0.1729  1.0619  0.9720
 5746TIP3    H238730   0.459   1.164  14.225 -0.3610  0.0900 -1.7303
 5747TIP3   OH238731   4.309   6.533   6.275 -0.4325 -0.1776 -0.6949
 5747TIP3    H138732   4.396   6.518   6.237  1.1428  0.7368  2.2565
 5747TIP3    H238733   4.315   6.497   6.364 -2.9670  0.3056 -0.2511
 5748TIP3   OH238734   5.077   1.632   2.251 -0.0066 -0.5544 -0.4026
 5748TIP3    H138735   5.058   1.597   2.163  0.8861  0.4519 -1.0190
 5748TIP3    H238736   5.171   1.649   2.250 -0.4929  2.7452 -0.5265
 5749TIP3   OH238737   2.586   5.480   2.698 -0.2423 -0.2473 -0.2046
 5749TIP3    H138738   2.663   5.469   2.642 -1.8389  2.5673 -3.3768
 5749TIP3    H238739   2.531   5.404   2.678  0.5244 -0.8342 -0.0972
 5750TIP3   OH238740   1.521   1.727   0.134  0.3340  0.0332  0.2412
 5750TIP3    H138741   1.519   1.764   0.223  1.7339  1.5665 -0.3137
 5750TIP3    H238742   1.470   1.790   0.082  0.7403 -0.0857 -0.3015
 5751TIP3   OH238743   1.988   2.868  11.678  0.2158  0.0953 -0.1071
 5751TIP3    H138744   1.937   2.796  11.640 -1.5765 -0.1668  2.5593
 5751TIP3    H238745   1.934   2.946  11.665  0.7173  0.4303 -0.2188
 5752TIP3   OH238746   1.928   6.319   1.710 -0.4176  0.3641  0.3772
 5752TIP3    H138747   1.981   6.264   1.654  2.2875  1.3666  1.7708
 5752TIP3    H238748   1.988   6.388   1.741 -1.9956  0.5316  3.5094
 5753TIP3   OH238749   2.673   5.827   4.209  0.6448 -0.0494 -0.2434
 5753TIP3    H138750   2.655   5.734   4.226  1.3054 -0.2797 -0.7748
 5753TIP3    H238751   2.700   5.862   4.294  0.9947 -0.4889 -0.1679
 5754TIP3   OH238752   3.974   1.944   1.042 -0.1971  0.0762 -0.1968
 5754TIP3    H138753   3.882   1.930   1.020  0.5560  0.7336 -5.0401
 5754TIP3    H238754   4.018   1.864   1.014  0.8025 -0.2787  2.1579
 5755TIP3   OH238755   6.608   4.530   2.381 -0.3130 -0.6092  0.4335
 5755TIP3    H138756   6.673   4.562   2.318  0.6303  0.8712  2.0399
 5755TIP3    H238757   6.530   4.583   2.364 -1.1538 -2.3603 -1.4736
 5756TIP3   OH238758   4.333   2.519  14.783  0.2334 -0.0527 -0.1267
 5756TIP3    H138759   4.411   2.565  14.812  1.7500 -2.8650  0.5612
 5756TIP3    H238760   4.363   2.464  14.711 -0.6625 -2.4496  1.2368
 5757TIP3   OH238761   6.356   2.810   3.032  1.1625  0.4228  0.1040
 5757TIP3    H138762   6.379   2.719   3.013  1.7046  0.6614 -0.4048
 5757TIP3    H238763   6.361   2.817   3.128  1.3059 -0.0317  0.1309
 5758TIP3   OH238764   5.582   2.189  15.598  0.1734 -0.2926 -0.8008
 5758TIP3    H138765   5.669   2.177  15.637  0.0877  2.5476  0.5155
 5758TIP3    H238766   5.596   2.249  15.525 -0.8682  1.9382  0.7327
 5759TIP3   OH238767   0.047   4.735  12.650  0.1784 -0.0351  0.0521
 5759TIP3    H138768   0.013   4.648  12.672  2.0254 -1.0521 -0.8869
 5759TIP3    H238769   0.109   4.755  12.721 -0.0036  0.3821  0.0962
 5760TIP3   OH238770   0.128   1.786   3.172  0.0688  0.7052 -0.7030
 5760TIP3    H138771   0.094   1.718   3.230  1.0558  1.6534  1.0865
 5760TIP3    H238772   0.186   1.838   3.227  1.4795  1.3801 -2.6900
 5761TIP3   OH238773   0.988   3.888  10.846  0.5445 -0.7629  0.8485
 5761TIP3    H138774   0.937   3.867  10.924 -1.9336 -0.7750 -0.6469
 5761TIP3    H238775   0.971   3.815  10.786 -0.0840  0.6183 -0.7497
 5762TIP3   OH238776   5.255   0.303  12.201  0.1913  0.4228 -0.4397
 5762TIP3    H138777   5.235   0.370  12.136  2.7561  1.5340 -0.1811
 5762TIP3    H238778   5.349   0.312  12.217  0.3870 -2.4559  0.5137
 5763TIP3   OH238779   6.597   0.852   2.942 -0.2107 -0.3892  0.1076
 5763TIP3    H138780   6.616   0.941   2.973 -0.7981 -0.3758  0.4490
 5763TIP3    H238781   6.517   0.828   2.988 -0.7794 -0.6006 -0.9736
 5764TIP3   OH238782   3.888   0.806  14.339 -0.2228 -0.1062 -0.2132
 5764TIP3    H138783   3.943   0.861  14.282 -0.8821 -0.2815 -1.0388
 5764TIP3    H238784   3.805   0.798  14.292 -0.0272 -2.1382 -0.3215
 5765TIP3   OH238785   5.142   3.088   3.267 -0.4634 -0.0922  0.0201
 5765TIP3    H138786   5.067   3.048   3.311  0.2554 -0.5132  0.9040
 5765TIP3    H238787   5.219   3.051   3.312  0.2649  0.5989 -0.6218
 5766TIP3   OH238788   3.602   4.069   4.473  0.2523 -0.6658 -0.4269
 5766TIP3    H138789   3.663   4.010   4.428 -1.5370 -2.3048 -0.7962
 5766TIP3    H238790   3.645   4.088   4.556  1.5372 -1.2827 -0.9123
 5767TIP3   OH238791   3.496   1.080   4.460 -0.4826 -0.4481 -0.5844
 5767TIP3    H138792   3.441   1.052   4.533  0.2497 -1.5442 -0.4281
 5767TIP3    H238793   3.512   1.000   4.410  1.5797 -0.3261 -0.1971
 5768TIP3   OH238794   1.979   0.239  14.003  0.5520  0.0408  0.3068
 5768TIP3    H138795   1.901   0.246  14.058  0.6612 -0.4027  0.5210
 5768TIP3    H238796   1.961   0.296  13.928  0.1901  0.2519  0.5531
 5769TIP3   OH238797   0.871   3.200   2.540  0.3789 -0.4102  0.5603
 5769TIP3    H138798   0.906   3.127   2.489  1.0953  1.4580 -1.8122
 5769TIP3    H238799   0.948   3.243   2.577  0.0799 -0.0427  0.7704
 5770TIP3   OH238800   6.155   3.986  12.931 -0.2431 -0.1086  0.3375
 5770TIP3    H138801   6.077   4.001  12.985 -0.1187 -0.1729  0.5361
 5770TIP3    H238802   6.228   3.991  12.993 -0.1460 -0.8920  0.2991
 5771TIP3   OH238803   5.032   6.409   3.521 -0.3728 -0.1502  0.3151
 5771TIP3    H138804   5.039   6.407   3.616  0.3349 -1.1421  0.2568
 5771TIP3    H238805   5.017   6.317   3.496 -1.4767  0.2216 -0.4728
 5772TIP3   OH238806   1.619   4.466   2.117  0.2461 -0.3612  0.4676
 5772TIP3    H138807   1.597   4.389   2.169  2.1107 -1.7081 -0.6011
 5772TIP3    H238808   1.597   4.441   2.027  0.2286  0.6128  0.1913
 5773TIP3   OH238809   6.270   2.514   3.491  0.0969 -0.2020 -0.3041
 5773TIP3    H138810   6.251   2.428   3.528 -0.9966 -0.6138 -1.7276
 5773TIP3    H238811   6.189   2.564   3.505  0.4573  0.3432 -0.1559
 5774TIP3   OH238812   0.630   0.332  15.353  0.2224 -0.4239  0.1565
 5774TIP3    H138813   0.643   0.265  15.420  0.6171 -0.3171  0.1883
 5774TIP3    H238814   0.661   0.290  15.272 -1.0967 -0.8822 -0.1339
 5775TIP3   OH238815   5.785   0.755   3.355 -0.2348 -0.5286 -0.2129
 5775TIP3    H138816   5.771   0.842   3.318  1.2543 -0.2560 -0.2150
 5775TIP3    H238817   5.826   0.705   3.285  1.5159 -0.3599  0.6212
 5776TIP3   OH238818   3.276   6.416  15.535 -0.0291 -0.1450  0.2026
 5776TIP3    H138819   3.330   6.337  15.530 -2.2901 -1.7269 -1.3186
 5776TIP3    H238820   3.229   6.418  15.452 -0.2196  2.7433  0.2775
 5777TIP3   OH238821   6.579   4.550   4.681 -0.1971 -0.5106  0.0125
 5777TIP3    H138822   6.532   4.618   4.634  2.2004  0.5961 -0.9709
 5777TIP3    H238823   6.548   4.468   4.643 -1.8626  0.0807  0.0033
 5778TIP3   OH238824   5.157   5.222   2.865  0.0444  0.2630  0.3316
 5778TIP3    H138825   5.199   5.137   2.849  1.0646  0.5789  1.2114
 5778TIP3    H238826   5.124   5.215   2.954  2.1333  1.5364  1.2808
 5779TIP3   OH238827   2.004   2.879   1.662  0.2915  0.4765  0.2137
 5779TIP3    H138828   2.085   2.914   1.626  0.8294  0.8147  1.6838
 5779TIP3    H238829   2.026   2.853   1.751 -1.4367  1.4779  0.9922
 5780TIP3   OH238830   1.844   3.072   5.121 -0.1564 -0.1926  0.1612
 5780TIP3    H138831   1.799   3.114   5.048 -0.0212  1.3723  0.9319
 5780TIP3    H238832   1.931   3.050   5.087 -0.0603  0.6107 -0.1294
 5781TIP3   OH238833   4.979   3.835   5.964  0.5466  0.2387  0.2678
 5781TIP3    H138834   5.000   3.903   6.028 -1.2088  1.5015 -0.4084
 5781TIP3    H238835   4.938   3.765   6.015  2.5330 -0.4682  0.9957
 5782TIP3   OH238836   4.993   4.027   5.099 -0.3766 -0.1658  0.3151
 5782TIP3    H138837   4.989   4.073   5.183 -2.5645 -0.3497  0.3704
 5782TIP3    H238838   4.955   3.941   5.117  2.0598 -1.4496 -0.1798
 5783TIP3   OH238839   6.685   3.444   0.529 -0.4154  0.2450  0.2079
 5783TIP3    H138840   6.764   3.482   0.567 -1.0677  2.2237 -0.2769
 5783TIP3    H238841   6.628   3.428   0.603  0.2779 -0.9121  0.5294
 5784TIP3   OH238842   4.467   6.220  11.250 -0.0817  0.3110 -0.6654
 5784TIP3    H138843   4.478   6.125  11.251  1.5784  0.4779 -1.3603
 5784TIP3    H238844   4.381   6.233  11.209 -0.7509 -0.8952  0.2803
 5785TIP3   OH238845   3.582   1.746  10.846 -0.5129 -0.2012  0.2205
 5785TIP3    H138846   3.544   1.834  10.843 -0.0736  0.0716  1.7808
 5785TIP3    H238847   3.585   1.718  10.755 -1.1511  1.1909 -0.2512
 5786TIP3   OH238848   3.002   3.797  14.246  0.2418  0.2903 -0.1639
 5786TIP3    H138849   2.927   3.849  14.217 -0.0124  0.2057  0.3176
 5786TIP3    H238850   3.072   3.861  14.259  0.4128  0.3020 -1.1223
 5787TIP3   OH238851   6.404   6.561  16.895  0.1873 -0.2895  0.7842
 5787TIP3    H138852   6.381   6.576  16.804  1.8061 -1.3996  0.1495
 5787TIP3    H238853   6.482   6.615  16.910 -1.1926  1.4610  2.1459
 5788TIP3   OH238854   0.601   1.714   4.252  0.8140 -0.3006  0.1766
 5788TIP3    H138855   0.544   1.643   4.222 -0.7339  1.2278 -0.6912
 5788TIP3    H238856   0.662   1.728   4.180 -0.8285  1.1958 -1.0315
 5789TIP3   OH238857   1.112   2.690  15.359 -0.5117  0.4923  0.1219
 5789TIP3    H138858   1.034   2.738  15.385 -0.9490 -0.5312  0.7739
 5789TIP3    H238859   1.152   2.663  15.442 -0.0922  0.0285 -0.2256
 5790TIP3   OH238860   0.890   1.736  16.334  0.0419  0.1075  0.4062
 5790TIP3    H138861   0.897   1.777  16.420  2.3577 -0.6634  0.6433
 5790TIP3    H238862   0.803   1.762  16.302 -0.0659  2.0556  2.1031
 5791TIP3   OH238863   1.522   4.781  14.367 -0.4150  0.3251 -0.0848
 5791TIP3    H138864   1.575   4.781  14.287 -0.2357 -0.9693  0.0138
 5791TIP3    H238865   1.525   4.690  14.398 -0.2149  0.8529  1.5693
 5792TIP3   OH238866   1.632   6.258  13.847 -0.5199 -0.2877 -0.1408
 5792TIP3    H138867   1.602   6.171  13.874  0.4463 -0.3500  0.7816
 5792TIP3    H238868   1.595   6.317  13.913  0.4735 -0.2413  0.3828
 5793TIP3   OH238869   1.727   5.006   0.327 -0.1532  0.2984 -0.4139
 5793TIP3    H138870   1.717   4.913   0.347  1.0490  0.5116  1.3613
 5793TIP3    H238871   1.655   5.049   0.374  0.4636  0.4368  0.4249
 5794TIP3   OH238872   3.671   2.537  13.292 -0.2475  0.7201 -0.3752
 5794TIP3    H138873   3.720   2.615  13.265  0.3989  0.2804 -0.5058
 5794TIP3    H238874   3.666   2.484  13.213 -0.4343  0.4973 -0.2134
 5795TIP3   OH238875   4.238   5.461  15.189  0.3964 -0.0021 -0.3570
 5795TIP3    H138876   4.324   5.475  15.150 -0.2561  1.9353 -1.2430
 5795TIP3    H238877   4.242   5.373  15.226  2.6666 -0.0484 -0.5790
 5796TIP3   OH238878   4.434   1.827  10.761 -0.2019  0.2146 -0.4367
 5796TIP3    H138879   4.370   1.757  10.759 -0.4352  0.4247 -0.3668
 5796TIP3    H238880   4.505   1.794  10.816 -0.5356  0.2261 -0.0009
 5797TIP3   OH238881   2.395   5.031  15.250  0.2086 -0.2652  0.0890
 5797TIP3    H138882   2.359   5.012  15.337  1.0438 -1.5403  0.1899
 5797TIP3    H238883   2.318   5.053  15.197 -0.6570 -1.9834  0.5305
 5798TIP3   OH238884   4.945   3.810   0.120  0.0243 -0.3016  0.2621
 5798TIP3    H138885   4.898   3.800   0.202  0.3880 -3.6692  0.1876
 5798TIP3    H238886   5.035   3.833   0.147 -0.1529 -0.1081  0.7051
 5799TIP3   OH238887   6.437   3.884  14.440  0.1741  0.7139 -0.1530
 5799TIP3    H138888   6.360   3.841  14.401  1.2948 -0.0553 -1.6155
 5799TIP3    H238889   6.405   3.919  14.523 -1.6123 -0.0934 -0.4482
 5800TIP3   OH238890   4.518   4.385  13.485 -0.4788 -0.3890  0.2295
 5800TIP3    H138891   4.499   4.373  13.578 -0.5225 -0.8831  0.1631
 5800TIP3    H238892   4.583   4.317  13.466 -0.4964 -0.3111 -0.1103
 5801TIP3   OH238893   6.106   1.100   2.852  0.5838  0.5268 -0.0766
 5801TIP3    H138894   6.014   1.104   2.880  0.0940 -0.8324 -1.3216
 5801TIP3    H238895   6.103   1.125   2.759  1.6078  1.2498  0.0691
 5802TIP3   OH238896   5.467   3.264   2.113 -0.5250 -0.2433 -0.0725
 5802TIP3    H138897   5.534   3.262   2.182 -0.3237 -0.4151 -0.2742
 5802TIP3    H238898   5.447   3.357   2.102 -0.1077 -0.1699 -0.2179
 5803TIP3   OH238899   1.389   0.573  15.347  0.0463 -0.0996  0.4457
 5803TIP3    H138900   1.329   0.540  15.280  2.0178 -1.0620 -0.9470
 5803TIP3    H238901   1.414   0.660  15.316 -0.2284  0.0891  0.7519
 5804TIP3   OH238902   2.682   5.566  14.815  0.1183 -0.2938 -0.2439
 5804TIP3    H138903   2.687   5.648  14.864  0.4058 -0.6148  0.2797
 5804TIP3    H238904   2.589   5.552  14.800 -0.0036 -0.3837  0.5588
 5805TIP3   OH238905   5.455   3.901   3.705  0.4195  0.0124  0.3501
 5805TIP3    H138906   5.366   3.865   3.701  0.7938 -0.8616 -0.4844
 5805TIP3    H238907   5.477   3.900   3.798  0.9759 -3.4693  0.3113
 5806TIP3   OH238908   1.626   5.348  16.552  0.2960 -0.8235  0.2395
 5806TIP3    H138909   1.538   5.331  16.519  0.0958 -0.1920  0.4319
 5806TIP3    H238910   1.618   5.342  16.648  0.0554  0.9258  0.3768
 5807TIP3   OH238911   3.153   1.952   2.414 -0.4271 -0.6721  0.3341
 5807TIP3    H138912   3.160   1.859   2.437 -0.8649 -1.4210 -2.2555
 5807TIP3    H238913   3.162   1.954   2.319 -1.2137  1.8751  0.2429
 5808TIP3   OH238914   4.316   6.691  13.102  0.0223 -0.4682 -0.2376
 5808TIP3    H138915   4.397   6.699  13.154 -0.1355 -0.6525  0.0420
 5808TIP3    H238916   4.251   6.741  13.152 -0.2587 -1.0843  0.0163
 5809TIP3   OH238917   4.176   5.712  15.342  0.5854  0.1679 -0.4654
 5809TIP3    H138918   4.212   5.641  15.289  0.4135 -0.3233  0.0665
 5809TIP3    H238919   4.208   5.792  15.299  1.8310 -0.2383 -0.3577
 5810TIP3   OH238920   4.930   4.108   3.848 -0.1783  0.1897  0.1611
 5810TIP3    H138921   4.857   4.132   3.790  1.2986 -1.5956 -2.6912
 5810TIP3    H238922   5.001   4.167   3.821  0.0841  0.4623  1.3989
 5811TIP3   OH238923   6.632   0.123  14.197  0.3045  0.1670 -0.0309
 5811TIP3    H138924   6.682   0.052  14.157  1.4195  1.0796 -0.3025
 5811TIP3    H238925   6.576   0.155  14.127  0.8367  0.4748 -0.3267
 5812TIP3   OH238926   5.642   2.737   2.418  0.6258 -0.3168  0.5496
 5812TIP3    H138927   5.672   2.782   2.497  1.0004  0.9073 -0.2607
 5812TIP3    H238928   5.554   2.706   2.439  0.8143 -0.2142  1.5199
 5813TIP3   OH238929   2.648   3.891   5.290  0.5001  0.6926  0.0506
 5813TIP3    H138930   2.676   3.959   5.228 -0.6295  1.1144 -0.0308
 5813TIP3    H238931   2.552   3.893   5.285  0.3825  0.6254  1.6819
 5814TIP3   OH238932   1.728   3.608   4.148 -0.0841 -0.3157 -0.1306
 5814TIP3    H138933   1.811   3.641   4.181  0.1600 -0.7787 -0.2691
 5814TIP3    H238934   1.693   3.556   4.221 -0.1456 -0.3004 -0.1492
 5815TIP3   OH238935   0.868   1.552   1.169 -0.3724 -0.1112 -0.4698
 5815TIP3    H138936   0.917   1.618   1.120 -0.8497  0.0373 -0.7573
 5815TIP3    H238937   0.794   1.600   1.206 -0.2897 -0.3270 -0.0197
 5816TIP3   OH238938   0.417   0.142  17.027 -0.5935  0.5920  0.1275
 5816TIP3    H138939   0.479   0.072  17.009 -1.0002  0.2732 -0.0502
 5816TIP3    H238940   0.448   0.182  17.109 -1.2026 -0.7603  1.0551
 5817TIP3   OH238941   3.492   6.840  16.304 -0.1377 -0.5629 -0.6604
 5817TIP3    H138942   3.436   6.776  16.259 -0.2435 -1.0835  0.1843
 5817TIP3    H238943   3.432   6.910  16.330 -0.1668 -0.5124 -0.8566
 5818TIP3   OH238944   5.205   6.088  13.258  0.6113 -0.0612  0.1551
 5818TIP3    H138945   5.215   6.179  13.232  1.5124  0.1541  1.2028
 5818TIP3    H238946   5.138   6.090  13.326  0.8147 -0.1456  0.3577
 5819TIP3   OH238947   1.671   5.233   3.016 -0.1994 -0.2315 -0.1675
 5819TIP3    H138948   1.650   5.168   2.950  0.6283  0.4529 -1.1417
 5819TIP3    H238949   1.729   5.295   2.971 -1.2085  1.3485  0.6291
 5820TIP3   OH238950   4.157   2.379   2.457  0.3357  0.2681  0.0615
 5820TIP3    H138951   4.233   2.329   2.426  0.0099  0.6858 -1.5067
 5820TIP3    H238952   4.084   2.318   2.453  0.6952 -0.4255  2.4948
 5821TIP3   OH238953   2.702   2.255   0.259 -0.1549  0.3482  0.2535
 5821TIP3    H138954   2.618   2.215   0.282 -0.4794 -0.2929 -1.8229
 5821TIP3    H238955   2.678   2.337   0.217  0.2753  0.2815 -0.1208
 5822TIP3   OH238956   1.984   4.189  16.052  0.3430  0.3815  0.4638
 5822TIP3    H138957   1.982   4.116  16.114 -0.4339  1.1473  1.3483
 5822TIP3    H238958   2.047   4.251  16.089 -1.2713  1.5650  1.3593
 5823TIP3   OH238959   0.060   5.046   2.227  0.4391  0.8666 -0.6191
 5823TIP3    H138960   0.048   5.079   2.137  1.8340 -0.3336 -1.2768
 5823TIP3    H238961   0.040   4.953   2.221  0.3674  0.8085  0.3816
 5824TIP3   OH238962   0.122   6.126   0.464  0.9323  0.0772  0.0694
 5824TIP3    H138963   0.182   6.189   0.422  1.1391 -0.3806 -0.3287
 5824TIP3    H238964   0.080   6.176   0.534  1.4555  0.5285  0.0673
 5825TIP3   OH238965   0.690   2.748  14.274  0.2202  0.0699  0.4969
 5825TIP3    H138966   0.730   2.835  14.275 -0.0479  0.2096 -0.1431
 5825TIP3    H238967   0.616   2.755  14.335 -0.0864  0.4400  0.0924
 5826TIP3   OH238968   0.833   6.087  15.604  0.1467 -0.0766 -0.2203
 5826TIP3    H138969   0.786   6.039  15.537 -0.3867  0.6983 -0.4180
 5826TIP3    H238970   0.924   6.059  15.595 -0.1528 -1.0811 -0.2811
 5827TIP3   OH238971   0.870   2.359   6.053  0.0902  0.7487  0.4535
 5827TIP3    H138972   0.789   2.367   6.003  0.6770  1.7657 -0.3654
 5827TIP3    H238973   0.841   2.337   6.142 -0.9130 -2.2797 -0.5100
 5828TIP3   OH238974   1.838   1.264   1.371 -0.0886  0.3990  0.0382
 5828TIP3    H138975   1.869   1.253   1.281 -0.1205  0.6970 -0.0121
 5828TIP3    H238976   1.901   1.216   1.424 -0.0068  0.3138 -0.1345
 5829TIP3   OH238977   4.213   4.915  16.482 -0.0961 -0.8580 -0.2397
 5829TIP3    H138978   4.143   4.958  16.432 -0.5445 -0.2978  0.8388
 5829TIP3    H238979   4.235   4.838  16.430 -0.9499 -0.5996 -1.0174
 5830TIP3   OH238980   1.909   2.128   6.653 -0.5499  0.7793  0.2284
 5830TIP3    H138981   1.975   2.067   6.621  0.6190  2.2088 -0.2207
 5830TIP3    H238982   1.841   2.127   6.586 -0.3199  0.3325 -0.0063
 5831TIP3   OH238983   5.363   3.608  11.667  0.3362 -0.2198  0.2803
 5831TIP3    H138984   5.339   3.689  11.713 -1.6248 -0.6223  0.0534
 5831TIP3    H238985   5.375   3.634  11.576 -3.4064 -0.5297 -0.4840
 5832TIP3   OH238986   2.033   1.498  16.492  0.5397  0.4300  0.6498
 5832TIP3    H138987   1.962   1.560  16.510 -0.3265 -0.7348  1.3421
 5832TIP3    H238988   2.043   1.448  16.573 -0.6183 -2.1312 -0.6839
 5833TIP3   OH238989   2.848   2.439  16.351  0.3117  0.7307 -0.6265
 5833TIP3    H138990   2.842   2.415  16.258  0.1223 -1.2350 -0.1520
 5833TIP3    H238991   2.928   2.396  16.381  0.5354  1.6160  0.0616
 5834TIP3   OH238992   2.895   3.890   3.598  0.3384  0.1126  0.0797
 5834TIP3    H138993   2.870   3.835   3.523 -1.1698  0.6411  0.1611
 5834TIP3    H238994   2.951   3.958   3.560 -0.6475  0.5459 -0.6344
 5835TIP3   OH238995   6.767   4.358  16.543 -0.4552 -0.0185 -0.4996
 5835TIP3    H138996   6.790   4.294  16.611 -0.4127  2.3005  1.8399
 5835TIP3    H238997   6.846   4.410  16.531 -1.0742  0.8673 -0.8458
 5836TIP3   OH238998   2.100   6.679  17.065  0.1886 -0.0640  0.0167
 5836TIP3    H138999   2.127   6.636  17.146 -0.2431  0.3855  0.4049
 5836TIP3    H239000   2.112   6.772  17.082 -1.5010  0.1557  0.1929
 5837TIP3   OH239001   2.412   0.955  14.151  0.1492 -0.7808  0.1107
 5837TIP3    H139002   2.405   0.866  14.117 -0.1462 -0.4461 -0.7137
 5837TIP3    H239003   2.328   0.972  14.193 -0.2455 -0.4697 -0.7805
 5838TIP3   OH239004   3.686   5.491  16.695 -0.3427 -0.2163 -0.5991
 5838TIP3    H139005   3.658   5.412  16.741 -0.4455 -0.7837 -1.5998
 5838TIP3    H239006   3.738   5.540  16.759 -1.3844 -0.4415  0.4554
 5839TIP3   OH239007   0.003   0.962  10.246  0.0670 -0.3797 -0.1785
 5839TIP3    H139008   0.088   0.921  10.261 -0.5028 -1.1876  0.9888
 5839TIP3    H239009  -0.044   0.899  10.191 -0.2617 -0.5849  0.3327
 5840TIP3   OH239010   4.208   4.311  12.687 -0.2905 -0.3482  0.2832
 5840TIP3    H139011   4.258   4.282  12.611  1.0243  1.5247  0.3730
 5840TIP3    H239012   4.146   4.376  12.652  2.2786  2.7506  1.0588
 5841TIP3   OH239013   5.369   1.582  17.063 -0.2290 -0.0451 -0.0641
 5841TIP3    H139014   5.429   1.637  17.014 -0.2201  0.4487  0.4856
 5841TIP3    H239015   5.299   1.561  17.001 -0.0988  0.3713 -0.3497
 5842TIP3   OH239016   6.512   1.084  11.506  0.4774 -0.8414  0.0560
 5842TIP3    H139017   6.418   1.068  11.512  0.5187 -0.9259  0.4836
 5842TIP3    H239018   6.523   1.176  11.528  0.3043 -0.3276 -1.8246
 5843TIP3   OH239019   5.695   2.863  15.186  0.0399 -0.0941 -0.2701
 5843TIP3    H139020   5.615   2.862  15.239 -0.8088 -0.6927 -1.4891
 5843TIP3    H239021   5.704   2.773  15.155  1.2803 -0.0602 -0.0372
 5844TIP3   OH239022   2.360   3.548  12.164  0.0234  0.2148 -0.1804
 5844TIP3    H139023   2.379   3.602  12.087  1.2500  0.1469  0.0549
 5844TIP3    H239024   2.439   3.554  12.217 -0.5384 -0.3208  0.7375
 5845TIP3   OH239025   1.408   5.285  16.190 -0.6823 -0.0800  0.0954
 5845TIP3    H139026   1.432   5.291  16.283  2.7282 -1.5716 -0.5602
 5845TIP3    H239027   1.332   5.227  16.190 -0.4956 -0.4044  1.9355
 5846TIP3   OH239028   0.796   6.752   1.453  0.1735  0.3320 -0.9599
 5846TIP3    H139029   0.755   6.667   1.438  1.2200 -0.7767  1.6950
 5846TIP3    H239030   0.743   6.793   1.521  0.3788  1.2979 -1.3575
 5847TIP3   OH239031   4.654   6.693   2.495 -0.1632 -0.1146  0.1978
 5847TIP3    H139032   4.712   6.766   2.518 -0.3013 -0.5065  1.9570
 5847TIP3    H239033   4.605   6.725   2.419  1.1960  0.8307 -0.3383
 5848TIP3   OH239034   1.407   5.861   4.310 -0.2203  0.3501 -0.1974
 5848TIP3    H139035   1.360   5.879   4.392  0.4404 -1.1169  0.5480
 5848TIP3    H239036   1.434   5.770   4.318  1.9916  0.8898 -1.0070
 5849TIP3   OH239037   1.388   0.552   5.250  0.1252  0.4806  0.5495
 5849TIP3    H139038   1.311   0.522   5.202 -0.7006  0.3913  1.8744
 5849TIP3    H239039   1.391   0.497   5.328  0.7801  1.3317  1.1447
 5850TIP3   OH239040   3.351   1.619   0.441 -0.3317  0.2336  0.5723
 5850TIP3    H139041   3.386   1.542   0.397 -0.6040  0.4755 -0.0876
 5850TIP3    H239042   3.260   1.596   0.460 -0.6751  0.7056 -0.4259
 5851TIP3   OH239043   1.462   0.994   1.910  0.2470 -0.0789 -0.2974
 5851TIP3    H139044   1.556   1.010   1.920  0.0662  0.1897  1.4822
 5851TIP3    H239045   1.454   0.899   1.903  0.6654 -0.0863 -0.7149
 5852TIP3   OH239046   0.595   4.127   3.126 -0.1995 -0.5374  0.0689
 5852TIP3    H139047   0.563   4.158   3.211 -1.4945  0.6353 -0.7928
 5852TIP3    H239048   0.652   4.053   3.147 -3.1234 -2.5322  1.7971
 5853TIP3   OH239049   6.339   5.907   2.961 -0.1813  0.0935 -0.0554
 5853TIP3    H139050   6.341   5.896   2.866  0.9826  4.6339 -0.7939
 5853TIP3    H239051   6.431   5.915   2.987 -0.5233 -0.0817  1.3017
 5854TIP3   OH239052   0.346   4.278  11.409  0.2090 -0.3880  0.2109
 5854TIP3    H139053   0.261   4.310  11.439 -0.1510 -0.8655 -0.2654
 5854TIP3    H239054   0.330   4.251  11.318  1.5537  2.2085 -0.8825
 5855TIP3   OH239055   6.448   0.396   5.042  0.1686  0.1764  0.0712
 5855TIP3    H139056   6.459   0.480   4.998  0.1956 -0.5016 -1.2856
 5855TIP3    H239057   6.497   0.334   4.988  0.1789 -0.7055  1.0649
 5856TIP3   OH239058   0.664   2.833   4.541 -0.0088  0.4569  0.7018
 5856TIP3    H139059   0.656   2.924   4.511 -2.1996 -0.1700 -0.8087
 5856TIP3    H239060   0.746   2.803   4.502  0.1950  1.4641  0.3132
 5857TIP3   OH239061   0.659   2.916   5.763  0.5060 -0.5345  0.2351
 5857TIP3    H139062   0.686   2.973   5.691 -0.3863  0.3147  0.5354
 5857TIP3    H239063   0.678   2.966   5.842  0.1734 -0.8562  0.5269
 5858TIP3   OH239064   4.212   0.689   6.339  0.1869 -0.2585  0.3783
 5858TIP3    H139065   4.136   0.632   6.331  0.4641 -0.4382 -1.3871
 5858TIP3    H239066   4.264   0.651   6.410 -0.5706 -1.0705  0.5137
 5859TIP3   OH239067   2.129   1.373   4.509 -0.3821 -0.0917 -0.0994
 5859TIP3    H139068   2.211   1.337   4.543  0.9909  2.9178  0.0816
 5859TIP3    H239069   2.072   1.382   4.586 -0.2058 -0.4708  0.0781
 5860TIP3   OH239070   3.440   4.482  13.821  0.6500 -0.4432 -0.7017
 5860TIP3    H139071   3.474   4.477  13.910 -0.3166  0.9380 -0.2184
 5860TIP3    H239072   3.353   4.443  13.826 -0.1958  1.3557 -0.5596
 5861TIP3   OH239073   4.255   3.729   2.714 -0.8246 -0.5592  0.2784
 5861TIP3    H139074   4.207   3.775   2.646 -0.7783 -0.3567  0.3808
 5861TIP3    H239075   4.187   3.688   2.768 -0.8850 -0.2780  0.4196
 5862TIP3   OH239076   4.145   6.050  14.539  0.0764 -0.1410 -0.0795
 5862TIP3    H139077   4.059   6.040  14.500  0.6380 -1.2245 -1.0957
 5862TIP3    H239078   4.194   6.103  14.477  0.1604  0.4314  0.4703
 5863TIP3   OH239079   1.334   1.140   1.673  0.3096 -0.0456  0.4039
 5863TIP3    H139080   1.345   1.095   1.589  0.1166 -0.4394  0.5850
 5863TIP3    H239081   1.361   1.075   1.739 -2.9434 -1.1029  0.8878
 5864TIP3   OH239082   3.630   4.342   1.203 -0.4312 -0.3863  0.6990
 5864TIP3    H139083   3.586   4.264   1.237 -0.6692 -0.3473  0.4827
 5864TIP3    H239084   3.573   4.373   1.133 -0.2839 -0.0762  0.7165
 5865TIP3   OH239085   0.327   1.252  13.195  0.3954 -0.6468 -0.1889
 5865TIP3    H139086   0.247   1.204  13.174 -0.3467  0.5450 -0.1890
 5865TIP3    H239087   0.395   1.185  13.197 -0.6115 -1.7060 -0.1027
 5866TIP3   OH239088   5.008   6.168   3.364 -0.4107 -0.4685 -0.3139
 5866TIP3    H139089   4.983   6.124   3.283 -0.3424 -2.5755  0.7393
 5866TIP3    H239090   5.075   6.111   3.403 -0.4303  0.4834  1.2070
 5867TIP3   OH239091   5.685   3.316   4.083  0.1214  0.8324  0.7893
 5867TIP3    H139092   5.686   3.265   4.164 -0.3876  0.0085  0.2868
 5867TIP3    H239093   5.619   3.383   4.097 -1.7868 -0.8194  0.1802
 5868TIP3   OH239094   5.156   1.645  10.963 -0.1444 -0.3834  0.4754
 5868TIP3    H139095   5.078   1.659  10.910  0.0699 -0.3768  0.1587
 5868TIP3    H239096   5.215   1.717  10.939 -0.3913  0.1389  1.3824
 5869TIP3   OH239097   3.891   1.639   4.840 -0.0812 -0.0912 -0.0769
 5869TIP3    H139098   3.807   1.675   4.809 -0.0702  1.3629  1.4116
 5869TIP3    H239099   3.875   1.617   4.932  0.4883 -2.2211 -0.4360
 5870TIP3   OH239100   3.267   5.455   6.444  0.6969  0.3452  0.0851
 5870TIP3    H139101   3.230   5.404   6.516  0.0398  0.1602 -0.3724
 5870TIP3    H239102   3.320   5.522   6.487  0.2848  0.2615  0.7440
 5871TIP3   OH239103   2.689   6.619   4.005  0.1390  0.1324  0.3316
 5871TIP3    H139104   2.665   6.678   4.076  2.6509  0.1378  1.2486
 5871TIP3    H239105   2.691   6.532   4.045  0.4889 -0.0108  0.0105
 5872TIP3   OH239106   2.895   2.819   2.654  0.7011  0.2831  0.5767
 5872TIP3    H139107   2.845   2.891   2.692  0.8830 -0.2457  1.8673
 5872TIP3    H239108   2.971   2.862   2.614 -0.0047  0.9466 -0.0973
 5873TIP3   OH239109   0.805   3.864  12.114 -0.1556 -0.4240  0.0568
 5873TIP3    H139110   0.822   3.815  12.034 -0.0835 -0.5028  0.1198
 5873TIP3    H239111   0.808   3.798  12.184 -1.3396 -0.5547  0.0058
 5874TIP3   OH239112   2.455   2.637  11.921 -0.3858  0.0086  0.1463
 5874TIP3    H139113   2.449   2.548  11.886  0.2960  0.0907 -0.1926
 5874TIP3    H239114   2.548   2.650  11.940 -0.7091  0.0206  1.9043
 5875TIP3   OH239115   5.800   5.681   4.586 -0.2268 -0.4727 -0.2295
 5875TIP3    H139116   5.827   5.773   4.586 -0.6625 -0.2776 -2.6653
 5875TIP3    H239117   5.882   5.632   4.589 -0.0043 -0.0768  1.7290
 5876TIP3   OH239118   2.553   0.407  13.198 -0.3351 -0.5771  0.3484
 5876TIP3    H139119   2.459   0.425  13.206 -0.5462 -1.6285  0.4039
 5876TIP3    H239120   2.587   0.419  13.286 -0.7184 -1.7596  0.6701
 5877TIP3   OH239121   5.349   3.786  13.155  0.1303  0.0695  0.4176
 5877TIP3    H139122   5.408   3.726  13.202 -2.1850 -2.1135  0.7377
 5877TIP3    H239123   5.324   3.852  13.220  0.6065 -0.1880  0.8664
 5878TIP3   OH239124   5.389   2.397  13.843 -0.3922 -0.1121  0.0214
 5878TIP3    H139125   5.327   2.340  13.889  1.6748 -0.9480  1.9726
 5878TIP3    H239126   5.403   2.470  13.903  1.4263 -0.5853  0.2321
 5879TIP3   OH239127   2.103   4.200   4.188 -0.1741 -0.1461  0.3235
 5879TIP3    H139128   2.141   4.269   4.243 -0.1244 -0.0223  0.1356
 5879TIP3    H239129   2.017   4.184   4.226 -0.8015  1.0702 -0.5200
 5880TIP3   OH239130   3.661   5.351  16.346 -0.1145 -0.4810  0.3279
 5880TIP3    H139131   3.579   5.337  16.300 -0.1153  1.1283 -0.2241
 5880TIP3    H239132   3.666   5.279  16.410 -0.8482 -1.8628 -1.1087
 5881TIP3   OH239133   3.225   5.584  15.884 -0.1742  0.0139 -0.1617
 5881TIP3    H139134   3.208   5.490  15.886 -0.8870  0.1402  0.1519
 5881TIP3    H239135   3.207   5.614  15.973 -1.1877  0.6378 -0.5474
 5882TIP3   OH239136   4.898   3.095  14.836  0.2341 -0.4546  0.1805
 5882TIP3    H139137   4.849   3.154  14.894  0.1204  0.5319 -0.8875
 5882TIP3    H239138   4.947   3.038  14.896  1.5294  1.6799  1.2794
 5883TIP3   OH239139   4.687   1.976   3.930  0.1106 -0.3224  0.4571
 5883TIP3    H139140   4.638   2.018   3.859  0.3373  0.5128  0.7781
 5883TIP3    H239141   4.643   1.893   3.944 -0.9806  0.2436  0.4788
 5884TIP3   OH239142   3.959   5.914  15.647 -0.1904  0.1261 -0.6056
 5884TIP3    H139143   3.881   5.948  15.690 -0.2160 -0.9400  0.2494
 5884TIP3    H239144   4.023   5.904  15.718  0.4500  0.2351 -1.1626
 5885TIP3   OH239145   1.758   3.677   5.620  0.0825  0.0696 -0.1091
 5885TIP3    H139146   1.842   3.646   5.655  0.3776  0.5208 -0.4099
 5885TIP3    H239147   1.721   3.601   5.576  0.0046 -0.3298  0.6277
 5886TIP3   OH239148   2.861   0.749   0.056 -0.2315 -0.1637  0.5225
 5886TIP3    H139149   2.833   0.829   0.012 -2.5729 -0.7696  0.7196
 5886TIP3    H239150   2.909   0.700  -0.010 -0.0227  0.7845 -0.0362
 5887TIP3   OH239151   0.162   2.091  13.494  0.2675 -0.4993 -0.1967
 5887TIP3    H139152   0.255   2.107  13.480  0.1656 -0.3288 -0.6778
 5887TIP3    H239153   0.160   2.022  13.561  0.7200  0.4924  0.8906
 5888TIP3   OH239154   1.702   2.015   4.577 -0.1446  0.2891 -0.8928
 5888TIP3    H139155   1.756   2.004   4.499 -0.4694 -1.1058 -0.9405
 5888TIP3    H239156   1.762   1.996   4.650  0.1973  1.7305 -0.7583
 5889TIP3   OH239157   1.793   4.680   4.281 -0.0724 -0.6445  0.4537
 5889TIP3    H139158   1.750   4.698   4.365  0.7041  0.3694  0.6491
 5889TIP3    H239159   1.722   4.682   4.217 -0.4449  0.2329  0.8732
 5890TIP3   OH239160   5.178   2.006  11.761 -0.0596 -0.2005 -0.6387
 5890TIP3    H139161   5.160   1.928  11.708 -0.4821 -0.6009  0.0712
 5890TIP3    H239162   5.133   1.989  11.844  2.9394 -0.9011  0.9801
 5891TIP3   OH239163   1.225   1.014   4.710 -0.2187  0.0938 -0.3764
 5891TIP3    H139164   1.293   0.963   4.665 -0.7322 -1.8351  0.9282
 5891TIP3    H239165   1.252   1.105   4.698  2.9063 -0.5896  0.5104
 5892TIP3   OH239166   1.218   3.967  12.127 -0.7096  0.4978  0.2932
 5892TIP3    H139167   1.153   3.926  12.070  0.7423  1.2753 -2.0631
 5892TIP3    H239168   1.264   3.893  12.168 -1.2175 -0.1021 -0.1935
 5893TIP3   OH239169   2.780   3.748   2.058  0.3654 -0.8780  0.0767
 5893TIP3    H139170   2.698   3.777   2.016  0.7136  0.6376  0.4003
 5893TIP3    H239171   2.833   3.716   1.985  0.1892 -0.1466 -0.3854
 5894TIP3   OH239172   5.938   2.986   6.009 -0.0510  0.1481 -0.1732
 5894TIP3    H139173   5.910   2.899   6.035  0.1335 -0.0950 -0.7710
 5894TIP3    H239174   6.034   2.983   6.010 -0.0254 -0.0239 -1.3331
 5895TIP3   OH239175   4.019   5.278  11.407  0.4589  0.3423  0.5240
 5895TIP3    H139176   4.072   5.235  11.340 -0.8938 -1.3672  0.4845
 5895TIP3    H239177   4.065   5.261  11.489  1.3359  1.1739  0.2283
 5896TIP3   OH239178   3.791   5.894  11.095  0.0073  0.1850 -0.2121
 5896TIP3    H139179   3.860   5.896  11.161  0.4690  1.0055 -0.7131
 5896TIP3    H239180   3.831   5.851  11.020 -0.0531  0.5780 -0.4724
 5897TIP3   OH239181   3.612   0.501   1.532 -0.2636 -0.0770 -0.7125
 5897TIP3    H139182   3.695   0.482   1.489 -0.3969 -0.8076 -0.6484
 5897TIP3    H239183   3.546   0.490   1.464 -0.4365 -0.8515 -0.4311
 5898TIP3   OH239184   6.650   0.929  12.987 -0.2495  0.4773  0.1941
 5898TIP3    H139185   6.569   0.898  12.947  0.2285 -0.9073  0.2296
 5898TIP3    H239186   6.717   0.915  12.920  0.5551 -1.8309  1.3701
 5899TIP3   OH239187   2.126   0.981   3.785 -0.2762 -0.4414 -0.4716
 5899TIP3    H139188   2.053   0.936   3.743 -1.6788 -0.3968  1.7897
 5899TIP3    H239189   2.198   0.973   3.722 -1.4528 -2.7772 -1.6410
 5900TIP3   OH239190   5.699   5.565   3.612 -0.1837  0.1729 -0.7667
 5900TIP3    H139191   5.726   5.649   3.649 -2.1461  0.1846  0.8332
 5900TIP3    H239192   5.638   5.588   3.542 -1.5803  0.1480  0.3847
 5901TIP3   OH239193   0.654   3.340  12.509 -0.0107 -0.2001  0.0179
 5901TIP3    H139194   0.614   3.347  12.423  1.3587 -0.3365 -0.6565
 5901TIP3    H239195   0.740   3.381  12.499 -0.7970  2.1740  1.9944
 5902TIP3   OH239196   1.546   5.859   4.930 -0.1091 -0.2841 -0.6975
 5902TIP3    H139197   1.486   5.804   4.880  0.3205 -1.2106 -0.2099
 5902TIP3    H239198   1.542   5.944   4.886 -1.8269 -0.2980 -0.6219
 5903TIP3   OH239199   1.541   3.585  13.057 -0.6697  0.1604 -0.7655
 5903TIP3    H139200   1.619   3.529  13.048  0.0040  0.4305  2.2452
 5903TIP3    H239201   1.469   3.523  13.072 -0.0198 -0.0424  1.9919
 5904TIP3   OH239202   3.518   1.119  16.762  0.1315 -0.7665 -0.0476
 5904TIP3    H139203   3.456   1.190  16.777 -0.8755 -0.7826 -3.4520
 5904TIP3    H239204   3.595   1.162  16.725 -0.3876 -1.3388 -1.8855
 5905TIP3   OH239205   1.660   0.088   1.259  0.7705  0.4980 -0.3294
 5905TIP3    H139206   1.685   0.012   1.311  0.4566 -0.3454 -1.3809
 5905TIP3    H239207   1.565   0.096   1.271  0.7453  0.4910 -0.5190
 5906TIP3   OH239208   5.573   4.279  12.145 -0.2597  0.6463 -0.2274
 5906TIP3    H139209   5.612   4.303  12.229  1.7427  0.7923 -1.1394
 5906TIP3    H239210   5.479   4.293  12.157 -0.0202  0.7086  1.9500
 5907TIP3   OH239211   0.514   2.403  14.302  0.5978 -0.5813 -0.1654
 5907TIP3    H139212   0.463   2.351  14.241  0.1366 -0.5426  0.1769
 5907TIP3    H239213   0.520   2.349  14.381 -0.6032  0.1902  0.4938
 5908TIP3   OH239214   3.991   1.397  12.249  0.1598  0.0628 -0.3201
 5908TIP3    H139215   4.007   1.336  12.321 -0.5296 -0.6064 -0.7233
 5908TIP3    H239216   3.905   1.373  12.215 -0.6233  1.9761  0.2013
 5909TIP3   OH239217   3.191   3.025   2.048 -0.2576 -0.2524 -0.2337
 5909TIP3    H139218   3.216   3.077   2.125  1.8796 -0.6903 -0.5654
 5909TIP3    H239219   3.124   2.965   2.080  0.5764 -0.4168  1.2889
 5910TIP3   OH239220   1.642   6.852  13.515 -0.1877 -0.2238  0.6855
 5910TIP3    H139221   1.551   6.877  13.528 -0.3470 -0.1857 -0.4590
 5910TIP3    H239222   1.639   6.771  13.464  0.4099 -0.4657  1.0151
 5911TIP3   OH239223   2.832   5.632   0.451 -0.5649  0.0397 -0.2415
 5911TIP3    H139224   2.873   5.718   0.451  0.4000 -0.4086  0.1919
 5911TIP3    H239225   2.825   5.608   0.543  2.5659 -1.8846 -0.3821
 5912TIP3   OH239226   0.834   4.807  12.754  0.2245  0.1031  0.1948
 5912TIP3    H139227   0.763   4.750  12.725  0.9981 -1.0694  0.5388
 5912TIP3    H239228   0.809   4.894  12.722 -0.8826 -0.4511 -0.5233
 5913TIP3   OH239229   6.283   5.482   6.338  0.0580 -0.3161  0.1066
 5913TIP3    H139230   6.372   5.512   6.357 -0.4533  0.6597  1.0804
 5913TIP3    H239231   6.230   5.516   6.410 -1.1606 -0.6410 -0.6027
 5914TIP3   OH239232   1.898   6.837   2.222 -0.3409 -0.3174 -0.3550
 5914TIP3    H139233   1.846   6.757   2.215  0.2293 -0.5643 -2.1032
 5914TIP3    H239234   1.985   6.807   2.248 -0.3165 -0.1899 -0.2884
 5915TIP3   OH239235   5.883   0.410   5.976  0.4040 -0.5162  0.2308
 5915TIP3    H139236   5.830   0.331   5.975 -0.0431 -0.2220  0.3313
 5915TIP3    H239237   5.910   0.420   6.068  0.0812 -0.3017  0.3018
 5916TIP3   OH239238   3.549   6.377   1.351 -0.2551 -0.2528 -0.0605
 5916TIP3    H139239   3.478   6.433   1.319 -1.0304 -0.5476  1.1098
 5916TIP3    H239240   3.511   6.290   1.356  0.9849 -0.9962 -2.0219
 5917TIP3   OH239241   6.084   3.436  14.805 -0.5440  0.3800  0.2050
 5917TIP3    H139242   6.081   3.424  14.710 -0.0099 -0.3745  0.2746
 5917TIP3    H239243   5.994   3.418  14.833 -0.6672  0.4385 -0.1450
 5918TIP3   OH239244   0.119   0.382  16.576 -0.6448  0.5317 -0.0943
 5918TIP3    H139245   0.056   0.323  16.618  0.5078 -3.1224 -2.9554
 5918TIP3    H239246   0.072   0.418  16.501 -0.0293 -0.3908 -0.9363
 5919TIP3   OH239247   3.151   0.467  12.231 -0.5430 -0.0374  0.2579
 5919TIP3    H139248   3.201   0.468  12.149 -1.0741 -1.0843 -0.0997
 5919TIP3    H239249   3.066   0.430  12.207 -1.1738  0.8595  1.0378
 5920TIP3   OH239250   1.416   2.404  10.363 -0.1559 -0.4968  0.4963
 5920TIP3    H139251   1.483   2.471  10.354 -0.3445 -0.3766 -0.0569
 5920TIP3    H239252   1.339   2.440  10.318 -0.2347 -1.1159  0.1077
 5921TIP3   OH239253   0.109   5.021   4.683  0.3140  0.2405 -0.5578
 5921TIP3    H139254   0.115   4.938   4.634 -2.3240 -0.5872  0.3185
 5921TIP3    H239255   0.104   5.088   4.615 -0.0088 -0.5690 -1.3599
 5922TIP3   OH239256   0.379   1.636  11.764  0.5083  0.5446 -0.4000
 5922TIP3    H139257   0.414   1.626  11.853 -1.9791  0.0137  0.6070
 5922TIP3    H239258   0.321   1.711  11.770 -0.3184 -0.0035 -1.3759
 5923TIP3   OH239259   1.916   3.849   0.752 -0.0750  0.0119  0.2981
 5923TIP3    H139260   1.904   3.866   0.659  2.8113  0.3155 -0.1100
 5923TIP3    H239261   1.920   3.754   0.759  0.2874  0.0029  0.0026
 5924TIP3   OH239262   0.865   6.760  11.284 -0.7392 -0.3074  0.0327
 5924TIP3    H139263   0.899   6.718  11.205  0.9238 -0.6342  0.8554
 5924TIP3    H239264   0.888   6.852  11.274  1.4507 -0.6758  1.0195
 5925TIP3   OH239265   4.665   4.506   2.666 -0.0778  0.1807 -0.0181
 5925TIP3    H139266   4.663   4.602   2.664  0.2105  0.1786 -0.4125
 5925TIP3    H239267   4.585   4.482   2.712 -0.0747  0.6156  0.2233
 5926TIP3   OH239268   2.112   3.370   0.900 -0.1989  0.3363  0.9348
 5926TIP3    H139269   2.170   3.374   0.976  1.2383  0.9729 -0.1703
 5926TIP3    H239270   2.112   3.458   0.865 -2.6559  0.6221  1.4540
 5927TIP3   OH239271   2.847   0.757   5.384  0.3552 -0.0100 -0.1588
 5927TIP3    H139272   2.767   0.788   5.426  0.9337 -0.4757  1.3510
 5927TIP3    H239273   2.823   0.674   5.345  0.1475 -0.2814  0.5211
 5928TIP3   OH239274   5.720   0.659   4.317 -0.3220  0.4002 -0.1834
 5928TIP3    H139275   5.701   0.685   4.227 -1.8237 -0.7875 -0.2649
 5928TIP3    H239276   5.654   0.591   4.336  0.3639  0.1837  1.5911
 5929TIP3   OH239277   1.462   3.909   5.645 -0.3565 -0.1127 -0.0119
 5929TIP3    H139278   1.433   3.976   5.583  0.7933  0.0333 -0.4078
 5929TIP3    H239279   1.472   3.830   5.593 -3.0713 -1.0438  0.6913
 5930TIP3   OH239280   3.091   0.957  10.847  0.5620 -0.3932  0.2351
 5930TIP3    H139281   3.173   0.971  10.800 -0.0374 -1.0919 -1.0888
 5930TIP3    H239282   3.024   0.955  10.778 -0.4466 -0.7676  1.1957
 5931TIP3   OH239283   4.373   5.513   3.141 -0.5049 -0.3468  0.7294
 5931TIP3    H139284   4.397   5.592   3.093  0.5809 -0.7248  0.6103
 5931TIP3    H239285   4.373   5.541   3.233  2.9326 -0.8068  1.0208
 5932TIP3   OH239286   0.817   3.490   4.539 -0.2222  0.3996  0.6033
 5932TIP3    H139287   0.837   3.559   4.476  0.5586  0.0015  0.3975
 5932TIP3    H239288   0.751   3.528   4.597 -0.8202  0.8396 -0.3330
 5933TIP3   OH239289   5.830   2.144  15.721 -0.1525  0.1163  0.0396
 5933TIP3    H139290   5.869   2.065  15.758 -0.8685 -1.8193 -2.9973
 5933TIP3    H239291   5.905   2.199  15.697  0.4983 -0.8352 -0.1582
 5934TIP3   OH239292   4.197   3.232   5.940  0.4186  0.0403 -0.2997
 5934TIP3    H139293   4.241   3.173   6.001 -2.0458  0.1761  1.7822
 5934TIP3    H239294   4.199   3.317   5.984 -3.5650 -0.3357  1.0270
 5935TIP3   OH239295   4.773   2.277   5.526 -0.9579 -0.2374 -0.2406
 5935TIP3    H139296   4.720   2.302   5.602 -1.2665 -1.2233 -0.1273
 5935TIP3    H239297   4.763   2.351   5.466 -0.8356  0.4840  0.6001
 5936TIP3   OH239298   6.673   4.566  11.394  0.0521  0.2025 -0.0131
 5936TIP3    H139299   6.684   4.605  11.307 -0.2409  4.4943  1.6408
 5936TIP3    H239300   6.756   4.583  11.438  0.4771 -2.6116  0.4241
 5937TIP3   OH239301   4.903   5.420   2.295 -1.0951  0.4170  0.2397
 5937TIP3    H139302   4.819   5.443   2.333 -0.9270  0.3208  0.6675
 5937TIP3    H239303   4.943   5.361   2.359 -0.5846  0.6810  0.1641
 5938TIP3   OH239304   5.488   5.824  17.069  0.8711 -0.3417 -0.8050
 5938TIP3    H139305   5.419   5.848  17.131  1.3692 -0.2750 -0.2774
 5938TIP3    H239306   5.503   5.904  17.018 -0.7587 -0.8648 -2.2203
 5939TIP3   OH239307   2.863   6.247  12.039 -0.2573  0.4232  0.3056
 5939TIP3    H139308   2.905   6.315  12.092  1.6665 -0.6203  0.2292
 5939TIP3    H239309   2.832   6.182  12.103  1.7374 -0.6561  0.2717
 5940TIP3   OH239310   3.118   4.811  12.047  0.3438  0.0934 -0.2621
 5940TIP3    H139311   3.111   4.886  12.105  0.9356  1.3426 -1.7534
 5940TIP3    H239312   3.030   4.774  12.044  0.2955  0.0079  1.3671
 5941TIP3   OH239313   6.320   2.719   0.803 -0.0989  0.0478 -0.0837
 5941TIP3    H139314   6.369   2.639   0.787 -0.6624 -0.3556  0.1697
 5941TIP3    H239315   6.381   2.776   0.849  0.9580  0.5397 -1.9780
 5942TIP3   OH239316   2.177   1.851   3.784 -0.3753 -0.4447 -0.0119
 5942TIP3    H139317   2.143   1.881   3.700  0.7577 -1.8146 -1.0060
 5942TIP3    H239318   2.106   1.867   3.846 -1.3857  0.2165 -1.2984
 5943TIP3   OH239319   4.517   5.143   6.802  0.0363  0.1733  0.3123
 5943TIP3    H139320   4.561   5.203   6.862 -2.1823  1.0730  1.1198
 5943TIP3    H239321   4.459   5.198   6.750 -0.0540 -0.9484 -0.8332
 5944TIP3   OH239322   3.617   6.718   3.165  0.2992  0.2166 -0.0731
 5944TIP3    H139323   3.676   6.781   3.125 -0.1267  0.2630 -0.6282
 5944TIP3    H239324   3.660   6.633   3.154  0.7309  0.3676  0.4130
 5945TIP3   OH239325   5.029   5.043   5.140 -0.1095  0.0988 -0.2019
 5945TIP3    H139326   5.124   5.049   5.146 -0.1147  1.1925 -0.9308
 5945TIP3    H239327   5.001   5.018   5.229  0.7903  0.6648  0.2542
 5946TIP3   OH239328   2.184   6.089   1.882  0.2769  0.3758  0.7521
 5946TIP3    H139329   2.204   6.179   1.908 -0.5490  1.3193 -1.6138
 5946TIP3    H239330   2.107   6.097   1.825  0.6242 -1.7594 -0.1069
 5947TIP3   OH239331   2.185   3.535  13.185  0.3195  0.1494 -0.1797
 5947TIP3    H139332   2.146   3.535  13.272  0.4622  0.9593 -0.1137
 5947TIP3    H239333   2.280   3.539  13.200  0.4218 -1.1133 -0.3530
 5948TIP3   OH239334   6.035   3.860  12.231  0.7176 -0.2693  0.3162
 5948TIP3    H139335   6.028   3.805  12.152  2.2806 -1.0566  0.6893
 5948TIP3    H239336   5.989   3.810  12.298 -2.8563  1.5446 -0.5583
 5949TIP3   OH239337   0.606   6.071   5.623 -0.3141  0.4778 -0.0633
 5949TIP3    H139338   0.547   6.113   5.560  0.3006  1.1773 -0.1848
 5949TIP3    H239339   0.554   6.065   5.703 -0.8825  0.1779 -0.4503
 5950TIP3   OH239340   6.127   6.673  13.545 -0.0019 -0.0046 -0.1227
 5950TIP3    H139341   6.181   6.599  13.515  0.1811 -0.8352  2.0637
 5950TIP3    H239342   6.169   6.750  13.508 -0.8559 -0.9665 -3.4580
 5951TIP3   OH239343   5.540   3.653  13.290  0.2032 -0.2263  0.0288
 5951TIP3    H139344   5.613   3.618  13.239 -0.1981 -1.5285  0.3125
 5951TIP3    H239345   5.558   3.627  13.380 -0.8763 -1.0786  0.0232
 5952TIP3   OH239346   2.493   6.180  16.821 -0.6050 -0.1931 -0.2880
 5952TIP3    H139347   2.576   6.138  16.796  0.0465 -0.1504  1.6553
 5952TIP3    H239348   2.444   6.186  16.739  0.7051 -1.5683 -1.2286
 5953TIP3   OH239349   5.673   2.783  12.283  0.2273 -0.8058  0.4543
 5953TIP3    H139350   5.698   2.695  12.314  1.7015 -1.0556 -1.3469
 5953TIP3    H239351   5.745   2.811  12.228 -0.2324  1.5834  0.9696
 5954TIP3   OH239352   1.385   6.220   3.898  0.2415 -0.1129  0.2718
 5954TIP3    H139353   1.321   6.155   3.869 -0.1972 -0.3199  1.6387
 5954TIP3    H239354   1.470   6.177   3.888 -0.0294 -0.8308  0.9429
 5955TIP3   OH239355   6.305   1.816  14.409  0.8794 -0.4198  0.2338
 5955TIP3    H139356   6.349   1.736  14.436  0.0289 -0.5646  1.2822
 5955TIP3    H239357   6.299   1.869  14.489  1.1451  0.5602 -0.3691
 5956TIP3   OH239358   3.414   3.007  16.089  0.3482 -0.6441 -0.6469
 5956TIP3    H139359   3.366   3.030  16.009 -2.1252  0.8083  1.1252
 5956TIP3    H239360   3.455   3.088  16.117  0.2854 -0.8765  0.1413
 5957TIP3   OH239361   1.078   5.243   0.748 -0.2409  0.3607 -0.4163
 5957TIP3    H139362   1.159   5.217   0.704 -0.7496  0.8580 -1.7053
 5957TIP3    H239363   1.040   5.161   0.780  0.0452 -0.0461 -1.0949
 5958TIP3   OH239364   2.612   2.502  14.609  0.0233 -0.1946 -0.5298
 5958TIP3    H139365   2.692   2.509  14.558 -0.1237  2.9562 -0.5245
 5958TIP3    H239366   2.551   2.562  14.566 -0.6506  1.2954  2.2457
 5959TIP3   OH239367   5.826   0.494   5.715 -0.0597  0.4547  0.8931
 5959TIP3    H139368   5.755   0.431   5.699  0.8302 -0.4073  0.1898
 5959TIP3    H239369   5.869   0.461   5.794  0.4478  0.1195  0.4866
 5960TIP3   OH239370   5.480   5.674  10.987  0.2221  0.3778 -0.6184
 5960TIP3    H139371   5.396   5.632  10.969  0.8444 -1.1564 -0.1358
 5960TIP3    H239372   5.517   5.692  10.900 -0.1772  0.1692 -0.8316
 5961TIP3   OH239373   1.808   6.196  16.785 -0.4957 -0.0193 -0.0667
 5961TIP3    H139374   1.736   6.186  16.723 -1.1270  0.6836  0.5347
 5961TIP3    H239375   1.777   6.151  16.864 -0.6809  1.0813  0.5057
 5962TIP3   OH239376   5.444   1.645  11.653 -0.6425 -0.2747 -0.2651
 5962TIP3    H139377   5.393   1.714  11.612 -3.4222 -2.2482 -0.4156
 5962TIP3    H239378   5.420   1.648  11.746 -2.1559 -1.9934 -0.5358
 5963TIP3   OH239379   4.798   6.079   3.178  0.2054 -0.3750  0.1707
 5963TIP3    H139380   4.789   5.986   3.199  1.1101 -0.6130 -0.4524
 5963TIP3    H239381   4.708   6.110   3.166 -0.1133 -1.0982  0.6428
 5964TIP3   OH239382   0.548   1.064   2.635 -0.4199 -0.2734  0.2455
 5964TIP3    H139383   0.453   1.079   2.642 -0.4087  1.4825 -2.1403
 5964TIP3    H239384   0.587   1.149   2.653  0.7753 -1.0573  1.5192
 5965TIP3   OH239385   3.128   1.530   2.865  0.2525 -0.0022 -0.0864
 5965TIP3    H139386   3.210   1.569   2.835  0.2587 -0.0184 -0.0906
 5965TIP3    H239387   3.060   1.592   2.837  0.2439 -0.1010 -0.2837
 5966TIP3   OH239388   4.417   1.568  11.191  0.2456  0.5962 -0.6238
 5966TIP3    H139389   4.477   1.493  11.188  0.8822  1.0208  0.6829
 5966TIP3    H239390   4.332   1.529  11.212  0.1650  0.0524 -1.8830
 5967TIP3   OH239391   1.113   4.240  14.948  0.1577  0.2060 -0.3838
 5967TIP3    H139392   1.023   4.260  14.974  1.0582  1.9466  1.6332
 5967TIP3    H239393   1.132   4.302  14.878 -0.0854  0.0701 -0.5742
 5968TIP3   OH239394   2.014   1.465  10.564 -0.1201 -0.0462  0.2707
 5968TIP3    H139395   2.083   1.510  10.515 -0.4126 -0.3053 -0.3866
 5968TIP3    H239396   1.938   1.469  10.507 -0.7713  0.5966  1.1641
 5969TIP3   OH239397   0.500   5.343   2.892 -0.4185 -0.1264  0.0715
 5969TIP3    H139398   0.480   5.288   2.816  0.7990  1.6353 -1.6088
 5969TIP3    H239399   0.414   5.375   2.921 -0.7552  1.0589 -2.0708
 5970TIP3   OH239400   1.786   6.528   3.970 -0.4622  0.2125  0.1135
 5970TIP3    H139401   1.812   6.482   3.890 -1.6211  1.4998 -1.0566
 5970TIP3    H239402   1.798   6.621   3.950 -0.4558  0.5507  1.5636
 5971TIP3   OH239403   1.263   5.288   2.996 -0.0970 -0.3948 -0.0957
 5971TIP3    H139404   1.298   5.320   3.079 -0.3759 -0.2754 -0.0216
 5971TIP3    H239405   1.302   5.201   2.985  1.3073  0.2724 -0.6934
 5972TIP3   OH239406   0.718   2.219   3.295 -0.5654 -0.3050  0.1005
 5972TIP3    H139407   0.704   2.274   3.372  2.7311 -0.5105  1.0219
 5972TIP3    H239408   0.752   2.278   3.228 -0.8413 -0.5602 -0.2671
 5973TIP3   OH239409   6.363   5.514   0.448  0.0061  0.1346  0.1508
 5973TIP3    H139410   6.391   5.586   0.505 -0.4595 -1.2274  2.2031
 5973TIP3    H239411   6.440   5.494   0.395  1.4569 -0.4130  2.3315
 5974TIP3   OH239412   1.310   1.651  15.342  0.5367  0.3787 -0.4032
 5974TIP3    H139413   1.356   1.613  15.417 -0.6695  1.4777  0.9490
 5974TIP3    H239414   1.314   1.583  15.275  3.2706  0.0689 -0.0428
 5975TIP3   OH239415   5.411   2.956   0.210 -0.2011  0.3620  0.0054
 5975TIP3    H139416   5.340   3.007   0.174 -0.6409 -1.1422 -1.3944
 5975TIP3    H239417   5.399   2.868   0.173  0.4932 -0.7767  2.3052
 5976TIP3   OH239418   5.817   3.715   3.269  0.2647  0.4036 -0.5239
 5976TIP3    H139419   5.799   3.776   3.197 -0.7442  0.8943  0.1217
 5976TIP3    H239420   5.775   3.755   3.345  0.3993 -0.6435  0.1148
 5977TIP3   OH239421   0.839   2.209  15.046  0.1789  0.0919 -0.1278
 5977TIP3    H139422   0.907   2.229  14.983  0.5747  0.6846  0.4804
 5977TIP3    H239423   0.884   2.203  15.130 -0.3625 -0.5259  0.1304
 5978TIP3   OH239424   0.914   3.853   5.296  0.4870  0.4815  0.6476
 5978TIP3    H139425   0.958   3.768   5.294  1.2164  0.8511  0.8828
 5978TIP3    H239426   0.944   3.894   5.377 -1.7768 -0.0261  1.8354
 5979TIP3   OH239427   4.962   2.924   2.090 -0.4495  0.5070  0.0465
 5979TIP3    H139428   5.035   2.880   2.047 -0.5212 -1.7334  2.0142
 5979TIP3    H239429   4.884   2.885   2.049 -0.5486  1.2410 -0.4791
 5980TIP3   OH239430   0.379   0.640  16.902  0.0934  0.2041  0.0733
 5980TIP3    H139431   0.358   0.609  16.814 -0.4113  0.6722  0.0228
 5980TIP3    H239432   0.409   0.730  16.890 -0.5597  0.4828  0.4271
 5981TIP3   OH239433   2.252   2.991  15.199  0.0750 -0.3715 -0.1715
 5981TIP3    H139434   2.234   3.066  15.142  0.7894  1.0737  1.3930
 5981TIP3    H239435   2.332   3.016  15.245 -1.6313 -0.4237  3.0947
 5982TIP3   OH239436   3.431   6.782   0.157  0.1375 -0.1463  0.0099
 5982TIP3    H139437   3.441   6.754   0.065 -0.1716 -0.2768  0.0129
 5982TIP3    H239438   3.360   6.726   0.190  0.5341 -0.3920  0.4478
 5983TIP3   OH239439   1.736   5.540  12.944  0.3091 -0.4884 -0.4381
 5983TIP3    H139440   1.738   5.634  12.964  1.1685 -0.5998  0.0115
 5983TIP3    H239441   1.703   5.499  13.024 -1.0624 -0.5006 -0.9737
 5984TIP3   OH239442   5.984   2.755  15.771  0.5104 -0.5576  0.4990
 5984TIP3    H139443   6.056   2.702  15.735  0.0440 -0.8108 -0.0806
 5984TIP3    H239444   6.011   2.845  15.757 -0.3334 -0.6142 -1.9667
 5985TIP3   OH239445   5.920   4.913   1.935  0.4693  0.6554 -0.0256
 5985TIP3    H139446   5.959   4.990   1.894  1.5016  0.7791  1.1161
 5985TIP3    H239447   5.969   4.839   1.899 -0.9502  0.4335 -1.6135
 5986TIP3   OH239448   4.614   5.681   1.753  0.0743 -0.6620 -0.0477
 5986TIP3    H139449   4.669   5.759   1.750  0.0083 -0.6458 -0.8043
 5986TIP3    H239450   4.534   5.706   1.707  0.4400 -1.4827 -1.1561
 5987TIP3   OH239451   4.080   1.980   6.212 -0.1469  0.5516 -0.0253
 5987TIP3    H139452   4.166   2.021   6.221  1.2494 -2.3180  1.0502
 5987TIP3    H239453   4.060   1.947   6.299 -0.6369 -1.8640 -0.9639
 5988TIP3   OH239454   6.247   1.594  15.957 -0.3784 -0.8026 -0.1655
 5988TIP3    H139455   6.197   1.520  15.991  1.6579 -2.3493 -0.3445
 5988TIP3    H239456   6.338   1.571  15.973  0.3772  1.1330 -1.3182
 5989TIP3   OH239457   0.825   2.717   2.701  0.3801 -0.2873 -0.1172
 5989TIP3    H139458   0.907   2.709   2.652  1.1128 -1.3279  1.1997
 5989TIP3    H239459   0.769   2.649   2.663 -0.3453  1.1754 -1.8008
 5990TIP3   OH239460   2.883   1.744   3.621  0.2586  0.6248 -0.1304
 5990TIP3    H139461   2.905   1.829   3.659  1.6082 -0.1932  1.0182
 5990TIP3    H239462   2.814   1.763   3.557  0.4542  2.5492  0.1809
 5991TIP3   OH239463   2.750   4.782  17.017 -0.2683  0.2415  0.2980
 5991TIP3    H139464   2.730   4.754  17.107 -2.7248 -1.8655 -0.7781
 5991TIP3    H239465   2.671   4.826  16.988 -0.8037 -1.9163 -1.8060
 5992TIP3   OH239466   4.511   0.662   5.238  0.4591 -0.2551  0.2964
 5992TIP3    H139467   4.434   0.608   5.218  0.3187 -0.8862  2.2544
 5992TIP3    H239468   4.533   0.638   5.328  1.6910  1.4564  0.4895
 5993TIP3   OH239469   6.709   2.271  10.980  0.4864 -0.1969  0.0852
 5993TIP3    H139470   6.763   2.344  10.949 -1.7433  1.5587  0.0767
 5993TIP3    H239471   6.715   2.275  11.075  0.9345 -0.4714  0.0707
 5994TIP3   OH239472   1.742   5.809   3.369 -0.3365 -0.2228 -0.0751
 5994TIP3    H139473   1.758   5.741   3.303  3.2176  0.1413  0.2286
 5994TIP3    H239474   1.777   5.773   3.450 -0.1148  1.2148  0.4993
 5995TIP3   OH239475   6.231   5.592   3.563  0.0890  0.5927 -0.1329
 5995TIP3    H139476   6.294   5.520   3.570  1.6404  1.7742 -1.1418
 5995TIP3    H239477   6.150   5.558   3.600  0.7820 -1.6505 -0.5725
 5996TIP3   OH239478   4.325   0.916   3.741 -0.0074 -0.1247  0.2203
 5996TIP3    H139479   4.348   0.853   3.809 -0.6835  2.1361  2.6867
 5996TIP3    H239480   4.337   1.002   3.782 -1.1013  1.3606 -2.3203
 5997TIP3   OH239481   6.713   4.509  13.500 -0.0600 -0.5056 -0.1197
 5997TIP3    H139482   6.620   4.491  13.510 -0.2554  0.4959 -0.0428
 5997TIP3    H239483   6.717   4.592  13.453  0.8058 -0.8067 -0.6147
 5998TIP3   OH239484   0.492   4.477  15.198  0.0398  0.5932 -0.0385
 5998TIP3    H139485   0.579   4.437  15.195  0.0967  0.6213  1.0439
 5998TIP3    H239486   0.505   4.561  15.241 -0.2370  1.4158 -1.4950
 5999TIP3   OH239487   4.752   0.718  12.118  0.1637  0.2203 -0.2804
 5999TIP3    H139488   4.800   0.760  12.189  1.2757 -0.7376 -0.4476
 5999TIP3    H239489   4.726   0.791  12.060 -0.1252  0.9228  0.7124
 6000TIP3   OH239490   1.276   2.359  14.746  0.3928 -0.6043  0.0078
 6000TIP3    H139491   1.267   2.375  14.652 -0.9992 -1.5128 -0.0486
 6000TIP3    H239492   1.300   2.444  14.783  1.2630 -0.3030 -1.1878
 6001TIP3   OH239493   3.861   2.837  13.504 -0.0671  0.2932 -0.0710
 6001TIP3    H139494   3.856   2.841  13.599 -1.4001  1.7547 -0.1620
 6001TIP3    H239495   3.770   2.836  13.475  0.3195 -0.6068 -1.3393
 6002TIP3   OH239496   5.877   2.534  13.259  0.8476 -0.3773 -0.0847
 6002TIP3    H139497   5.790   2.514  13.226  0.4032 -0.9156  1.3242
 6002TIP3    H239498   5.933   2.463  13.227  0.0914 -1.8035  1.5966
 6003TIP3   OH239499   0.652   5.209  13.766 -0.2962  0.7207 -0.2478
 6003TIP3    H139500   0.635   5.204  13.672 -1.4463  1.6489 -0.1078
 6003TIP3    H239501   0.567   5.230  13.805  0.1635  0.3415  1.0054
 6004TIP3   OH239502   3.022   3.722  12.587 -0.2849  0.1838 -0.2188
 6004TIP3    H139503   2.978   3.717  12.503 -0.1611 -0.0337 -0.2716
 6004TIP3    H239504   3.101   3.667  12.577  0.5286  1.3658 -0.4490
 6005TIP3   OH239505   3.121   1.002  14.851 -0.1917  0.1655  0.2015
 6005TIP3    H139506   3.063   0.944  14.901  0.0463 -1.3205 -1.1493
 6005TIP3    H239507   3.180   1.040  14.916  1.8419 -3.7030  0.9050
 6006TIP3   OH239508   3.932   0.399   4.258 -0.0940 -0.7204  0.1532
 6006TIP3    H139509   4.021   0.377   4.231 -0.1106 -2.0258  1.1071
 6006TIP3    H239510   3.879   0.326   4.229 -0.9225  0.1859 -0.6640
 6007TIP3   OH239511   2.096   4.545   4.159 -0.0078 -0.3435  0.0392
 6007TIP3    H139512   2.086   4.501   4.243 -0.6078  3.4342  2.1951
 6007TIP3    H239513   2.129   4.632   4.182 -0.5281  0.9867 -3.6334
 6008TIP3   OH239514   5.957   2.187   2.259 -0.3767 -0.5052  0.3968
 6008TIP3    H139515   6.013   2.150   2.192 -0.3396 -1.9777  1.2019
 6008TIP3    H239516   5.916   2.111   2.301  0.9326  0.2005  3.1937
 6009TIP3   OH239517   3.910   5.010  11.837 -0.1312 -0.6379 -0.1678
 6009TIP3    H139518   3.999   5.042  11.851  0.1335 -1.5248  0.2857
 6009TIP3    H239519   3.913   4.918  11.865 -1.6590 -0.1732  1.7755
 6010TIP3   OH239520   1.858   2.384  13.420 -0.1067  0.0060 -0.0791
 6010TIP3    H139521   1.908   2.318  13.469  3.1676  1.8387 -0.6266
 6010TIP3    H239522   1.865   2.463  13.474 -1.1445  0.7236 -0.9526
 6011TIP3   OH239523   6.379   4.385  14.382  0.2491 -0.4916 -0.6093
 6011TIP3    H139524   6.353   4.448  14.450  0.8976  0.8347 -1.5630
 6011TIP3    H239525   6.323   4.406  14.307  1.4833 -0.0387 -1.4356
 6012TIP3   OH239526   2.361   4.344   4.001 -0.1766 -0.7914  0.2245
 6012TIP3    H139527   2.266   4.353   4.001 -0.2770 -1.7754  0.7858
 6012TIP3    H239528   2.379   4.280   3.932  0.1162 -0.3558 -0.1137
 6013TIP3   OH239529   0.798   1.875  12.824  0.2059 -0.3329  0.2140
 6013TIP3    H139530   0.768   1.938  12.758 -0.5214  0.0140  0.8622
 6013TIP3    H239531   0.872   1.830  12.782 -0.0202  0.1224 -0.7009
 6014TIP3   OH239532   2.205   3.164  14.468  0.3378  0.6467 -0.4098
 6014TIP3    H139533   2.217   3.077  14.504  0.3238  1.3254  1.3474
 6014TIP3    H239534   2.251   3.163  14.385  2.4539 -0.3301  0.6960
 6015TIP3   OH239535   4.828   2.807   1.458  0.6788 -0.1324 -0.6177
 6015TIP3    H139536   4.822   2.847   1.372  1.2476  0.2666 -0.4761
 6015TIP3    H239537   4.771   2.730   1.453 -0.5562  0.7725 -0.8389
 6016TIP3   OH239538   5.415   4.103  11.983 -0.0465 -0.5860 -0.5301
 6016TIP3    H139539   5.502   4.141  11.995 -0.8797  1.0199  0.8105
 6016TIP3    H239540   5.432   4.018  11.942  2.2947 -1.0877  1.2458
 6017TIP3   OH239541   0.452   0.957   3.458  0.2933  0.4791 -0.0540
 6017TIP3    H139542   0.384   0.974   3.523  2.3667  1.0474  2.1297
 6017TIP3    H239543   0.534   0.973   3.504  1.9411  0.4164 -2.7098
 6018TIP3   OH239544   5.480   1.633  11.935  0.0847 -0.1266 -0.0470
 6018TIP3    H139545   5.488   1.711  11.990  0.6263 -0.5305  0.4512
 6018TIP3    H239546   5.425   1.574  11.986  1.1752 -0.7848  0.4007
 6019TIP3   OH239547   2.891   3.078   3.889 -0.2985 -0.4294 -0.4199
 6019TIP3    H139548   2.811   3.086   3.942 -0.9660 -0.9590 -1.3205
 6019TIP3    H239549   2.900   2.984   3.873  0.8254 -0.4303  0.1298
 6020TIP3   OH239550   1.995   2.014  14.519 -0.0953 -0.1274 -0.1759
 6020TIP3    H139551   1.965   2.021  14.610 -1.2984  2.2703 -0.6637
 6020TIP3    H239552   2.090   2.017  14.525 -0.1638  1.9209  0.9740
 6021TIP3   OH239553   4.308   0.301  11.334 -0.0511 -0.3327  0.7613
 6021TIP3    H139554   4.245   0.239  11.370 -0.6748 -0.8155 -1.0195
 6021TIP3    H239555   4.332   0.263  11.249 -0.1906  1.6800 -0.2455
 6022TIP3   OH239556   4.235   0.420  15.495  0.6566  0.3776 -0.8960
 6022TIP3    H139557   4.262   0.512  15.491  2.1491  0.0706  0.8058
 6022TIP3    H239558   4.146   0.423  15.530  1.6473  1.1556  1.8499
 6023TIP3   OH239559   2.470   3.610   5.952  0.4159 -0.2612 -0.6857
 6023TIP3    H139560   2.483   3.686   6.008 -1.5658  0.4092 -1.0476
 6023TIP3    H239561   2.397   3.563   5.991 -1.1682  0.3364 -2.7230
 6024TIP3   OH239562   6.595   3.236   3.620 -0.3627 -0.2017  0.0814
 6024TIP3    H139563   6.659   3.169   3.595 -0.5232  0.2882 -1.8143
 6024TIP3    H239564   6.553   3.261   3.537 -0.6492  1.8833  0.7963
 6025TIP3   OH239565   5.531   1.326   5.343 -0.0157 -0.2233 -0.0341
 6025TIP3    H139566   5.491   1.245   5.374 -0.1822  0.4159  1.4821
 6025TIP3    H239567   5.504   1.393   5.406 -0.2993  1.1370 -1.5035
 6026TIP3   OH239568   1.033   2.545  11.294  0.6424  0.1439  0.4540
 6026TIP3    H139569   0.956   2.593  11.325  0.8790  0.5402  0.4372
 6026TIP3    H239570   1.015   2.526  11.202  0.3143 -0.2768  0.6021
 6027TIP3   OH239571   2.515   4.881   0.634 -0.0749 -0.1349 -0.6371
 6027TIP3    H139572   2.515   4.861   0.540  0.5864 -0.5641 -0.5476
 6027TIP3    H239573   2.422   4.885   0.657 -0.2961 -3.2930 -0.6290
 6028TIP3   OH239574   0.774   5.394   2.917 -0.1425 -0.0112  0.1068
 6028TIP3    H139575   0.816   5.334   2.857  0.9542  2.0596 -1.3069
 6028TIP3    H239576   0.682   5.394   2.891 -0.5747 -2.3719  1.3383
 6029TIP3   OH239577   2.379   5.171  14.282  0.3524  0.7044  0.4645
 6029TIP3    H139578   2.323   5.129  14.347  0.9030  0.3286  0.6967
 6029TIP3    H239579   2.338   5.257  14.268 -0.3643  0.3822  0.5191
 6030TIP3   OH239580   2.819   0.072   6.469  0.1822  0.3406 -0.3325
 6030TIP3    H139581   2.789   0.045   6.383 -2.3871 -0.1715  0.6373
 6030TIP3    H239582   2.754   0.037   6.530  2.5963 -0.4904  1.9868
 6031TIP3   OH239583   3.928   1.144  15.076 -1.3001  0.1840 -0.2123
 6031TIP3    H139584   3.939   1.143  15.171  1.3314  2.0770 -0.3637
 6031TIP3    H239585   3.893   1.058  15.054 -2.3407 -0.1695  2.4755
 6032TIP3   OH239586   0.644   5.979  12.518 -0.4047  0.6035 -0.4183
 6032TIP3    H139587   0.646   5.951  12.427  1.6038  2.3419 -1.0128
 6032TIP3    H239588   0.553   6.001  12.535 -0.5852  1.9239 -2.6325
 6033TIP3   OH239589   5.298   0.684   0.455 -0.1488 -0.6453 -0.0757
 6033TIP3    H139590   5.208   0.661   0.432 -0.4676  0.8285 -0.4236
 6033TIP3    H239591   5.324   0.619   0.520 -0.0692 -3.5084 -2.7511
 6034TIP3   OH239592   2.424   6.562  12.302 -0.1925 -0.1902 -0.1802
 6034TIP3    H139593   2.518   6.557  12.280 -0.2699  3.1854 -1.8698
 6034TIP3    H239594   2.418   6.632  12.367 -1.5763 -0.3107 -0.1511
 6035TIP3   OH239595   4.154   5.647  12.911 -0.3446  0.3044 -0.0521
 6035TIP3    H139596   4.215   5.718  12.892 -0.2172  0.0606 -0.5744
 6035TIP3    H239597   4.189   5.572  12.862  0.0493 -0.3773  1.2036
 6036TIP3   OH239598   3.441   3.698   5.691 -0.2685 -0.2533 -0.3463
 6036TIP3    H139599   3.467   3.739   5.608  1.1502  1.2993  0.7908
 6036TIP3    H239600   3.353   3.732   5.708 -0.5669 -0.5691 -1.1827
 6037TIP3   OH239601   0.960   5.604  12.635  0.0720  0.2828 -0.4651
 6037TIP3    H139602   1.007   5.582  12.554  0.5172 -0.8569  0.0853
 6037TIP3    H239603   0.962   5.699  12.639  0.6598  0.3203 -1.4369
 6038TIP3   OH239604   3.113   2.695  16.203  0.2431 -0.3415 -0.0783
 6038TIP3    H139605   3.199   2.684  16.164  0.3425  2.2422 -0.8288
 6038TIP3    H239606   3.057   2.725  16.130 -0.4130  1.2597  1.0212
 6039TIP3   OH239607   5.253   5.156  14.132  0.2701  0.4510 -0.3147
 6039TIP3    H139608   5.197   5.183  14.060  0.9195 -0.2111 -1.0825
 6039TIP3    H239609   5.212   5.195  14.210 -1.3890 -0.2205 -0.8141
 6040TIP3   OH239610   4.383   1.745   3.585 -0.1315 -0.5138 -0.1284
 6040TIP3    H139611   4.371   1.660   3.628 -0.3037 -0.7758 -0.6807
 6040TIP3    H239612   4.384   1.724   3.491 -0.0129  0.0759 -0.2611
 6041TIP3   OH239613   5.751   1.371  11.951 -0.4480 -0.2897 -0.1634
 6041TIP3    H139614   5.755   1.428  11.874 -0.2373 -2.5190 -1.8873
 6041TIP3    H239615   5.839   1.336  11.960 -0.8533 -1.2628  0.1322
 6042TIP3   OH239616   5.800   5.484   5.399 -0.2488 -0.0250  0.1866
 6042TIP3    H139617   5.859   5.558   5.409 -0.4109  0.2460 -0.7691
 6042TIP3    H239618   5.756   5.499   5.315 -0.0740 -1.3471 -0.1697
 6043TIP3   OH239619   0.410   1.844   5.287  0.6491 -0.1190  0.1842
 6043TIP3    H139620   0.464   1.921   5.306 -2.4366  2.1387  0.6249
 6043TIP3    H239621   0.358   1.869   5.211 -3.2674 -0.0293  2.6498
 6044TIP3   OH239622   2.207   4.746  14.934  0.5486 -0.5353 -0.4704
 6044TIP3    H139623   2.161   4.825  14.908 -0.1752 -0.7043  0.2685
 6044TIP3    H239624   2.285   4.777  14.981 -0.5209 -0.2433  1.1836
 6045TIP3   OH239625   3.857   5.871   4.367 -0.4314 -0.4557 -0.1120
 6045TIP3    H139626   3.785   5.932   4.353 -0.6374 -0.3192  1.4045
 6045TIP3    H239627   3.815   5.786   4.381 -0.6467  0.1716  4.2207
 6046TIP3   OH239628   5.467   0.944  11.122 -0.0844  0.5861  0.1057
 6046TIP3    H139629   5.463   0.853  11.091 -0.6037  0.5498  0.2803
 6046TIP3    H239630   5.547   0.978  11.082  0.1592  0.0295  0.1035
 6047TIP3   OH239631   1.111   6.850  11.858 -0.0501 -0.3924 -0.4667
 6047TIP3    H139632   1.017   6.848  11.838 -0.3251 -0.5792  0.7456
 6047TIP3    H239633   1.138   6.758  11.852 -0.5608 -0.7423  1.7772
 6048TIP3   OH239634   0.874   4.416   0.977  0.0881  0.4988 -0.5751
 6048TIP3    H139635   0.913   4.342   0.930 -0.0882 -2.7345  3.7438
 6048TIP3    H239636   0.779   4.401   0.971  0.0580  0.1125  0.5502
 6049TIP3   OH239637   0.524   5.700   1.933 -0.2412  0.1914  0.0591
 6049TIP3    H139638   0.582   5.709   2.008  1.2607  1.7047 -1.1805
 6049TIP3    H239639   0.517   5.789   1.897 -1.3250 -0.3888 -1.2683
 6050TIP3   OH239640   5.952   5.013   3.513 -0.2587  0.2863  0.1562
 6050TIP3    H139641   5.907   5.003   3.597  0.0241 -1.6679  0.1142
 6050TIP3    H239642   6.045   5.015   3.536 -0.0230 -2.6451 -0.1988
 6051TIP3   OH239643   4.855   6.458  14.469 -0.0191  0.3467 -0.6065
 6051TIP3    H139644   4.916   6.384  14.465 -0.9567 -0.4693 -0.2162
 6051TIP3    H239645   4.910   6.534  14.491  0.5522 -0.8030  2.4662
 6052TIP3   OH239646   2.667   4.970   6.800  0.5756 -0.2603 -0.1684
 6052TIP3    H139647   2.581   5.011   6.790  0.2049 -0.6389  1.3357
 6052TIP3    H239648   2.650   4.886   6.843  1.6418 -0.6412 -0.4339
 6053TIP3   OH239649   4.435   4.372  15.524 -0.1158  0.6226  0.5050
 6053TIP3    H139650   4.505   4.312  15.547  0.9747  1.6172 -0.1041
 6053TIP3    H239651   4.459   4.403  15.436 -2.3784 -0.5391 -0.6161
 6054TIP3   OH239652   1.988   0.168  14.331 -0.4973  0.1175 -0.0787
 6054TIP3    H139653   2.080   0.186  14.313 -0.5473 -0.0398 -0.4958
 6054TIP3    H239654   1.942   0.246  14.301 -0.5949 -0.2037 -0.7813
 6055TIP3   OH239655   5.584   2.081   5.519  0.3729 -0.1370  1.1779
 6055TIP3    H139656   5.602   2.027   5.441 -2.8255  1.0371 -0.5435
 6055TIP3    H239657   5.542   2.021   5.580  1.0802 -0.6277  1.1913
 6056TIP3   OH239658   0.781   2.055   5.188  0.4020 -0.7494 -0.4197
 6056TIP3    H139659   0.736   2.081   5.108  0.7906 -0.7743 -0.6465
 6056TIP3    H239660   0.868   2.092   5.180  0.1160  0.1641  0.4809
 6057TIP3   OH239661   0.392   0.847   0.550 -0.3383 -0.3336  0.3090
 6057TIP3    H139662   0.429   0.843   0.462  0.7214 -0.8748  0.7678
 6057TIP3    H239663   0.302   0.814   0.539 -0.4197  0.1623 -0.6592
 6058TIP3   OH239664   0.634   2.226   0.882  0.7293  0.5350  0.0905
 6058TIP3    H139665   0.550   2.271   0.871  0.5702  0.0147 -0.9850
 6058TIP3    H239666   0.675   2.231   0.796  0.5970 -1.5458 -0.1577
 6059TIP3   OH239667   5.194   5.778  14.041  0.1241  0.1262 -0.0802
 6059TIP3    H139668   5.212   5.761  13.948 -1.1930  0.5207 -0.4247
 6059TIP3    H239669   5.175   5.872  14.044  0.6053  0.2048  0.6735
 6060TIP3   OH239670   6.093   2.894   1.498 -0.4917 -0.3185  0.0410
 6060TIP3    H139671   6.037   2.968   1.473 -0.7467 -0.2140  0.9112
 6060TIP3    H239672   6.041   2.844   1.561 -0.0409 -0.8525  0.0006
 6061TIP3   OH239673   2.198   2.405   2.871 -0.0739  0.0730  0.2567
 6061TIP3    H139674   2.148   2.478   2.836  0.8775  0.9040  0.6098
 6061TIP3    H239675   2.188   2.411   2.966  0.2166 -0.0929  0.3015
 6062TIP3   OH239676   3.380   0.291  11.105  0.5710 -0.6038 -0.1993
 6062TIP3    H139677   3.457   0.234  11.106  0.6570 -0.5035 -0.9370
 6062TIP3    H239678   3.412   0.375  11.073  0.2137 -0.4691 -0.2111
 6063TIP3   OH239679   4.214   0.063   0.726  0.3212 -0.5184  0.1580
 6063TIP3    H139680   4.169   0.147   0.739  0.8752 -0.3773  1.3363
 6063TIP3    H239681   4.289   0.067   0.786  1.6815 -0.9169 -1.4363
 6064TIP3   OH239682   6.721   1.732  16.854  0.5722  0.7212 -0.3547
 6064TIP3    H139683   6.633   1.695  16.867  1.7156 -1.8040  0.8433
 6064TIP3    H239684   6.748   1.700  16.769 -0.3540  3.2033 -1.6896
 6065TIP3   OH239685   4.415   1.350  14.224  0.5139  0.2953  0.5357
 6065TIP3    H139686   4.372   1.336  14.140  0.8742  0.5486  0.3091
 6065TIP3    H239687   4.456   1.266  14.244  4.0523  1.3098 -1.5961
 6066TIP3   OH239688   3.857   6.001   2.053 -0.4616  0.4857 -0.0630
 6066TIP3    H139689   3.793   5.931   2.047  0.6618 -0.7625  1.7381
 6066TIP3    H239690   3.806   6.081   2.046 -1.8074 -0.4639 -1.8649
 6067TIP3   OH239691   6.297   0.197   1.995 -0.4828  0.2848 -0.2246
 6067TIP3    H139692   6.377   0.149   2.017 -2.2428 -3.1687 -0.7350
 6067TIP3    H239693   6.237   0.178   2.068 -2.0702 -0.4131 -1.6510
 6068TIP3   OH239694   4.471   1.251  15.878 -0.0609 -0.0063 -0.0321
 6068TIP3    H139695   4.387   1.238  15.833 -0.0032  0.8953 -0.4172
 6068TIP3    H239696   4.447   1.255  15.970 -0.3935 -0.1506 -0.1063
 6069TIP3   OH239697   5.634   1.565   3.063 -0.6465  0.2137  0.0233
 6069TIP3    H139698   5.691   1.599   3.131  0.6356 -0.1010 -0.8589
 6069TIP3    H239699   5.553   1.541   3.109  0.1438  0.1116  1.4107
 6070TIP3   OH239700   0.536   5.046  12.124 -0.2442 -0.3736  0.2686
 6070TIP3    H139701   0.454   5.029  12.078 -0.3473  0.3136  0.1902
 6070TIP3    H239702   0.584   4.963  12.119 -0.3997 -0.4070 -0.7687
 6071TIP3   OH239703   5.479   1.586   5.897  0.6761  0.2423 -0.9584
 6071TIP3    H139704   5.451   1.677   5.906  2.2724  1.0526 -3.2644
 6071TIP3    H239705   5.514   1.563   5.983 -0.0531  1.6812 -0.2395
 6072TIP3   OH239706   6.384   3.173   0.926  0.1912 -0.4102 -0.1421
 6072TIP3    H139707   6.337   3.142   1.004 -1.2707 -0.5651 -1.0390
 6072TIP3    H239708   6.404   3.265   0.945 -1.2487 -0.0905 -0.0515
 6073TIP3   OH239709   5.923   0.867   5.232 -0.4545 -0.5076  0.1371
 6073TIP3    H139710   5.919   0.941   5.293 -0.4925 -1.4019  1.2404
 6073TIP3    H239711   5.839   0.870   5.186 -0.8791 -0.4597  0.8994
 6074TIP3   OH239712   2.496   1.191   3.985 -0.1082  0.0773  0.5315
 6074TIP3    H139713   2.536   1.268   3.944 -0.6745  0.2705  0.3406
 6074TIP3    H239714   2.483   1.130   3.913  0.7004 -0.3640  0.7415
 6075TIP3   OH239715   6.486   4.548   0.826  0.5753  0.5112  0.3683
 6075TIP3    H139716   6.479   4.643   0.827 -1.6348  0.4350 -0.5442
 6075TIP3    H239717   6.395   4.518   0.823  1.2215 -1.6307  0.5838
 6076TIP3   OH239718   6.308   2.077  16.747 -0.5144 -0.3534 -0.2010
 6076TIP3    H139719   6.360   2.122  16.814 -1.5147  0.2000  0.2348
 6076TIP3    H239720   6.340   1.987  16.748 -1.8543 -0.9115  2.4972
 6077TIP3   OH239721   1.652   5.351   2.429  0.7224  0.5827 -0.7825
 6077TIP3    H139722   1.635   5.358   2.523  0.2686 -0.4605 -0.7701
 6077TIP3    H239723   1.701   5.430   2.408  0.6024  0.9647  0.2798
 6078TIP3   OH239724   1.278   4.241   2.181  0.0487 -0.1280 -0.1123
 6078TIP3    H139725   1.225   4.202   2.251 -0.2550 -1.7841 -1.2112
 6078TIP3    H239726   1.213   4.274   2.119  0.3242  0.8054  0.0797
 6079TIP3   OH239727   5.161   4.292   5.364 -0.1235 -0.0354  0.2739
 6079TIP3    H139728   5.083   4.245   5.333 -0.4620  0.5197  0.2616
 6079TIP3    H239729   5.135   4.325   5.450 -1.5243  3.8160 -1.4105
 6080TIP3   OH239730   5.546   4.881  12.156  0.4237 -0.3312  0.4281
 6080TIP3    H139731   5.557   4.881  12.252  0.3771 -0.8254  0.4356
 6080TIP3    H239732   5.554   4.789  12.131 -0.1146 -0.2700  0.0163
 6081TIP3   OH239733   2.332   0.907   5.762  0.2037  0.0218 -0.1824
 6081TIP3    H139734   2.382   0.989   5.757  0.0640  0.1447  0.3512
 6081TIP3    H239735   2.366   0.864   5.840 -0.6662  0.2031  0.3050
 6082TIP3   OH239736   6.814   1.987  10.809  0.9163  0.3071 -0.0062
 6082TIP3    H139737   6.748   2.010  10.744  2.8647  2.9217 -1.2436
 6082TIP3    H239738   6.772   2.004  10.893 -0.3467  0.8041 -0.7097
 6083TIP3   OH239739   1.170   1.009  16.848  0.3768 -0.0217 -0.1680
 6083TIP3    H139740   1.102   0.944  16.829 -0.7773  0.7475  1.1358
 6083TIP3    H239741   1.136   1.058  16.922  0.9586  2.4435 -1.4208
 6084TIP3   OH239742   2.317   3.196   1.303 -0.4118  0.0056  0.0836
 6084TIP3    H139743   2.328   3.174   1.395  0.1146 -0.4823 -0.0855
 6084TIP3    H239744   2.291   3.114   1.261  0.4755 -0.0592 -0.3768
 6085TIP3   OH239745   1.552   0.602  13.992  0.4575 -0.4208 -0.1623
 6085TIP3    H139746   1.635   0.584  13.948  0.1486  0.3338 -1.0702
 6085TIP3    H239747   1.493   0.533  13.960  0.8879 -1.3457  0.9772
 6086TIP3   OH239748   2.308   3.128  15.622  0.0793  0.3453 -0.7120
 6086TIP3    H139749   2.261   3.157  15.701 -1.6819 -0.2018 -1.5060
 6086TIP3    H239750   2.326   3.209  15.574  2.5872  0.8591  0.9295
 6087TIP3   OH239751   0.557   5.784   0.946  0.5687  0.2869 -0.1207
 6087TIP3    H139752   0.545   5.860   1.003  1.8831 -0.3990  1.1414
 6087TIP3    H239753   0.497   5.718   0.980 -0.2296  0.5893 -0.9203
 6088TIP3   OH239754   2.900   6.817   0.117 -0.0720 -0.0995  0.1541
 6088TIP3    H139755   2.874   6.892   0.063  0.9735  0.7849  0.8165
 6088TIP3    H239756   2.829   6.754   0.107 -0.6299  0.6707 -1.0213
 6089TIP3   OH239757   2.260   6.350  11.576 -0.1000 -0.1010 -0.3099
 6089TIP3    H139758   2.290   6.440  11.587  0.3288 -0.4664  1.9816
 6089TIP3    H239759   2.288   6.305  11.656 -3.2872 -1.4473  0.2103
 6090TIP3   OH239760   1.026   5.225  11.713 -0.3114  0.4744 -0.1350
 6090TIP3    H139761   0.934   5.203  11.703 -0.5296  0.3407  1.7922
 6090TIP3    H239762   1.069   5.142  11.733 -0.3060  0.9363  2.0060
 6091TIP3   OH239763   1.183   5.118  15.919 -0.4026  0.2553  0.0773
 6091TIP3    H139764   1.176   5.127  16.014 -0.7751  1.2640 -0.0329
 6091TIP3    H239765   1.218   5.030  15.905  1.6549  0.8364  1.2131
 6092TIP3   OH239766   6.229   3.741  10.801 -0.0432 -0.1531 -0.3898
 6092TIP3    H139767   6.137   3.764  10.789 -0.1056 -0.9471 -1.5070
 6092TIP3    H239768   6.229   3.647  10.819  0.4025  0.2043  1.7797
 6093TIP3   OH239769   4.199   2.977   5.055 -0.8604 -0.1231 -0.3033
 6093TIP3    H139770   4.219   2.963   4.962 -1.3204 -1.5071 -0.2165
 6093TIP3    H239771   4.232   2.898   5.098 -1.9900 -0.1782  0.5057
 6094TIP3   OH239772   1.561   3.478  15.055 -0.2170  0.5773  0.0848
 6094TIP3    H139773   1.586   3.391  15.084 -0.0122  0.2250 -1.0856
 6094TIP3    H239774   1.564   3.532  15.134  1.5720 -0.0406  0.4701
 6095TIP3   OH239775   1.201   0.016  15.833 -0.4170 -0.1455 -0.5747
 6095TIP3    H139776   1.127  -0.003  15.889  0.5635 -0.8625  0.5291
 6095TIP3    H239777   1.179  -0.025  15.749 -0.1697 -2.6614  0.5064
 6096TIP3   OH239778   6.561   5.961   4.892 -0.4262 -0.4030 -0.4004
 6096TIP3    H139779   6.557   6.047   4.850 -2.0739  1.0119  2.3826
 6096TIP3    H239780   6.483   5.957   4.946 -0.7731 -4.0132 -0.9331
 6097TIP3   OH239781   1.218   6.736   5.095 -0.3878 -0.0202 -0.6022
 6097TIP3    H139782   1.219   6.784   5.178 -2.5507 -0.0376 -0.5103
 6097TIP3    H239783   1.282   6.782   5.040 -0.8317  1.6468  0.2004
 6098TIP3   OH239784   4.517   6.047  13.563  0.4604 -0.1831 -0.2708
 6098TIP3    H139785   4.482   6.011  13.644  3.9546 -5.2311 -0.5310
 6098TIP3    H239786   4.454   6.022  13.495  0.5427 -1.6794  0.1881
 6099TIP3   OH239787   6.215   2.737   0.494  0.0467  0.0082 -0.1733
 6099TIP3    H139788   6.204   2.761   0.402 -1.9422  0.6072  0.1666
 6099TIP3    H239789   6.300   2.693   0.498  0.1977  0.0236 -2.2773
 6100TIP3   OH239790   2.741   2.462   0.903 -0.0363 -0.2212 -0.1289
 6100TIP3    H139791   2.792   2.521   0.958  2.1267 -0.5760 -1.6305
 6100TIP3    H239792   2.723   2.386   0.959  1.9226 -0.4908  0.1905
 6101TIP3   OH239793   3.964   1.585  11.540  0.6662 -0.2503  0.2953
 6101TIP3    H139794   3.876   1.589  11.577  0.5691 -1.6825  0.2461
 6101TIP3    H239795   3.961   1.513  11.477  1.3270  0.9927 -1.2403
 6102TIP3   OH239796   6.144   5.054   1.112  0.0372  0.8742 -0.7851
 6102TIP3    H139797   6.151   5.128   1.052 -1.2594  0.6729 -1.2193
 6102TIP3    H239798   6.226   5.005   1.100  0.5573  1.7928 -1.0742
 6103TIP3   OH239799   3.088   6.427   3.975 -0.0582 -0.2189 -0.3220
 6103TIP3    H139800   3.030   6.406   3.902 -0.0678 -0.8960 -0.1263
 6103TIP3    H239801   3.057   6.372   4.047  0.4407 -0.1307 -0.0319
 6104TIP3   OH239802   5.144   5.023   0.994 -0.4153 -0.2107  0.6050
 6104TIP3    H139803   5.083   5.093   0.975  0.5808  0.7902  1.0053
 6104TIP3    H239804   5.173   5.039   1.083 -0.4750 -1.3697  0.8513
 6105TIP3   OH239805   1.463   0.910   3.277 -0.5974 -0.0816 -0.0003
 6105TIP3    H139806   1.452   0.963   3.198 -0.4842  0.5994  0.4313
 6105TIP3    H239807   1.557   0.913   3.296 -0.8182  1.1722  1.0928
 6106TIP3   OH239808   4.731   2.736   3.673 -0.2220  0.1883 -0.4889
 6106TIP3    H139809   4.735   2.643   3.649 -0.5782  0.3429 -1.1483
 6106TIP3    H239810   4.819   2.756   3.702 -0.5471 -0.8082  1.3648
 6107TIP3   OH239811   4.830   5.038  11.627  0.1034 -0.1006  0.0549
 6107TIP3    H139812   4.841   4.982  11.704  1.6722 -1.5395 -1.1253
 6107TIP3    H239813   4.797   4.978  11.559 -1.5464  1.1931 -0.3720
 6108TIP3   OH239814   5.234   5.203  16.945 -0.1147 -0.6310  0.3526
 6108TIP3    H139815   5.329   5.198  16.953  0.1699 -1.9190 -2.6354
 6108TIP3    H239816   5.217   5.288  16.905 -0.1254 -0.7828  0.0310
 6109TIP3   OH239817   3.378   3.952  12.984  0.0090 -0.0395  0.6797
 6109TIP3    H139818   3.356   4.041  13.010 -0.4553  0.6213 -1.7557
 6109TIP3    H239819   3.417   3.961  12.898 -0.5174 -2.2358  0.1545
 6110TIP3   OH239820   0.494   1.230   2.203 -0.0172  0.1604 -0.4016
 6110TIP3    H139821   0.438   1.173   2.151 -1.7035  1.7857 -0.4710
 6110TIP3    H239822   0.475   1.205   2.294 -0.8107  0.6263 -0.4281
 6111TIP3   OH239823   2.857   4.332  12.474  0.3063 -0.5265  0.1374
 6111TIP3    H139824   2.804   4.377  12.540  1.2473  0.0842  0.4952
 6111TIP3    H239825   2.794   4.302  12.409 -0.5410 -0.3548  0.8603
 6112TIP3   OH239826   5.582   3.093  13.518 -0.0620  0.3551 -0.2256
 6112TIP3    H139827   5.592   3.049  13.434  2.0621 -1.1352  0.7137
 6112TIP3    H239828   5.610   3.183  13.503  1.2989 -0.1595 -0.9167
 6113TIP3   OH239829   1.670   2.066  11.219  0.0850  0.2653  0.1546
 6113TIP3    H139830   1.667   2.139  11.158  0.2946  0.0601 -0.1010
 6113TIP3    H239831   1.699   2.106  11.301 -0.1821  0.5363  0.1218
 6114TIP3   OH239832   4.271   4.066  13.456 -0.0405  0.4930 -0.3944
 6114TIP3    H139833   4.345   4.123  13.474 -0.5336  1.0071  0.0292
 6114TIP3    H239834   4.306   4.000  13.396  0.7422  0.7579 -0.2414
 6115TIP3   OH239835   0.773   2.056  13.018 -0.1506  0.4016 -0.0809
 6115TIP3    H139836   0.715   2.027  13.089 -3.2226  1.1146 -2.0860
 6115TIP3    H239837   0.772   1.984  12.955  2.5213 -0.2187  0.4542
 6116TIP3   OH239838   1.820   0.735  10.150  0.0128  0.6805  0.1525
 6116TIP3    H139839   1.830   0.801  10.219  0.3039 -0.1588  0.9300
 6116TIP3    H239840   1.773   0.663  10.192 -0.0411  0.2675 -0.6008
 6117TIP3   OH239841   0.381   1.395  15.700  0.0785 -0.3836 -1.4391
 6117TIP3    H139842   0.407   1.335  15.629 -1.2485 -1.8960 -0.7049
 6117TIP3    H239843   0.289   1.416  15.682 -0.2904 -0.8130 -0.1755
 6118TIP3   OH239844   4.028   3.287  12.894 -0.7201  0.0879  0.4014
 6118TIP3    H139845   4.102   3.227  12.904 -0.2829  0.4508 -0.5443
 6118TIP3    H239846   3.961   3.252  12.953 -0.4337 -1.2577 -0.0353
 6119TIP3   OH239847   4.941   4.897   2.073 -0.1066  0.7757  0.3476
 6119TIP3    H139848   4.872   4.847   2.118 -0.7383  0.9025 -0.4534
 6119TIP3    H239849   4.915   4.988   2.084  1.1310  0.9704  1.9420
 6120TIP3   OH239850   2.441   4.944   2.778  0.4449 -0.3985 -0.1585
 6120TIP3    H139851   2.511   5.006   2.758  1.5808 -1.8371 -0.8357
 6120TIP3    H239852   2.374   4.997   2.821  1.9541  1.0375  0.5779
 6121TIP3   OH239853   6.537   3.012  12.410  0.1974 -0.2325  0.1928
 6121TIP3    H139854   6.544   3.009  12.506  2.7812 -1.2101  0.0623
 6121TIP3    H239855   6.547   3.105  12.388  3.6943 -0.3313  0.7828
 6122TIP3   OH239856   4.224   3.202  14.963 -0.1352  0.2361 -0.5815
 6122TIP3    H139857   4.164   3.269  14.931 -0.2101  0.7465  0.5880
 6122TIP3    H239858   4.221   3.210  15.058  0.0295 -1.2819 -0.4233
 6123TIP3   OH239859   6.387   4.555   1.869  0.1264 -0.1575 -0.2488
 6123TIP3    H139860   6.450   4.617   1.831  2.0518 -1.8091  0.0920
 6123TIP3    H239861   6.309   4.564   1.814 -0.2109  3.4629  0.5800
 6124TIP3   OH239862   4.274   1.943  12.969 -0.3668 -0.2351 -0.2515
 6124TIP3    H139863   4.237   2.031  12.973 -1.3075 -0.6637  0.9014
 6124TIP3    H239864   4.369   1.957  12.966 -0.5350  0.8369 -1.5165
 6125TIP3   OH239865   4.598   3.648   2.435 -0.4048  0.7404 -0.3414
 6125TIP3    H139866   4.638   3.640   2.348 -1.0150 -0.5313 -0.5182
 6125TIP3    H239867   4.504   3.649   2.418 -0.5156  2.0759  0.2040
 6126TIP3   OH239868   2.379   5.399  13.585  0.3192  0.0600 -0.6464
 6126TIP3    H139869   2.473   5.385  13.572  0.5411  1.1196 -0.2988
 6126TIP3    H239870   2.340   5.381  13.500  0.9565  0.5469 -1.0516
 6127TIP3   OH239871   4.322   5.141   2.848 -0.3622  0.2848  0.4805
 6127TIP3    H139872   4.292   5.223   2.887 -0.4782  0.0348  0.9196
 6127TIP3    H239873   4.347   5.087   2.922 -2.0383 -0.7809  0.2986
 6128TIP3   OH239874   6.550   3.907   4.211  0.0634 -0.2470  0.4179
 6128TIP3    H139875   6.561   3.853   4.132  3.4502 -0.9709  1.2361
 6128TIP3    H239876   6.619   3.973   4.205 -0.7521  0.8120  1.9528
 6129TIP3   OH239877   4.447   3.520  12.711  0.2347 -0.0877 -0.5016
 6129TIP3    H139878   4.528   3.565  12.690 -0.9403  2.1644 -0.4514
 6129TIP3    H239879   4.449   3.509  12.806  0.8003 -0.7150 -0.5827
 6130TIP3   OH239880   2.508   2.256   2.948 -0.1732  0.8184  0.2066
 6130TIP3    H139881   2.565   2.210   2.886 -1.3263  0.5001 -0.6448
 6130TIP3    H239882   2.444   2.190   2.974  0.4317  0.8652  1.9757
 6131TIP3   OH239883   2.022   5.408  13.989  0.6005  0.3580 -0.2363
 6131TIP3    H139884   2.093   5.397  13.926  0.5690  0.9127 -0.3774
 6131TIP3    H239885   2.012   5.503  13.998 -1.5108  0.3659 -1.8173
 6132TIP3   OH239886   2.069   4.007   2.977 -0.0369 -0.1728 -0.2867
 6132TIP3    H139887   1.992   4.062   2.991  0.3891  0.7227 -1.2946
 6132TIP3    H239888   2.107   3.995   3.064 -1.8160 -1.4213  0.3712
 6133TIP3   OH239889   3.031   2.743  13.132  0.2727 -0.2042  0.0226
 6133TIP3    H139890   3.116   2.787  13.132 -0.3764  1.1345 -0.8994
 6133TIP3    H239891   3.015   2.721  13.040  0.2747 -1.7967  0.3811
 6134TIP3   OH239892   6.206   1.876  15.254 -0.5265  0.3313 -0.2863
 6134TIP3    H139893   6.228   1.903  15.343 -0.5391 -0.3837 -0.0609
 6134TIP3    H239894   6.136   1.811  15.265 -0.5302  0.2402 -0.8181
 6135TIP3   OH239895   1.892   1.823   3.207 -0.2915  0.3467  0.5903
 6135TIP3    H139896   1.961   1.759   3.223  1.4806  1.5725 -1.5241
 6135TIP3    H239897   1.869   1.812   3.115 -1.6056  1.2145  0.7844
 6136TIP3   OH239898   0.761   1.035   5.877 -0.1240 -0.1872 -0.3043
 6136TIP3    H139899   0.729   1.084   5.953  1.1194  0.9488 -0.4870
 6136TIP3    H239900   0.782   0.948   5.913  1.9163  0.7902  1.0307
 6137TIP3   OH239901   6.110   1.812   1.826 -0.1221 -0.7785  0.1387
 6137TIP3    H139902   6.126   1.808   1.732  0.7550 -1.7977  0.3120
 6137TIP3    H239903   6.191   1.779   1.866  0.5614  2.0458  1.3496
 6138TIP3   OH239904   1.011   6.201  13.633 -0.7791 -0.4567  0.2931
 6138TIP3    H139905   0.962   6.273  13.673 -0.8531  0.0726 -0.7212
 6138TIP3    H239906   1.092   6.196  13.683 -2.1997 -1.9609  2.6142
 6139TIP3   OH239907   3.541   4.746   4.734  0.6604  0.5345 -0.0034
 6139TIP3    H139908   3.451   4.743   4.765  1.2681 -1.1793  1.7893
 6139TIP3    H239909   3.565   4.654   4.721  2.1710  0.9542 -0.4061
 6140TIP3   OH239910   2.549   5.370   0.437  0.5182  0.1439 -0.1580
 6140TIP3    H139911   2.581   5.307   0.373 -3.0404 -0.6934 -1.3389
 6140TIP3    H239912   2.506   5.438   0.385 -0.8186  0.4337  1.2303
 6141TIP3   OH239913   3.113   1.807  15.676 -0.4953 -0.1027 -0.3722
 6141TIP3    H139914   3.113   1.729  15.621  1.2960 -1.0284  0.8434
 6141TIP3    H239915   3.106   1.774  15.765 -1.7040  1.2700  0.0812
 6142TIP3   OH239916   6.573   4.808   4.036 -0.0365  0.2744 -0.0117
 6142TIP3    H139917   6.617   4.867   3.974  0.7792 -1.7347 -1.4474
 6142TIP3    H239918   6.502   4.768   3.986 -0.9882  0.4765  1.1258
 6143TIP3   OH239919   2.223   1.078   5.518  0.2847 -0.1841 -0.2800
 6143TIP3    H139920   2.296   1.098   5.459  0.3633  0.6269  0.0841
 6143TIP3    H239921   2.236   0.986   5.542 -0.3203 -0.8643 -2.3171
 6144TIP3   OH239922   2.542   0.971   2.437 -0.4302 -0.2736  0.0167
 6144TIP3    H139923   2.546   0.880   2.410 -0.5491  0.4548 -2.7393
 6144TIP3    H239924   2.497   0.969   2.522  1.2669 -2.8694  0.9820
 6145TIP3   OH239925   4.489   4.336  14.353 -0.5773 -0.3721  0.2125
 6145TIP3    H139926   4.478   4.245  14.382  0.7458 -1.3726 -2.1534
 6145TIP3    H239927   4.570   4.364  14.396  0.1286 -1.0664 -0.6027
 6146TIP3   OH239928   5.845   5.471   1.854  0.1756 -0.4960  1.0695
 6146TIP3    H139929   5.935   5.441   1.841  0.1695 -0.8769  1.8261
 6146TIP3    H239930   5.853   5.561   1.886  0.2281 -0.0142 -0.2407
 6147TIP3   OH239931   1.531   5.167  14.760  0.2035  0.4297 -0.0512
 6147TIP3    H139932   1.621   5.179  14.731  0.5688 -1.6306  0.0498
 6147TIP3    H239933   1.509   5.247  14.806  1.6444  1.3595 -0.9209
 6148TIP3   OH239934   5.019   0.421   2.633 -0.3167  0.1793 -0.4345
 6148TIP3    H139935   4.954   0.443   2.699  1.0818  1.5068  0.5571
 6148TIP3    H239936   4.987   0.464   2.553 -0.8004  0.5745 -0.0381
 6149TIP3   OH239937   1.266   3.729   5.842 -0.3366  0.2801  0.0340
 6149TIP3    H139938   1.300   3.640   5.828 -0.1150  0.6299 -2.0435
 6149TIP3    H239939   1.318   3.783   5.783 -2.6122  1.2633 -1.2198
 6150TIP3   OH239940   2.551   5.091  12.450  0.2318  0.7224  0.1779
 6150TIP3    H139941   2.567   5.137  12.533  1.0399  2.3353 -0.8290
 6150TIP3    H239942   2.475   5.134  12.413 -0.4259 -0.3195  0.2709
 6151TIP3   OH239943   4.843   0.613   1.145 -0.4939 -0.2498 -0.8800
 6151TIP3    H139944   4.823   0.706   1.145  0.6692  0.0618  1.2923
 6151TIP3    H239945   4.932   0.608   1.108 -0.6759 -0.5275 -1.2796
 6152TIP3   OH239946   5.305   0.821  14.291 -0.8724 -0.5114  0.3257
 6152TIP3    H139947   5.285   0.815  14.385  0.9045  0.7698  0.8493
 6152TIP3    H239948   5.231   0.869  14.254 -0.7010  0.7315  1.4726
 6153TIP3   OH239949   4.135   2.082   5.572  0.1601  0.5834 -0.4633
 6153TIP3    H139950   4.177   2.118   5.494  0.6144 -0.3061 -0.6443
 6153TIP3    H239951   4.117   2.158   5.627  3.6813  0.9121  0.4523
 6154TIP3   OH239952   4.295   1.842   1.681 -0.2668 -0.2290 -0.4738
 6154TIP3    H139953   4.353   1.780   1.637 -0.5139 -0.2006 -0.8418
 6154TIP3    H239954   4.352   1.917   1.700  0.2030 -0.8271  0.5912
 6155TIP3   OH239955   0.528   2.478   0.777  0.1364 -0.2631  0.2522
 6155TIP3    H139956   0.500   2.494   0.866 -2.0029  2.6170 -0.7984
 6155TIP3    H239957   0.576   2.557   0.752 -0.0235 -0.6552 -1.4162
 6156TIP3   OH239958   5.694   3.244   3.205 -0.3323  0.0756 -0.4954
 6156TIP3    H139959   5.702   3.158   3.246  1.4428  1.0111  1.3148
 6156TIP3    H239960   5.674   3.304   3.277  2.0617  1.6581 -0.9919
 6157TIP3   OH239961   0.986   6.271   4.959 -0.5077  0.4830  0.6914
 6157TIP3    H139962   1.058   6.325   4.924  1.0635 -0.9848  1.5340
 6157TIP3    H239963   1.029   6.206   5.014 -2.4639 -0.7539  0.8546
 6158TIP3   OH239964   2.107   1.695  15.643  0.3449  0.3878 -0.3224
 6158TIP3    H139965   2.123   1.638  15.567 -0.7570 -0.9176  0.4017
 6158TIP3    H239966   2.190   1.693  15.691 -0.0939 -1.7750  0.4313
 6159TIP3   OH239967   5.579   1.535   0.160 -0.3092 -0.7950  0.8325
 6159TIP3    H139968   5.489   1.561   0.137  0.1966 -0.0655 -0.4469
 6159TIP3    H239969   5.628   1.617   0.159  0.7679 -1.4164 -0.4617
 6160TIP3   OH239970   6.608   3.512  15.941 -0.0555  0.2239 -0.6215
 6160TIP3    H139971   6.703   3.501  15.943 -0.1039 -0.2375 -0.6440
 6160TIP3    H239972   6.594   3.595  15.897  0.3255  0.1242 -0.9364
 6161TIP3   OH239973   6.759   3.615   4.740 -0.3207 -0.2493  0.5652
 6161TIP3    H139974   6.802   3.530   4.747  2.1903  0.9352  0.4067
 6161TIP3    H239975   6.830   3.677   4.727 -2.1147  1.8562  0.2683
 6162TIP3   OH239976   1.242   1.406  12.620 -0.5623 -0.2285  0.4981
 6162TIP3    H139977   1.160   1.455  12.625 -0.0221  0.8171 -0.3063
 6162TIP3    H239978   1.290   1.447  12.548  1.2993  0.1462  1.8690
 6163TIP3   OH239979   3.476   2.998  14.847  0.0852  0.1974  0.3890
 6163TIP3    H139980   3.430   2.955  14.919  0.6200 -0.7198  0.2021
 6163TIP3    H239981   3.532   2.929  14.810 -1.3219  0.1503 -1.9006
 6164TIP3   OH239982   0.394   6.302  12.556  0.4313  0.1786 -0.0679
 6164TIP3    H139983   0.309   6.336  12.585 -0.3858 -1.8405  0.0445
 6164TIP3    H239984   0.435   6.376  12.511 -0.5521  1.7700  1.5226
 6165TIP3   OH239985   5.768   3.408  13.830  0.5386 -0.6849 -0.2747
 6165TIP3    H139986   5.674   3.396  13.845  0.6318 -1.2181 -0.1139
 6165TIP3    H239987   5.799   3.455  13.908  0.5049 -0.9933 -0.0740
 6166TIP3   OH239988   1.589   1.932   0.323  0.3055 -0.0567  0.3090
 6166TIP3    H139989   1.669   1.934   0.271 -0.5264  1.3803 -0.9822
 6166TIP3    H239990   1.616   1.960   0.411  1.2908 -0.0717  0.0136
 6167TIP3   OH239991   5.593   1.463   3.481  0.2707 -0.6127  0.2138
 6167TIP3    H139992   5.555   1.436   3.564 -0.6988  0.5715  0.1776
 6167TIP3    H239993   5.540   1.537   3.453 -0.5094 -2.0441 -2.3280
 6168TIP3   OH239994   5.375   3.605  11.051  0.5406 -0.4093  0.1274
 6168TIP3    H139995   5.397   3.538  10.986  0.9862 -1.1083  0.9839
 6168TIP3    H239996   5.460   3.629  11.089  0.6324  1.9259 -1.3604
 6169TIP3   OH239997   5.395   5.973  13.090  0.6343 -0.5486 -0.3570
 6169TIP3    H139998   5.319   6.017  13.128  0.1314  0.2973 -2.2144
 6169TIP3    H239999   5.454   5.958  13.164 -2.4731 -3.9061  1.7920
 6170TIP3   OH240000   4.201   3.711  15.847  0.4375 -0.2001  0.2509
 6170TIP3    H140001   4.162   3.641  15.900 -0.7973  2.4291  3.1967
 6170TIP3    H240002   4.290   3.719  15.881  0.0372  0.6793  1.1570
 6171TIP3   OH240003   1.875   4.381  12.160 -0.1760 -0.3081 -0.3632
 6171TIP3    H140004   1.897   4.461  12.208  0.3266 -1.2883  1.1263
 6171TIP3    H240005   1.784   4.393  12.134  0.0413  0.9560 -0.6228
 6172TIP3   OH240006   1.654   6.565   3.424  0.0238  0.1658 -0.0575
 6172TIP3    H140007   1.626   6.559   3.333  0.8337  0.1192 -0.3138
 6172TIP3    H240008   1.637   6.479   3.461  1.0245 -0.2746 -0.5734
 6173TIP3   OH240009   5.979   4.943  12.108 -0.4778  0.7162 -0.3632
 6173TIP3    H140010   6.059   4.991  12.130  0.1670 -1.6799  3.5207
 6173TIP3    H240011   5.908   4.999  12.140 -0.1707  1.4584 -0.9394
 6174TIP3   OH240012   0.071   5.467  11.854 -0.0772 -0.0349 -0.3078
 6174TIP3    H140013   0.080   5.560  11.874 -1.1986  0.6890 -2.7243
 6174TIP3    H240014   0.032   5.428  11.932 -0.0093  1.6100  0.5715
 6175TIP3   OH240015   0.876   0.710   1.536  0.6447 -0.0680  0.6265
 6175TIP3    H140016   0.828   0.650   1.593 -3.2877  1.8799 -0.2972
 6175TIP3    H240017   0.919   0.771   1.597  0.3338 -0.7279  1.5221
 6176TIP3   OH240018   3.252   1.520  14.457 -0.3905  0.3311  0.5116
 6176TIP3    H140019   3.192   1.586  14.493 -4.0937 -1.5196 -1.7302
 6176TIP3    H240020   3.305   1.568  14.394 -2.3929  1.4131 -0.4435
 6177TIP3   OH240021   3.683   2.569  11.307 -0.3682 -0.1725 -0.0165
 6177TIP3    H140022   3.667   2.489  11.256  3.9015 -1.8556  0.7996
 6177TIP3    H240023   3.719   2.631  11.243 -0.3677 -0.2071 -0.0497
 6178TIP3   OH240024   5.084   3.167   4.034 -0.3388 -0.6539 -0.1872
 6178TIP3    H140025   5.178   3.182   4.037  0.1245 -2.8023 -1.9782
 6178TIP3    H240026   5.074   3.080   3.996 -3.0759  0.0306 -1.2817
 6179TIP3   OH240027   1.764   0.919   4.270 -0.2209  0.5779  0.2321
 6179TIP3    H140028   1.750   0.991   4.332  0.1187  0.8197  0.0335
 6179TIP3    H240029   1.848   0.881   4.295  0.1397  0.9681 -0.3584
 6180TIP3   OH240030   4.272   5.285  13.180  0.1103  0.8579 -0.2397
 6180TIP3    H140031   4.363   5.303  13.206  0.1539  1.1577 -0.5863
 6180TIP3    H240032   4.278   5.210  13.122  0.0717  0.5207  0.1889
 6181TIP3   OH240033   5.416   2.290   0.462  0.0991 -0.0011  0.3640
 6181TIP3    H140034   5.509   2.312   0.462  0.7029 -2.2520 -0.8407
 6181TIP3    H240035   5.399   2.258   0.551  0.1257  1.5975  0.9690
 6182TIP3   OH240036   4.533   6.844   2.289 -0.9437 -0.1897 -0.2935
 6182TIP3    H140037   4.536   6.906   2.216 -0.1451 -0.1633 -0.2509
 6182TIP3    H240038   4.471   6.882   2.351 -0.0892  0.8466 -0.0388
 6183TIP3   OH240039   3.751   3.460  15.163 -0.4745  0.2021 -0.4925
 6183TIP3    H140040   3.740   3.373  15.201  0.4694  1.5403  3.2174
 6183TIP3    H240041   3.697   3.517  15.218  0.2929  2.2208 -1.7369
 6184TIP3   OH240042   6.829   5.615  14.543  0.2934  0.5774 -0.2893
 6184TIP3    H140043   6.853   5.659  14.462  0.1098  1.2766  0.0261
 6184TIP3    H240044   6.848   5.679  14.611 -1.1830  0.6454  0.0909
 6185TIP3   OH240045   5.853   3.769   5.552  0.4003 -0.1493  0.0639
 6185TIP3    H140046   5.858   3.688   5.602 -2.8147  0.2423  1.2508
 6185TIP3    H240047   5.895   3.834   5.607  1.5641 -0.6889 -0.1679
 6186TIP3   OH240048   0.445   3.676  17.092  0.1170 -0.5740  0.0512
 6186TIP3    H140049   0.391   3.616  17.142 -1.7462  0.2621 -0.8442
 6186TIP3    H240050   0.425   3.762  17.128  0.5595 -0.2115 -0.5504
 6187TIP3   OH240051   1.859   3.485  10.730 -0.8779 -0.0548 -0.1210
 6187TIP3    H140052   1.779   3.435  10.716  0.5532 -2.6474  0.2631
 6187TIP3    H240053   1.891   3.455  10.815  0.6885  0.6193 -0.4428
 6188TIP3   OH240054   0.592   0.435   3.359 -0.1005  0.0201  0.3300
 6188TIP3    H140055   0.675   0.439   3.311 -0.5163  1.1738 -0.3316
 6188TIP3    H240056   0.552   0.521   3.345 -0.7808 -0.0271  1.7894
 6189TIP3   OH240057   3.095   3.992   0.211 -0.2159  0.3589 -0.1995
 6189TIP3    H140058   3.166   3.949   0.164 -0.0992  0.2520  0.0698
 6189TIP3    H240059   3.016   3.943   0.187 -0.1681  0.3486 -0.3352
 6190TIP3   OH240060   3.531   5.307   5.752  0.2961 -0.4056 -0.4801
 6190TIP3    H140061   3.548   5.246   5.680  2.7828 -1.1840  0.6674
 6190TIP3    H240062   3.608   5.363   5.755 -0.3618  0.4957  0.7563
 6191TIP3   OH240063   2.264   3.115  16.473 -0.3475  0.5367 -0.2225
 6191TIP3    H140064   2.194   3.066  16.516  0.2980  0.5383  0.8420
 6191TIP3    H240065   2.286   3.061  16.396 -1.5481  0.5755 -0.6285
 6192TIP3   OH240066   5.539   4.960   0.153  0.1108 -0.4835 -0.2362
 6192TIP3    H140067   5.574   5.013   0.082  1.6602 -0.7165  0.3128
 6192TIP3    H240068   5.462   5.008   0.183  0.0165  0.1281 -1.3955
 6193TIP3   OH240069   1.368   0.705  12.005  0.5286 -0.0304 -0.5545
 6193TIP3    H140070   1.433   0.723  12.073 -1.2710  0.0201  1.2593
 6193TIP3    H240071   1.349   0.791  11.967  1.2612  0.0012 -0.8535
 6194TIP3   OH240072   6.346   2.926   1.886  0.0648 -0.1835  0.3546
 6194TIP3    H140073   6.364   3.003   1.831  2.7690 -0.1026  1.2025
 6194TIP3    H240074   6.272   2.953   1.941 -0.9982  0.6692 -1.4014
 6195TIP3   OH240075   0.044   2.403   3.667 -0.3764  0.5094 -0.2872
 6195TIP3    H140076   0.116   2.346   3.694 -0.4700 -0.3479 -1.7421
 6195TIP3    H240077   0.027   2.458   3.744  1.6141  0.5361  0.1965
 6196TIP3   OH240078   5.956   2.192   4.052 -0.6730  0.2673  0.0647
 6196TIP3    H140079   6.030   2.247   4.026 -1.1309  0.7233 -0.2916
 6196TIP3    H240080   5.880   2.234   4.013 -0.9474 -1.1029 -0.9356
 6197TIP3   OH240081   0.478   4.487  14.304  0.4092  0.3010  0.3219
 6197TIP3    H140082   0.404   4.514  14.250  1.5928  0.9082 -1.0604
 6197TIP3    H240083   0.462   4.394  14.321 -0.3316  0.2553 -0.5347
 6198TIP3   OH240084   6.683   2.202   4.860 -0.0238 -0.0784  0.0518
 6198TIP3    H140085   6.719   2.290   4.875 -0.8136  0.6773 -2.1751
 6198TIP3    H240086   6.760   2.145   4.859  0.6489  0.8040  0.0424
 6199TIP3   OH240087   3.670   2.066  14.321  0.0196  0.3503  0.1597
 6199TIP3    H140088   3.714   2.003  14.378 -1.6486 -0.5590  0.5016
 6199TIP3    H240089   3.654   2.142  14.378 -0.3234  0.0275  0.4982
 6200TIP3   OH240090   2.819   1.733  15.920  0.2455 -0.7189 -0.4308
 6200TIP3    H140091   2.906   1.702  15.946  0.3306 -0.3032 -0.2070
 6200TIP3    H240092   2.795   1.796  15.988 -0.5966 -1.4480 -0.0356
 6201TIP3   OH240093   2.082   2.164  15.026 -0.0381 -0.0672 -0.3202
 6201TIP3    H140094   2.066   2.236  15.087  0.3202  0.0870 -0.4040
 6201TIP3    H240095   2.152   2.113  15.066 -0.5672 -0.6098 -0.0624
 6202TIP3   OH240096   0.280   0.182  14.558 -0.3172  0.0590  0.1831
 6202TIP3    H140097   0.368   0.154  14.585 -0.1038  1.8382  1.5331
 6202TIP3    H240098   0.296   0.241  14.485 -0.4650 -0.2978 -0.1388
 6203TIP3   OH240099   6.203   0.755  15.300 -0.0698  0.1739 -0.1716
 6203TIP3    H140100   6.122   0.752  15.349 -0.1327  0.8171 -0.2191
 6203TIP3    H240101   6.184   0.814  15.226  0.9283  1.7794  0.7782
 6204TIP3   OH240102   0.158   4.019   4.979  0.2149  0.4018 -0.4459
 6204TIP3    H140103   0.076   4.036   5.024 -0.7075 -1.5925 -1.2478
 6204TIP3    H240104   0.224   4.068   5.029 -0.8820 -0.9241  2.5198
 6205TIP3   OH240105   0.294   4.724   0.306  0.0302 -0.6193  0.2525
 6205TIP3    H140106   0.377   4.771   0.293 -0.1120 -0.4695 -0.1342
 6205TIP3    H240107   0.245   4.740   0.226 -0.2336 -1.0027  0.3354
 6206TIP3   OH240108   3.725   5.493   5.474  0.8702  0.3882  0.1021
 6206TIP3    H140109   3.733   5.475   5.568  1.7721 -0.0143 -0.0468
 6206TIP3    H240110   3.729   5.589   5.468 -0.2724  0.4745  0.5638
 6207TIP3   OH240111   5.187   2.858   1.969 -0.0423 -0.7989 -0.1938
 6207TIP3    H140112   5.219   2.814   2.049 -0.1464 -1.0807 -0.3059
 6207TIP3    H240113   5.266   2.893   1.928  0.1781 -1.8123 -0.6630
 6208TIP3   OH240114   5.590   6.143  11.505 -0.5993 -0.3056 -0.1114
 6208TIP3    H140115   5.578   6.238  11.498 -1.0471 -0.4927 -2.3694
 6208TIP3    H240116   5.629   6.117  11.422 -1.2996 -2.2274  0.1153
 6209TIP3   OH240117   4.148   1.990  16.633 -0.0008  0.4865 -0.0960
 6209TIP3    H140118   4.079   1.937  16.674 -0.6443  1.9780  0.8433
 6209TIP3    H240119   4.226   1.935  16.636 -0.6074 -0.3547  0.9772
 6210TIP3   OH240120   5.155   2.348   4.554 -0.2603  0.1365 -0.4597
 6210TIP3    H140121   5.067   2.344   4.516 -0.0039 -0.8949 -0.9791
 6210TIP3    H240122   5.211   2.377   4.481 -0.3842  2.6088  0.3098
 6211TIP3   OH240123   1.019   3.049   5.532 -0.5072  0.1237 -0.1001
 6211TIP3    H140124   1.008   3.104   5.609 -0.1882  0.4890 -0.3164
 6211TIP3    H240125   1.037   2.962   5.568 -2.2856 -0.1432  0.2612
 6212TIP3   OH240126   0.740   2.015   3.661 -0.0067  0.4160 -0.0257
 6212TIP3    H140127   0.783   1.940   3.702 -1.9372 -0.4234  0.5963
 6212TIP3    H240128   0.768   2.012   3.570 -0.5807 -1.5361 -0.1938
 6213TIP3   OH240129   6.723   3.503   2.348  0.0976  0.1904 -0.3635
 6213TIP3    H140130   6.705   3.543   2.263 -3.5434  1.2554  0.7114
 6213TIP3    H240131   6.758   3.417   2.327 -0.5664  0.4551 -2.9415
 6214TIP3   OH240132   6.759   1.069   5.778  0.2336  0.3331 -0.6183
 6214TIP3    H140133   6.817   1.125   5.829  0.1461 -0.0452 -0.0950
 6214TIP3    H240134   6.748   1.115   5.695  1.7253  0.1491 -0.9565
 6215TIP3   OH240135   3.217   3.281  14.451 -0.2546 -0.0337 -0.0651
 6215TIP3    H140136   3.267   3.355  14.417  0.0307 -0.1839  0.0292
 6215TIP3    H240137   3.270   3.246  14.522 -1.1517  0.7008  1.0211
 6216TIP3   OH240138   0.724   4.065  12.984  0.1462 -1.0413  0.3693
 6216TIP3    H140139   0.798   4.015  12.949  0.2343 -0.5951 -0.0912
 6216TIP3    H240140   0.650   4.040  12.929  0.1065 -0.9641  0.3882
 6217TIP3   OH240141   6.471   0.082  16.776  0.1446 -0.0733  0.1700
 6217TIP3    H140142   6.445   0.076  16.867 -1.1205 -0.3398 -0.1836
 6217TIP3    H240143   6.492   0.175  16.762 -1.0474  0.2448  0.3899
 6218TIP3   OH240144   1.812   0.632   2.399 -0.2206  0.1384 -0.1362
 6218TIP3    H140145   1.732   0.583   2.380  0.5651 -1.0742 -0.4442
 6218TIP3    H240146   1.845   0.661   2.314  0.2273 -0.3014 -0.1204
 6219TIP3   OH240147   5.921   1.192   4.660  0.4799  0.4652 -0.1393
 6219TIP3    H140148   5.901   1.227   4.746 -1.3546 -0.4887 -0.1336
 6219TIP3    H240149   5.850   1.130   4.641  1.0388  0.3451 -2.1595
 6220TIP3   OH240150   3.252   2.339   5.376  0.3850 -0.2271  0.2322
 6220TIP3    H140151   3.163   2.317   5.404  0.7474 -0.2356  1.4715
 6220TIP3    H240152   3.272   2.420   5.423  1.4482 -0.8652  0.9464
 6221TIP3   OH240153   1.826   1.024   2.417  0.3713  0.2882 -0.3003
 6221TIP3    H140154   1.771   0.946   2.418  0.4612  0.2178  1.1763
 6221TIP3    H240155   1.862   1.027   2.329  1.0480 -1.8306 -0.1575
 6222TIP3   OH240156   5.537   0.610   3.355 -0.0169  0.5751  0.5596
 6222TIP3    H140157   5.541   0.626   3.261  1.3474 -0.0949  0.4712
 6222TIP3    H240158   5.613   0.657   3.390  1.5406 -1.9522  0.8388
 6223TIP3   OH240159   4.166   3.438   5.093  0.4254  0.1744 -0.1485
 6223TIP3    H140160   4.093   3.445   5.032  0.1610 -1.2199 -0.0183
 6223TIP3    H240161   4.145   3.362   5.147  0.8333  1.1492  1.4508
 6224TIP3   OH240162   2.435   2.671  12.730  0.2353  0.4623  0.5752
 6224TIP3    H140163   2.356   2.678  12.784 -1.3421  1.8420 -1.7393
 6224TIP3    H240164   2.425   2.739  12.663  2.4150 -0.6602 -1.0292
 6225TIP3   OH240165   4.897   0.184  13.021 -0.7968 -0.1746  0.1288
 6225TIP3    H140166   4.840   0.195  12.945  0.0550  0.4259 -0.4474
 6225TIP3    H240167   4.843   0.139  13.086 -1.2649 -1.6002 -1.1735
 6226TIP3   OH240168   4.173   0.712   0.253 -0.5247  0.2794  0.1783
 6226TIP3    H140169   4.084   0.681   0.269 -0.1092 -0.6140  0.8448
 6226TIP3    H240170   4.213   0.718   0.339  0.0425  0.7663 -0.1073
 6227TIP3   OH240171   1.387   6.589   6.063 -0.7596 -0.0951  0.1775
 6227TIP3    H140172   1.476   6.559   6.084 -0.3883  0.7802 -0.0978
 6227TIP3    H240173   1.347   6.610   6.147  0.4781  2.7399  0.1681
 6228TIP3   OH240174   1.040   1.130   3.464  0.2126 -0.3045  0.2025
 6228TIP3    H140175   0.961   1.147   3.413  0.1984  0.0014  0.3195
 6228TIP3    H240176   1.098   1.082   3.405 -0.5001 -1.5410  0.4719
 6229TIP3   OH240177   3.010   5.093  14.835  0.5168  0.1998 -0.6420
 6229TIP3    H140178   2.931   5.104  14.783  0.0699  1.3540  0.2410
 6229TIP3    H240179   3.076   5.147  14.790  0.5087  0.0900 -0.7841
 6230TIP3   OH240180   0.568   6.537  11.240  0.3086  0.1601 -0.2924
 6230TIP3    H140181   0.600   6.627  11.232 -1.6049  1.2544  2.5551
 6230TIP3    H240182   0.637   6.490  11.285  0.6491  0.6564 -0.2920
 6231TIP3   OH240183   0.073   6.585   3.072 -0.0825 -0.2454  0.1873
 6231TIP3    H140184   0.077   6.647   3.144 -0.5837 -1.0923  0.9707
 6231TIP3    H240185   0.147   6.607   3.016  1.4634 -0.7481  1.9516
 6232TIP3   OH240186   4.409   6.842   0.920 -0.1558 -0.0783 -0.0353
 6232TIP3    H140187   4.501   6.819   0.931 -0.3964 -1.0652 -0.0129
 6232TIP3    H240188   4.362   6.760   0.932 -1.3068  0.8662  3.0864
 6233TIP3   OH240189   6.458   4.765  13.512 -0.3796 -0.0765  0.4038
 6233TIP3    H140190   6.392   4.696  13.525  0.0079 -0.1179  2.4529
 6233TIP3    H240191   6.503   4.771  13.596 -0.1705  2.4526  0.1706
 6234TIP3   OH240192   3.214   5.770   5.249  0.6358 -0.0569  0.1511
 6234TIP3    H140193   3.176   5.849   5.288  1.8378  0.3981  0.4485
 6234TIP3    H240194   3.301   5.798   5.220  0.7304 -1.0543 -0.5589
 6235TIP3   OH240195   2.524   6.602  16.935 -0.4957 -0.1773 -0.5238
 6235TIP3    H140196   2.451   6.554  16.975 -0.0468  1.0845  1.9967
 6235TIP3    H240197   2.501   6.694  16.946  0.5657  0.2330 -1.5297
 6236TIP3   OH240198   4.911   1.116  10.451  0.1760 -0.0199  0.4256
 6236TIP3    H140199   4.856   1.155  10.383  0.3283  2.5307  1.6120
 6236TIP3    H240200   4.960   1.047  10.406  0.2573  1.5227 -2.0741
 6237TIP3   OH240201   6.227   5.296  14.436  0.8474  0.4190  0.5561
 6237TIP3    H140202   6.212   5.324  14.526  0.4650 -0.4941  0.7864
 6237TIP3    H240203   6.224   5.377  14.385  0.0917  0.8379  1.2416
 6238TIP3   OH240204   3.777   6.134   5.848  0.1001 -0.4670 -0.4286
 6238TIP3    H140205   3.733   6.140   5.933  0.2688 -1.3404 -0.2695
 6238TIP3    H240206   3.870   6.123   5.869  0.7132  3.0550 -0.7719
 6239TIP3   OH240207   4.156   5.261  14.676 -0.3452 -0.0050  0.4654
 6239TIP3    H140208   4.225   5.291  14.618  0.7635 -0.4912  1.5074
 6239TIP3    H240209   4.141   5.334  14.736  0.0121 -0.2917  0.9060
 6240TIP3   OH240210   2.284   2.585   4.904  0.2178  0.1064 -0.1006
 6240TIP3    H140211   2.309   2.610   4.815  0.7026 -0.0913 -0.0268
 6240TIP3    H240212   2.273   2.668   4.950  2.0476  0.2261  0.2083
 6241TIP3   OH240213   2.728   6.439   1.644 -0.0489  0.4915  0.2389
 6241TIP3    H140214   2.683   6.354   1.636  0.2845  0.2645  0.7701
 6241TIP3    H240215   2.723   6.460   1.737  1.8992 -0.0613  0.5032
 6242TIP3   OH240216   6.502   1.199  11.118 -0.4507  0.4956 -0.1130
 6242TIP3    H140217   6.422   1.158  11.151 -2.2039  2.7562 -1.2670
 6242TIP3    H240218   6.540   1.134  11.059 -1.2488 -0.7308  0.6702
 6243TIP3   OH240219   0.506   0.509  16.381  0.2113  0.5758 -0.0996
 6243TIP3    H140220   0.439   0.493  16.315  1.4025 -0.4780 -1.1146
 6243TIP3    H240221   0.482   0.451  16.453  0.7809 -0.9163 -1.0481
 6244TIP3   OH240222   2.938   1.615  11.436 -0.0275  0.2958 -0.2923
 6244TIP3    H140223   2.860   1.664  11.410 -0.0857  0.9242  0.9641
 6244TIP3    H240224   2.992   1.679  11.483 -0.0904 -0.7889  1.3476
 6245TIP3   OH240225   4.359   0.603   5.698 -0.0732 -0.1387  0.5753
 6245TIP3    H140226   4.427   0.584   5.633  0.1582 -2.3114  1.3810
 6245TIP3    H240227   4.335   0.518   5.734 -1.0120  0.8834  2.5375
 6246TIP3   OH240228   3.077   6.784  13.596 -0.4435 -0.4698 -0.2179
 6246TIP3    H140229   2.997   6.809  13.551 -0.8309 -1.2924 -0.0095
 6246TIP3    H240230   3.145   6.837  13.555 -1.0794  0.2126 -0.4252
 6247TIP3   OH240231   3.346   4.636   0.229  0.6868  0.4107  0.6596
 6247TIP3    H140232   3.392   4.566   0.183 -0.1361  0.7114 -0.6539
 6247TIP3    H240233   3.415   4.687   0.271  1.4399  0.0249 -0.0988
 6248TIP3   OH240234   6.093   2.145   1.195 -0.6512  0.2471 -0.2377
 6248TIP3    H140235   6.123   2.127   1.284 -0.1959  0.9651 -0.2451
 6248TIP3    H240236   6.171   2.137   1.140 -1.1419 -1.3664 -0.7561
 6249TIP3   OH240237   1.664   3.459   4.366  0.0420 -0.3177  0.3572
 6249TIP3    H140238   1.679   3.489   4.456  3.9112  0.3174 -0.3358
 6249TIP3    H240239   1.585   3.405   4.372 -0.0594 -0.0189  4.0506
 6250TIP3   OH240240   1.184   6.226   0.297 -0.3115 -0.1652 -0.5909
 6250TIP3    H140241   1.113   6.175   0.259 -1.6524  0.2734  1.2131
 6250TIP3    H240242   1.166   6.227   0.391  2.6069 -0.8601  0.0973
 6251TIP3   OH240243   5.333   1.761  12.346  0.2177 -0.3107  0.1885
 6251TIP3    H140244   5.416   1.771  12.299 -0.0095  0.5443 -0.0559
 6251TIP3    H240245   5.340   1.677  12.391  1.8000  0.3836  1.3132
 6252TIP3   OH240246   0.508   0.428  15.686  0.0889  0.3040  0.0437
 6252TIP3    H140247   0.482   0.359  15.747 -0.0322 -0.0951 -0.4490
 6252TIP3    H240248   0.603   0.418  15.677  0.0830  0.2527  0.0371
 6253TIP3   OH240249   0.359   2.816  13.942  0.1331  0.6340 -0.5532
 6253TIP3    H140250   0.444   2.860  13.939  0.7966 -0.6188 -0.7211
 6253TIP3    H240251   0.378   2.728  13.975 -1.1936  0.5325 -0.0047
 6254TIP3   OH240252   6.357   6.585   0.976 -0.2223  0.6021  0.3361
 6254TIP3    H140253   6.441   6.631   0.980 -1.9464  4.2398 -1.0179
 6254TIP3    H240254   6.347   6.563   0.883  0.4563 -2.6466  0.9064
 6255TIP3   OH240255   0.242   3.883  11.734  0.5349 -0.0617 -0.0117
 6255TIP3    H140256   0.191   3.939  11.792  0.0588 -0.3858 -0.1068
 6255TIP3    H240257   0.215   3.909  11.646 -1.3549 -1.8961 -0.0508
 6256TIP3   OH240258   5.437   1.666  13.955  0.4263  0.0392  0.3552
 6256TIP3    H140259   5.375   1.594  13.967  2.4721 -2.0826 -0.8775
 6256TIP3    H240260   5.505   1.650  14.020  0.6904  1.1657  0.3715
 6257TIP3   OH240261   6.360   5.276   4.287 -0.6081  0.3079 -0.3179
 6257TIP3    H140262   6.452   5.293   4.269 -0.5908 -1.2341 -1.9567
 6257TIP3    H240263   6.343   5.190   4.249 -2.1869 -0.4980  1.9657
 6258TIP3   OH240264   4.170   3.878   1.384  0.1726  0.0156  0.2503
 6258TIP3    H140265   4.200   3.892   1.474  1.5799  2.7409 -0.5387
 6258TIP3    H240266   4.074   3.887   1.389  0.1977 -0.2511  1.5141
 6259TIP3   OH240267   1.164   6.103  12.044  0.1691  0.1112 -0.4168
 6259TIP3    H140268   1.259   6.092  12.055  0.1102  0.0735  0.0811
 6259TIP3    H240269   1.125   6.040  12.105 -0.1749  0.5546 -0.1696
 6260TIP3   OH240270   2.636   2.598   1.456 -0.5458  0.1608  0.0941
 6260TIP3    H140271   2.672   2.670   1.508  2.7531  0.0940 -1.8101
 6260TIP3    H240272   2.614   2.531   1.520  2.8173  0.2802  1.6042
 6261TIP3   OH240273   0.316   4.786  16.018  0.2469  0.1414 -0.3217
 6261TIP3    H140274   0.291   4.873  15.987  0.9286  0.5677  0.3047
 6261TIP3    H240275   0.286   4.727  15.949  0.2403  0.9143 -1.0008
 6262TIP3   OH240276   6.144   1.268   3.066 -0.6865 -0.3398 -0.4038
 6262TIP3    H140277   6.237   1.288   3.058 -0.3763 -1.5978 -0.2059
 6262TIP3    H240278   6.134   1.185   3.020 -1.9333  0.3100 -1.3670
 6263TIP3   OH240279   0.316   3.894   0.112  0.5980  0.0990 -0.2726
 6263TIP3    H140280   0.307   3.858   0.200 -1.9150  0.5391 -0.2889
 6263TIP3    H240281   0.345   3.984   0.125  1.4163 -0.1979  0.0215
 6264TIP3   OH240282   0.205   2.981   0.151 -0.3472  0.1525  0.4648
 6264TIP3    H140283   0.249   3.057   0.187 -0.4224  0.3031  0.2393
 6264TIP3    H240284   0.271   2.912   0.153 -0.0675  0.4046  0.0313
 6265TIP3   OH240285   2.925   0.617  14.923  0.1208 -0.2502 -0.1698
 6265TIP3    H140286   2.927   0.522  14.919  1.0396 -0.3047  1.0578
 6265TIP3    H240287   2.892   0.644  14.837  1.8439 -1.5968 -1.3161
 6266TIP3   OH240288   3.264   6.400   5.674 -0.1814 -0.0951 -0.3505
 6266TIP3    H140289   3.295   6.465   5.737 -1.0735  1.1495 -1.1455
 6266TIP3    H240290   3.198   6.349   5.721  0.1559 -0.0880  0.1306
 6267TIP3   OH240291   5.849   2.925   0.309  0.1268  0.2580  0.2590
 6267TIP3    H140292   5.841   2.953   0.400 -1.8819  2.0354 -0.3708
 6267TIP3    H240293   5.784   2.856   0.299 -1.0976  1.4498 -0.2673
 6268TIP3   OH240294   0.234   0.473   2.739 -0.0426 -0.3333 -0.2283
 6268TIP3    H140295   0.267   0.539   2.799 -0.0312 -0.2150 -0.3646
 6268TIP3    H240296   0.274   0.494   2.655 -0.4821 -0.1755 -0.3991
 6269TIP3   OH240297   1.292   6.312  13.255  0.1231  0.4406  0.3465
 6269TIP3    H140298   1.381   6.306  13.220 -0.4989  1.6200 -1.6069
 6269TIP3    H240299   1.251   6.229  13.231 -0.0734  0.9512 -1.1652
 6270TIP3   OH240300   3.078   0.307   4.210  0.1826 -0.0657  0.0412
 6270TIP3    H140301   3.033   0.347   4.284  0.5015  0.5906 -0.1125
 6270TIP3    H240302   3.042   0.219   4.205 -1.3258  0.5434 -0.2924
 6271TIP3   OH240303   2.381   5.821  13.019 -0.0392 -0.0264 -0.1994
 6271TIP3    H140304   2.395   5.860  13.106  2.6023  0.9415 -0.9876
 6271TIP3    H240305   2.335   5.888  12.970 -2.1016 -0.8039  0.5347
 6272TIP3   OH240306   2.138   2.268  16.366  0.3064  0.4590  0.1038
 6272TIP3    H140307   2.187   2.187  16.374 -0.0904  0.2287  0.2543
 6272TIP3    H240308   2.203   2.337  16.375  0.4304  0.1834  1.6519
 6273TIP3   OH240309   4.013   5.486   1.841  0.2173  0.2342  0.6535
 6273TIP3    H140310   3.956   5.561   1.822  0.2248  0.8470  2.8560
 6273TIP3    H240311   4.095   5.506   1.796 -0.7054  0.1263 -1.1764
 6274TIP3   OH240312   1.208   6.160  11.192  0.0891 -0.0493 -0.7674
 6274TIP3    H140313   1.267   6.145  11.118  0.9542 -0.4085 -0.0117
 6274TIP3    H240314   1.191   6.073  11.228  0.2079  0.1875 -0.1295
 6275TIP3   OH240315   0.641   2.050   4.252  0.1077 -0.6170 -0.1526
 6275TIP3    H140316   0.643   2.117   4.183 -0.0500 -1.5930 -1.1278
 6275TIP3    H240317   0.601   1.974   4.210  0.1740 -1.2879  0.9765
 6276TIP3   OH240318   0.416   5.785   5.147  0.0239 -0.4792 -0.3217
 6276TIP3    H140319   0.452   5.790   5.235  0.2628 -1.5609 -0.3478
 6276TIP3    H240320   0.322   5.776   5.160 -0.1099  0.8214 -0.2258
 6277TIP3   OH240321   1.621   6.851   6.222 -0.2404 -0.6158 -0.4170
 6277TIP3    H140322   1.661   6.769   6.250 -0.8139 -0.6697  0.2586
 6277TIP3    H240323   1.662   6.918   6.276  0.0433 -0.4829 -0.7919
 6278TIP3   OH240324   1.142   6.238   5.871  0.3537  0.3184  0.0491
 6278TIP3    H140325   1.162   6.216   5.962  1.5686  2.2549  0.3123
 6278TIP3    H240326   1.048   6.255   5.870 -0.2669 -2.6096  0.2362
 6279TIP3   OH240327   0.135   4.392  12.618 -0.6287 -0.0277 -0.7366
 6279TIP3    H140328   0.117   4.298  12.620  0.1907 -0.1889 -0.1376
 6279TIP3    H240329   0.089   4.424  12.540 -0.9598 -0.9131 -0.9179
 6280TIP3   OH240330   4.094   2.641   4.186  0.3386 -1.0569 -0.3131
 6280TIP3    H140331   4.030   2.710   4.205 -1.1347 -1.4917 -3.1911
 6280TIP3    H240332   4.173   2.688   4.161  0.4508 -0.4909  1.0093
 6281TIP3   OH240333   2.141   1.168   5.755  0.2286  0.2874 -0.0576
 6281TIP3    H140334   2.142   1.158   5.659 -1.0992  1.1416 -0.1795
 6281TIP3    H240335   2.166   1.081   5.788 -0.7190 -0.4498 -1.1679
 6282TIP3   OH240336   1.738   4.841  16.827 -0.4365 -0.3594 -0.0607
 6282TIP3    H140337   1.800   4.850  16.755 -0.4874 -0.5324 -0.1267
 6282TIP3    H240338   1.792   4.821  16.903  0.0456  3.4320  0.7908
 6283TIP3   OH240339   4.316   2.188   5.390  1.1123  0.6427 -0.4059
 6283TIP3    H140340   4.338   2.126   5.460  2.3744  0.7149 -0.7158
 6283TIP3    H240341   4.384   2.174   5.324 -1.2799 -1.0769 -2.7315
 6284TIP3   OH240342   6.768   2.802  10.307 -0.4401 -0.3105  0.9036
 6284TIP3    H140343   6.781   2.820  10.214  1.1546 -0.5463  1.0610
 6284TIP3    H240344   6.840   2.743  10.331 -1.4016 -1.0704  2.0612
 6285TIP3   OH240345   1.753   1.087  14.179 -0.3762  0.4776 -0.0508
 6285TIP3    H140346   1.729   1.166  14.228  0.6405  0.1281  1.0610
 6285TIP3    H240347   1.834   1.111  14.134 -0.7165  0.4396 -0.6976
 6286TIP3   OH240348   2.641   4.237   2.636 -0.0838 -0.3805 -0.7147
 6286TIP3    H140349   2.647   4.175   2.709  1.4201 -1.4731 -1.7096
 6286TIP3    H240350   2.717   4.294   2.646 -0.9526  0.7567 -0.3358
 6287TIP3   OH240351   0.280   2.365   4.528  0.3651  0.1547  0.1773
 6287TIP3    H140352   0.328   2.447   4.537 -2.4859  2.0612 -0.2706
 6287TIP3    H240353   0.284   2.325   4.614  2.8067  0.0855  0.1001
 6288TIP3   OH240354   6.507   4.360  16.589  0.0230 -0.0582 -0.0023
 6288TIP3    H140355   6.602   4.365  16.584  0.0391  0.1729  0.4732
 6288TIP3    H240356   6.490   4.282  16.641 -0.0229  0.4034  0.6881
 6289TIP3   OH240357   2.738   3.740   3.989  0.1288 -0.1989 -0.3298
 6289TIP3    H140358   2.833   3.751   3.997  0.2404 -0.4638 -1.2290
 6289TIP3    H240359   2.702   3.795   4.059  0.9245  0.3805 -0.3552
 6290TIP3   OH240360   3.572   2.446  12.570  0.3500 -0.4174 -0.3779
 6290TIP3    H140361   3.608   2.376  12.624 -0.2952 -1.3205 -1.0970
 6290TIP3    H240362   3.483   2.417  12.548 -0.4185  1.2233  0.3786
 6291TIP3   OH240363   3.684   5.405  12.070  0.6248 -0.3348  0.4379
 6291TIP3    H140364   3.751   5.456  12.024 -0.0132  0.0525 -0.0733
 6291TIP3    H240365   3.710   5.408  12.162  2.5287 -2.0033  0.0477
 6292TIP3   OH240366   4.059   4.811   3.191 -0.3804 -0.6226 -0.5034
 6292TIP3    H140367   4.028   4.850   3.272 -0.0568 -0.0287 -0.6565
 6292TIP3    H240368   4.147   4.848   3.178 -0.0080 -1.5044 -0.5903
 6293TIP3   OH240369   3.857   2.957  12.205 -0.0718 -0.3114  0.0202
 6293TIP3    H140370   3.912   3.035  12.199 -1.7333  1.0685  1.5270
 6293TIP3    H240371   3.873   2.922  12.292  0.6385 -1.7043 -0.6310
 6294TIP3   OH240372   2.010   5.410   3.488  0.4205  0.4041 -0.2905
 6294TIP3    H140373   1.996   5.392   3.395  2.2978  1.5705 -0.8535
 6294TIP3    H240374   1.972   5.335   3.533  3.5876 -2.6560 -2.2264
 6295TIP3   OH240375   6.789   4.889   5.847  0.0017  0.3266  0.6122
 6295TIP3    H140376   6.814   4.831   5.775  2.9840  2.5676 -0.3644
 6295TIP3    H240377   6.769   4.830   5.920 -1.3922 -1.9577 -1.4638
 6296TIP3   OH240378   4.155   2.370   0.832 -0.3267  0.5735 -0.0694
 6296TIP3    H140379   4.161   2.464   0.816 -0.8732  0.7359  0.6155
 6296TIP3    H240380   4.082   2.341   0.777  1.4455  0.0457 -2.2924
 6297TIP3   OH240381   5.637   4.624  11.510 -0.5457  0.6230  0.1281
 6297TIP3    H140382   5.618   4.718  11.511 -2.7134  0.2553 -0.1585
 6297TIP3    H240383   5.696   4.611  11.584 -2.5293  1.8397  2.0751
 6298TIP3   OH240384   5.609   4.374   0.543 -0.1872 -0.4139 -0.5351
 6298TIP3    H140385   5.552   4.301   0.517 -2.5112  0.0697  2.4857
 6298TIP3    H240386   5.675   4.334   0.600 -0.8344 -0.3585  0.2814
 6299TIP3   OH240387   2.697   3.619  10.454  0.0761  0.1395  0.0465
 6299TIP3    H140388   2.650   3.674  10.391  0.2167  1.0858  0.7501
 6299TIP3    H240389   2.788   3.620  10.423  0.0519  0.1924 -0.0247
 6300TIP3   OH240390   3.724   1.215   1.804  0.4475  0.2188 -0.1235
 6300TIP3    H140391   3.817   1.198   1.794  0.7714 -0.4985  3.0452
 6300TIP3    H240392   3.706   1.288   1.744  2.5575 -0.7965 -2.1815
 6301TIP3   OH240393   3.279   4.958  13.380 -0.3632 -0.5257  0.0281
 6301TIP3    H140394   3.319   4.872  13.366  3.5169  0.9447  0.9730
 6301TIP3    H240395   3.310   4.985  13.466 -0.8988  2.1393 -0.5415
 6302TIP3   OH240396   0.834   5.620   3.434 -0.2291 -0.2201  0.0292
 6302TIP3    H140397   0.898   5.625   3.364 -0.5715 -0.0774 -0.2757
 6302TIP3    H240398   0.817   5.526   3.444  0.1187 -0.2685  0.2000
 6303TIP3   OH240399   2.961   2.211  16.549 -0.5866  0.3925 -0.5278
 6303TIP3    H140400   2.887   2.207  16.610 -0.8871  2.0324 -0.7337
 6303TIP3    H240401   3.020   2.277  16.588  0.0427  0.1950 -1.1288
 6304TIP3   OH240402   5.096   4.325   2.416 -0.3770  0.1228  0.3536
 6304TIP3    H140403   5.175   4.323   2.362  0.0403 -0.7679  0.9845
 6304TIP3    H240404   5.113   4.264   2.487 -0.5809  1.8524  1.9852
 6305TIP3   OH240405   1.878   3.254   0.842 -0.3874  0.0876 -0.2921
 6305TIP3    H140406   1.813   3.324   0.840 -1.3006 -0.7455 -1.7343
 6305TIP3    H240407   1.961   3.299   0.861 -1.2610  1.2558  0.9307
 6306TIP3   OH240408   3.089   2.274  11.875 -0.2513 -0.4987  0.1302
 6306TIP3    H140409   3.035   2.211  11.828 -0.9182 -0.8444  1.3303
 6306TIP3    H240410   3.111   2.340  11.809 -1.0257 -1.0453 -0.7002
 6307TIP3   OH240411   2.496   2.157   0.047  0.3798  0.3455  0.5816
 6307TIP3    H140412   2.438   2.197   0.112 -0.7119  0.5507 -0.4878
 6307TIP3    H240413   2.479   2.064   0.053  0.4740  0.3391  0.7623
 6308TIP3   OH240414   5.423   3.334  13.291  0.1637  0.0424 -0.4262
 6308TIP3    H140415   5.373   3.252  13.292 -0.2355  0.2819 -0.2046
 6308TIP3    H240416   5.502   3.315  13.342 -0.9569  0.4223  1.5774
 6309TIP3   OH240417   5.462   3.572  12.068 -0.6881  0.6517  0.5049
 6309TIP3    H140418   5.547   3.580  12.025 -0.4881 -1.3056  0.4757
 6309TIP3    H240419   5.482   3.533  12.153 -1.5759 -0.0346  0.4095
 6310TIP3   OH240420   1.205   2.764  11.072 -0.1306  0.0258  0.1784
 6310TIP3    H140421   1.300   2.765  11.071 -0.0443 -1.2644  1.9441
 6310TIP3    H240422   1.181   2.816  11.149 -0.6983 -1.7725  1.2810
 6311TIP3   OH240423   3.265   1.963   5.204 -0.4264 -0.1489  0.5778
 6311TIP3    H140424   3.178   1.924   5.194 -0.4117 -0.3367  1.1268
 6311TIP3    H240425   3.264   2.002   5.291  0.0653 -0.2271  0.6226
 6312TIP3   OH240426   1.628   2.446   4.216 -0.1255 -0.6654  0.2331
 6312TIP3    H140427   1.710   2.488   4.189  0.1329 -0.7837  0.8214
 6312TIP3    H240428   1.598   2.497   4.291 -2.3458  1.4729 -1.9017
 6313TIP3   OH240429   5.985   6.444  13.619 -0.3005  0.5095  0.2161
 6313TIP3    H140430   6.023   6.526  13.652 -0.4064  0.9651 -0.7485
 6313TIP3    H240431   5.934   6.411  13.693  2.2988 -0.3967  1.7174
 6314TIP3   OH240432   4.218   4.418   4.229  0.1108  0.6704 -0.3250
 6314TIP3    H140433   4.240   4.465   4.310 -1.4219 -0.0748  0.5533
 6314TIP3    H240434   4.167   4.481   4.178 -2.2907 -0.0955  1.0260
 6315TIP3   OH240435   1.043   1.636  16.694 -0.0379  0.0837  0.1045
 6315TIP3    H140436   0.974   1.595  16.643 -0.3760  0.0193  0.6004
 6315TIP3    H240437   1.063   1.572  16.763 -0.6299  0.7596  0.9357
 6316TIP3   OH240438   0.969   0.606  16.260 -0.0599  0.1119  0.1971
 6316TIP3    H140439   1.045   0.645  16.216  0.1245 -0.4111  0.0497
 6316TIP3    H240440   1.007   0.555  16.332 -0.1022 -1.8302 -1.0965
 6317TIP3   OH240441   4.630   4.006   2.282  0.0577  0.2511 -0.2261
 6317TIP3    H140442   4.569   4.012   2.356  0.4826 -0.6932  0.2204
 6317TIP3    H240443   4.576   4.020   2.205 -0.0806  3.2441  0.3076
 6318TIP3   OH240444   1.832   0.105  12.404 -0.1076  0.5943 -0.4770
 6318TIP3    H140445   1.904   0.072  12.456 -0.9632 -0.4643  0.0803
 6318TIP3    H240446   1.815   0.036  12.340 -0.5341  0.8987 -0.6990
 6319TIP3   OH240447   1.990   1.419   4.730 -0.3120 -0.4445 -0.2639
 6319TIP3    H140448   2.031   1.505   4.727  0.9705 -1.0296  0.0827
 6319TIP3    H240449   1.990   1.395   4.822 -0.4612 -0.9180 -0.3817
 6320TIP3   OH240450   3.422   5.631   3.613  0.2299  0.0884 -0.2231
 6320TIP3    H140451   3.418   5.567   3.542 -1.0924  1.5280 -1.5127
 6320TIP3    H240452   3.476   5.702   3.578  1.5990 -0.2281  1.1529
 6321TIP3   OH240453   0.130   1.192   3.308 -0.1370 -0.4839  0.3518
 6321TIP3    H140454   0.174   1.160   3.387 -0.9408 -1.2577  0.5100
 6321TIP3    H240455   0.123   1.115   3.252  0.1395 -0.0104 -0.3406
 6322TIP3   OH240456   4.979   5.822  15.182  0.2656  0.1662  0.1134
 6322TIP3    H140457   4.910   5.885  15.160  0.6701  1.0159  1.1766
 6322TIP3    H240458   5.057   5.857  15.138  0.1549 -0.4788 -0.6128
 6323TIP3   OH240459   5.254   5.697   1.607  0.1129  0.3567  0.5996
 6323TIP3    H140460   5.187   5.728   1.546 -0.8599 -1.4397  0.6861
 6323TIP3    H240461   5.266   5.605   1.584  1.3337  0.2175  1.7056
 6324TIP3   OH240462   2.395   3.339  11.664 -0.0901 -0.0608 -0.4450
 6324TIP3    H140463   2.354   3.418  11.629  2.0202  1.7538  0.8233
 6324TIP3    H240464   2.410   3.283  11.588  0.1658  1.6860 -1.7504
 6325TIP3   OH240465   6.588   6.739   3.331  0.4397 -0.2043  0.3178
 6325TIP3    H140466   6.658   6.760   3.393 -0.0416 -0.7604  1.0569
 6325TIP3    H240467   6.623   6.666   3.280  0.8964  0.3535 -0.2042
 6326TIP3   OH240468   0.757   0.994  15.764  0.7006 -0.3691  0.1277
 6326TIP3    H140469   0.770   1.020  15.673  2.0414 -3.3619 -0.6673
 6326TIP3    H240470   0.663   0.985  15.774  0.3161  2.3214 -0.1296
 6327TIP3   OH240471   2.423   3.905  13.925 -0.1740 -0.0248 -0.0114
 6327TIP3    H140472   2.483   3.836  13.897 -0.4088 -0.7784  1.2585
 6327TIP3    H240473   2.359   3.910  13.854  0.9689  0.2990 -1.0469
 6328TIP3   OH240474   5.620   5.376   6.692 -0.2956 -0.1176 -0.0914
 6328TIP3    H140475   5.651   5.294   6.730 -1.5931  0.5853  2.7527
 6328TIP3    H240476   5.574   5.349   6.612  1.2936 -1.8467 -0.5034
 6329TIP3   OH240477   4.999   6.782   0.812 -0.6686 -0.4136 -0.2603
 6329TIP3    H140478   5.041   6.750   0.731  3.5012 -1.1205  1.8862
 6329TIP3    H240479   4.995   6.877   0.801  1.0149 -0.3779 -0.8682
 6330TIP3   OH240480   5.632   6.065  16.057 -0.1787  0.4603 -0.4813
 6330TIP3    H140481   5.651   6.066  15.964  1.1507  0.7139 -0.2170
 6330TIP3    H240482   5.707   6.107  16.098 -0.0162 -1.0002  0.8276
 6331TIP3   OH240483   5.062   3.866   1.853 -0.0501  0.7767 -0.2103
 6331TIP3    H140484   5.100   3.953   1.844 -0.1989  0.7913 -0.7278
 6331TIP3    H240485   5.061   3.831   1.764 -0.5974  0.5032 -0.0996
 6332TIP3   OH240486   5.776   4.877   5.578  0.5131 -0.5720 -0.2294
 6332TIP3    H140487   5.835   4.806   5.551  0.8846 -0.0804 -0.7398
 6332TIP3    H240488   5.755   4.858   5.669  0.5523 -1.3779 -0.3782
 6333TIP3   OH240489   0.184   2.336  15.083 -0.1374 -0.4537  0.7582
 6333TIP3    H140490   0.143   2.299  15.005 -0.4479  1.5272 -0.0780
 6333TIP3    H240491   0.185   2.264  15.146 -0.6052 -1.8822 -0.7904
 6334TIP3   OH240492   4.318   2.192   2.648 -0.5568  0.5475  0.0760
 6334TIP3    H140493   4.297   2.099   2.643  1.7255  0.0099 -1.0405
 6334TIP3    H240494   4.329   2.209   2.742 -3.0123  0.2651  0.4808
 6335TIP3   OH240495   2.788   4.038  13.506  0.0524  0.1512  0.1950
 6335TIP3    H140496   2.820   4.037  13.596 -1.1642  1.0713  0.6711
 6335TIP3    H240497   2.707   4.090  13.510 -1.0090 -1.3076 -1.1042
 6336TIP3   OH240498   6.716   5.381  10.907  0.3935 -0.6118 -0.4427
 6336TIP3    H140499   6.751   5.319  10.971 -1.3703 -2.2741 -1.0066
 6336TIP3    H240500   6.685   5.326  10.835 -1.4798  0.8909 -0.8657
 6337TIP3   OH240501   2.257   3.918  13.718 -0.2987 -0.0212 -0.1945
 6337TIP3    H140502   2.176   3.941  13.672 -1.0900 -1.8788  0.2074
 6337TIP3    H240503   2.296   3.848  13.666  0.3688 -0.0590  0.3415
 6338TIP3   OH240504   4.901   5.319  14.643  0.3088  0.6017 -0.0979
 6338TIP3    H140505   4.897   5.258  14.569  1.8443  0.7571 -0.3319
 6338TIP3    H240506   4.910   5.405  14.604 -1.0978  0.9494  0.2563
 6339TIP3   OH240507   1.550   1.461   3.268  0.4307  0.7444  0.0546
 6339TIP3    H140508   1.598   1.413   3.201 -0.1330  0.8716 -0.4438
 6339TIP3    H240509   1.549   1.403   3.344 -0.3799 -0.1104 -0.5898
 6340TIP3   OH240510   5.401   1.851   0.797 -0.5412  0.1092 -0.3401
 6340TIP3    H140511   5.438   1.798   0.727 -1.4866 -0.3919 -0.4856
 6340TIP3    H240512   5.341   1.791   0.843 -0.2658  0.5471  0.6238
 6341TIP3   OH240513   0.437   6.458  14.518 -0.1980 -0.7994 -0.2192
 6341TIP3    H140514   0.480   6.433  14.600  1.2056 -0.4631 -0.8272
 6341TIP3    H240515   0.397   6.543  14.537 -1.3907 -1.5062  0.6027
 6342TIP3   OH240516   2.666   1.835  15.648 -0.3887 -0.0415  0.1052
 6342TIP3    H140517   2.697   1.875  15.729 -0.8461  0.6649 -0.0615
 6342TIP3    H240518   2.743   1.792  15.611 -0.0531  0.0944  0.6350
 6343TIP3   OH240519   0.941   5.783   4.518  0.1544  0.1483 -0.1206
 6343TIP3    H140520   0.960   5.803   4.610 -0.4484  0.1161  0.0180
 6343TIP3    H240521   0.969   5.692   4.508 -0.5773 -0.1368  0.2806
 6344TIP3   OH240522   3.002   2.518  15.899 -0.3518 -0.2570 -0.5275
 6344TIP3    H140523   3.094   2.493  15.886 -0.3553 -1.7093  1.6788
 6344TIP3    H240524   3.006   2.594  15.956 -0.4970 -0.8277  0.2644
 6345TIP3   OH240525   1.886   3.272   1.141 -0.1035  0.5690  0.4732
 6345TIP3    H140526   1.956   3.208   1.128 -0.6539  0.3034 -1.5803
 6345TIP3    H240527   1.840   3.275   1.056 -0.8336  2.8110  0.8777
 6346TIP3   OH240528   0.733   2.938  12.622  0.1445 -0.6106 -0.7674
 6346TIP3    H140529   0.794   2.923  12.694  1.4227 -1.7322 -2.0041
 6346TIP3    H240530   0.680   2.859  12.618 -2.6059  0.9740  1.2963
 6347TIP3   OH240531   4.829   0.087   2.522  0.5176  0.1247  0.9943
 6347TIP3    H140532   4.788   0.102   2.437 -0.0426  0.2557  1.2805
 6347TIP3    H240533   4.919   0.117   2.511  0.5369 -0.1371  0.3613
 6348TIP3   OH240534   1.183   1.656  16.991  0.2576 -0.3162 -1.1753
 6348TIP3    H140535   1.100   1.613  16.969  0.4365 -0.0005 -2.5958
 6348TIP3    H240536   1.159   1.748  17.003  0.2990 -0.3393 -0.9198
 6349TIP3   OH240537   0.498   3.124  13.306 -0.3918  0.0197  0.3569
 6349TIP3    H140538   0.433   3.142  13.238 -0.2507 -2.1531 -0.4127
 6349TIP3    H240539   0.447   3.086  13.378 -0.3625  1.1509  1.0004
 6350TIP3   OH240540   6.635   3.163  12.653  0.3425 -0.6340  0.3643
 6350TIP3    H140541   6.682   3.098  12.705  0.4245 -1.7193 -0.9871
 6350TIP3    H240542   6.704   3.212  12.609  0.3031 -1.9749 -1.3200
 6351TIP3   OH240543   3.982   2.521  11.051 -0.5143 -0.1302  0.2814
 6351TIP3    H140544   3.942   2.440  11.082  2.3553 -1.8403 -0.2060
 6351TIP3    H240545   3.962   2.524  10.958  2.3052 -2.2477 -0.4917
 6352TIP3   OH240546   1.726   5.718  15.702 -0.0862 -0.4958 -0.2274
 6352TIP3    H140547   1.729   5.783  15.772  0.4795 -1.9880  1.1884
 6352TIP3    H240548   1.692   5.639  15.743 -1.5408 -0.9172 -2.0990
 6353TIP3   OH240549   3.232   5.416   4.777  0.2715  0.1320  0.4493
 6353TIP3    H140550   3.198   5.503   4.795 -2.2670 -0.7458  0.2210
 6353TIP3    H240551   3.241   5.412   4.682 -0.7437 -0.2312  0.3627
 6354TIP3   OH240552   3.335   1.338   6.068  0.2155 -0.2555  0.2431
 6354TIP3    H140553   3.336   1.328   6.163 -1.1964 -1.1212  0.1793
 6354TIP3    H240554   3.378   1.423   6.053 -2.7753  1.7416  1.9292
 6355TIP3   OH240555   1.593   0.464  11.919  0.0445 -0.0762 -0.0179
 6355TIP3    H140556   1.614   0.414  11.840 -0.2470 -0.4213  0.1236
 6355TIP3    H240557   1.529   0.411  11.966 -0.4269  0.5154  0.0331
 6356TIP3   OH240558   4.301   1.832   4.422 -0.1460 -0.6790  0.1562
 6356TIP3    H140559   4.288   1.788   4.506  1.4675 -1.0891  0.2130
 6356TIP3    H240560   4.231   1.797   4.366  0.5827 -2.7445  0.4386
 6357TIP3   OH240561   1.866   1.817   2.940 -0.0866 -0.8895 -0.4629
 6357TIP3    H140562   1.810   1.756   2.894 -1.7479 -0.1784  0.5377
 6357TIP3    H240563   1.890   1.882   2.875  2.5091 -2.9735 -1.8214
 6358TIP3   OH240564   4.486   3.998   2.668 -0.0563 -0.5384 -0.6999
 6358TIP3    H140565   4.574   3.995   2.705  0.1176  0.1074 -1.0473
 6358TIP3    H240566   4.454   3.908   2.675 -0.0035 -0.4516  0.9207
 6359TIP3   OH240567   1.747   1.122   3.521 -0.2886 -0.2528  0.2117
 6359TIP3    H140568   1.747   1.127   3.617  1.8408  0.1740  0.2446
 6359TIP3    H240569   1.666   1.166   3.495  0.7761  2.9492  1.7536
 6360TIP3   OH240570   1.894   2.598   0.531 -0.2524  0.0479  0.2508
 6360TIP3    H140571   1.872   2.511   0.495  2.5600 -0.2440 -0.9604
 6360TIP3    H240572   1.809   2.633   0.561 -1.5450 -2.9271  0.4480
 6361TIP3   OH240573   3.103   3.079   3.125  0.0117  0.3098  0.2897
 6361TIP3    H140574   3.041   3.099   3.196 -0.7023  0.7710 -0.4426
 6361TIP3    H240575   3.056   3.103   3.045  0.4239 -1.1307 -0.4216
 6362TIP3   OH240576   0.408   0.267  10.559  0.4413 -0.2622 -0.1379
 6362TIP3    H140577   0.503   0.267  10.566  0.4179 -0.3717  0.1692
 6362TIP3    H240578   0.391   0.283  10.466  0.7428  0.7948 -0.0138
 6363TIP3   OH240579   5.977   2.707  12.824 -0.3763  0.0550 -0.4451
 6363TIP3    H140580   6.055   2.750  12.859 -0.6619 -0.6707  1.1835
 6363TIP3    H240581   5.940   2.770  12.762  1.3704  0.4856 -1.0890
 6364TIP3   OH240582   4.443   3.757   4.334  0.2613  0.2757  0.7971
 6364TIP3    H140583   4.526   3.792   4.300  0.5014  0.3010  1.4138
 6364TIP3    H240584   4.388   3.747   4.256  0.5031  1.1854  0.4997
 6365TIP3   OH240585   6.612   0.627  11.346 -0.3207 -0.1441  0.1853
 6365TIP3    H140586   6.694   0.676  11.344 -0.2675 -0.2202  0.5278
 6365TIP3    H240587   6.548   0.686  11.308 -0.0272 -0.2352 -0.4783
 6366TIP3   OH240588   3.048   0.643  12.391  0.2106 -0.8777  0.0074
 6366TIP3    H140589   3.089   0.577  12.334  1.0146 -0.3076 -0.0982
 6366TIP3    H240590   2.979   0.596  12.437 -0.0592 -1.4959 -0.9949
 6367TIP3   OH240591   4.161   3.927   0.824 -0.5359 -0.0708 -0.1389
 6367TIP3    H140592   4.167   3.843   0.778  0.4938 -0.8308  1.3170
 6367TIP3    H240593   4.244   3.935   0.871 -0.6339  1.7536 -0.2031
 6368TIP3   OH240594   0.854   6.146   5.523 -0.2903  0.2242 -0.3831
 6368TIP3    H140595   0.828   6.238   5.522 -0.4799  0.2326  1.6929
 6368TIP3    H240596   0.779   6.100   5.561  0.5658 -0.4982  0.4773
 6369TIP3   OH240597   6.459   6.191  11.468  0.5427  0.4355  0.0022
 6369TIP3    H140598   6.537   6.188  11.412  0.5244 -0.5690  0.0201
 6369TIP3    H240599   6.395   6.240  11.416 -0.1310 -2.0904 -1.7756
 6370TIP3   OH240600   5.045   1.808  11.204  0.2540 -0.1822 -0.1643
 6370TIP3    H140601   4.970   1.866  11.189  0.3185 -0.3262 -1.0791
 6370TIP3    H240602   5.009   1.719  11.194 -0.1001 -0.3880  2.3394
 6371TIP3   OH240603   6.573   4.345  14.852  0.7320  0.1314 -0.7998
 6371TIP3    H140604   6.650   4.400  14.868  0.6739  0.1933 -0.7333
 6371TIP3    H240605   6.507   4.405  14.820  0.2061  0.3611  0.6182
 6372TIP3   OH240606   1.009   5.981   5.383 -0.5492  0.1764 -0.2509
 6372TIP3    H140607   0.940   5.987   5.317 -0.4806  2.2596 -0.2027
 6372TIP3    H240608   0.987   6.050   5.447  1.5549  0.9348 -0.2612
 6373TIP3   OH240609   4.850   2.002  10.955  0.0747  0.2496 -0.3341
 6373TIP3    H140610   4.815   1.923  10.996  1.1157 -0.6996 -1.1966
 6373TIP3    H240611   4.928   1.972  10.909 -0.2739  1.5337 -1.8274
 6374TIP3   OH240612   1.966   1.988   3.928  0.1767  0.0542  0.1603
 6374TIP3    H140613   1.932   1.984   3.839 -1.6141 -0.8890  0.8486
 6374TIP3    H240614   1.891   1.970   3.984  1.3620  0.1220  1.8599
 6375TIP3   OH240615   3.997   0.531  14.661  0.1859 -0.0478 -0.3765
 6375TIP3    H140616   3.997   0.480  14.580 -1.4219 -1.4112  0.4001
 6375TIP3    H240617   3.913   0.577  14.659  0.5289  0.6071  0.1136
 6376TIP3   OH240618   5.354   2.128  12.949 -0.3863 -0.1494 -0.7419
 6376TIP3    H140619   5.329   2.040  12.921  0.5727 -1.4105  2.0599
 6376TIP3    H240620   5.279   2.159  13.000 -0.2846  0.2288 -0.8148
 6377TIP3   OH240621   4.637   2.623  14.393  0.2036 -0.2997 -0.6213
 6377TIP3    H140622   4.709   2.629  14.456  1.4742 -0.0416 -2.0315
 6377TIP3    H240623   4.585   2.701  14.409 -0.9584 -1.4806  1.7582
 6378TIP3   OH240624   6.265   2.066  10.863 -0.3798  0.2876 -0.3051
 6378TIP3    H140625   6.262   2.156  10.833  0.0478  0.3639 -0.1255
 6378TIP3    H240626   6.230   2.015  10.789 -2.9449  0.7903  0.4627
 6379TIP3   OH240627   4.692   2.203   2.096 -0.2522 -0.1402  0.1736
 6379TIP3    H140628   4.623   2.199   2.162  1.7856 -0.5685  2.4313
 6379TIP3    H240629   4.759   2.259   2.134  0.7522  0.1312 -1.8461
 6380TIP3   OH240630   0.520   3.963  12.840  0.0822 -0.2883  0.1536
 6380TIP3    H140631   0.579   3.921  12.777  0.8898 -0.7257  1.1617
 6380TIP3    H240632   0.451   3.898  12.855 -0.5778  0.1442 -0.8773
 6381TIP3   OH240633   1.958   5.103   0.930  0.0227 -0.2988  0.2806
 6381TIP3    H140634   2.045   5.125   0.964  0.2831  0.3363 -0.7376
 6381TIP3    H240635   1.946   5.163   0.855 -0.9120 -0.9964 -0.1448
 6382TIP3   OH240636   4.259   6.482   2.460  0.6989  0.0306  0.5763
 6382TIP3    H140637   4.349   6.454   2.446  0.5411  0.4811 -1.7021
 6382TIP3    H240638   4.207   6.425   2.404 -0.5152 -0.4160  2.0748
 6383TIP3   OH240639   2.750   4.387   3.363 -0.3333  0.1810 -0.8604
 6383TIP3    H140640   2.668   4.383   3.314 -1.5163  0.1481  1.0272
 6383TIP3    H240641   2.736   4.457   3.428  0.3190 -1.1959  0.8371
 6384TIP3   OH240642   6.034   1.581  15.590  0.4603 -0.4023  0.0914
 6384TIP3    H140643   6.009   1.566  15.681  0.5402  3.3417  0.9037
 6384TIP3    H240644   5.959   1.628  15.552  0.8807 -0.9133 -1.4607
 6385TIP3   OH240645   3.089   4.838   2.668 -0.1976  0.2262  0.0678
 6385TIP3    H140646   3.036   4.778   2.720 -1.4041  0.2197 -1.1173
 6385TIP3    H240647   3.174   4.794   2.658  0.2181  0.4080  2.3037
 6386TIP3   OH240648   0.838   4.614   5.996  0.3714  0.3143 -0.5946
 6386TIP3    H140649   0.852   4.708   6.006 -0.7663  0.4435 -0.0842
 6386TIP3    H240650   0.834   4.581   6.086  1.6704 -0.3783 -0.7693
 6387TIP3   OH240651   0.070   0.590   2.485  0.7738  0.0982  0.2072
 6387TIP3    H140652  -0.025   0.594   2.497  0.3787 -3.9468 -0.0361
 6387TIP3    H240653   0.104   0.665   2.533 -2.4343  0.8462  1.5850
 6388TIP3   OH240654   6.569   0.864  11.151  0.4334 -0.4486 -0.0157
 6388TIP3    H140655   6.631   0.897  11.216  0.4710 -1.6363  0.5813
 6388TIP3    H240656   6.566   0.932  11.083  1.4009  0.2028  0.5780
 6389TIP3   OH240657   4.814   5.220   0.234  0.1063  0.2172  0.1357
 6389TIP3    H140658   4.859   5.255   0.157  2.0883 -0.1542  1.0559
 6389TIP3    H240659   4.847   5.130   0.243  0.1037  0.3209  1.5213
 6390TIP3   OH240660   3.298   6.374  13.084  0.2918  0.5668  0.5354
 6390TIP3    H140661   3.331   6.425  13.010  0.3245 -0.1793  0.0156
 6390TIP3    H240662   3.249   6.302  13.043  0.2886  0.1621  1.2350
 6391TIP3   OH240663   2.281   3.970  11.426 -0.0653  0.1908 -0.0181
 6391TIP3    H140664   2.311   3.904  11.364  1.8255  0.9858 -0.0147
 6391TIP3    H240665   2.312   3.940  11.511 -0.8414  0.1549  0.2619
 6392TIP3   OH240666   2.091   2.756  15.330 -0.2191  0.1078 -0.1077
 6392TIP3    H140667   2.143   2.830  15.299 -0.3976  0.2939  0.0324
 6392TIP3    H240668   2.128   2.734  15.416  0.8902 -1.0166 -0.8459
 6393TIP3   OH240669   4.041   1.614  11.968 -0.0833  0.6882 -0.1028
 6393TIP3    H140670   4.137   1.608  11.965 -0.0841 -0.9579  1.3850
 6393TIP3    H240671   4.020   1.694  11.920  1.8321 -0.3322 -2.8587
 6394TIP3   OH240672   2.110   5.813   5.148 -0.4178 -0.1832 -0.1339
 6394TIP3    H140673   2.139   5.904   5.152 -0.1589 -0.3179  2.1468
 6394TIP3    H240674   2.021   5.814   5.183 -0.3595 -0.8096  0.0611
 6395TIP3   OH240675   5.463   3.987  14.613  0.6890 -0.3967 -0.1634
 6395TIP3    H140676   5.481   3.965  14.705  0.9088 -0.3755 -0.2006
 6395TIP3    H240677   5.432   4.077  14.615  2.1411  0.1394 -0.2567
 6396TIP3   OH240678   4.082   0.912  12.955  0.1576  0.4094 -0.5630
 6396TIP3    H140679   4.006   0.966  12.981 -0.2922 -0.5799  0.2450
 6396TIP3    H240680   4.125   0.963  12.887 -2.0708  0.3708 -2.1123
 6397TIP3   OH240681   0.902   2.245   5.643 -0.0134  0.3270  0.1262
 6397TIP3    H140682   0.908   2.165   5.591  2.0420  0.8733 -0.5740
 6397TIP3    H240683   0.808   2.260   5.655 -0.4655 -2.9222  1.5066
 6398TIP3   OH240684   3.859   3.805   0.632 -0.4125  0.3551 -0.5780
 6398TIP3    H140685   3.797   3.863   0.587 -0.3433 -0.1936 -1.4097
 6398TIP3    H240686   3.836   3.718   0.602 -0.5405 -0.0622  0.6947
 6399TIP3   OH240687   4.559   4.833  16.364 -0.0419  0.4406 -0.1679
 6399TIP3    H140688   4.557   4.778  16.442 -0.3657  1.8121  0.8419
 6399TIP3    H240689   4.504   4.788  16.301 -0.0614 -0.5216  0.5142
 6400TIP3   OH240690   3.490   3.783   1.987  0.8688  0.0036  0.1375
 6400TIP3    H140691   3.548   3.802   1.913 -0.8817 -0.8394 -1.5570
 6400TIP3    H240692   3.421   3.849   1.979  1.1251  0.4781  1.6206
 6401TIP3   OH240693   3.118   2.254  11.017  0.2190  0.3132  0.4060
 6401TIP3    H140694   3.211   2.256  10.997  0.0607 -0.2469 -0.4249
 6401TIP3    H240695   3.114   2.263  11.112  1.1659 -0.5978  0.5544
 6402TIP3   OH240696   1.920   3.841  12.578 -0.1544 -0.1568 -0.2316
 6402TIP3    H140697   1.843   3.841  12.636  0.1212 -1.5730  0.1624
 6402TIP3    H240698   1.887   3.874  12.495 -1.2531 -0.9649 -0.1375
 6403TIP3   OH240699   2.468   0.019   1.325  0.0829  0.1703  0.0361
 6403TIP3    H140700   2.543   0.078   1.315 -0.0180  0.1335 -0.9801
 6403TIP3    H240701   2.437   0.003   1.236  0.2047 -1.5429  0.2626
 6404TIP3   OH240702   6.698   4.512   0.210  0.3569  0.3428  0.6748
 6404TIP3    H140703   6.774   4.483   0.160  0.0355  1.3970 -0.4661
 6404TIP3    H240704   6.734   4.572   0.275  0.8145 -1.2656  1.9853
 6405TIP3   OH240705   4.430   5.666   0.387  0.0261 -0.0645  0.0859
 6405TIP3    H140706   4.409   5.724   0.460 -1.8543  0.4869 -0.8507
 6405TIP3    H240707   4.353   5.610   0.377  0.3596 -0.2991 -1.3155
 6406TIP3   OH240708   4.607   5.559  14.479 -0.1835  0.4312  0.4364
 6406TIP3    H140709   4.573   5.647  14.460 -3.5632 -0.9775 -0.8812
 6406TIP3    H240710   4.608   5.515  14.394  2.4979 -0.5589  0.8923
 6407TIP3   OH240711   6.578   0.148  16.121  0.2940 -0.2374  0.8187
 6407TIP3    H140712   6.651   0.110  16.170  1.8181 -0.1899 -1.2503
 6407TIP3    H240713   6.523   0.074  16.097  1.4085 -0.7399 -0.2836
 6408TIP3   OH240714   1.823   2.243   2.232  0.1756  0.1109 -0.0556
 6408TIP3    H140715   1.790   2.267   2.145  0.1870  1.9591  0.4202
 6408TIP3    H240716   1.914   2.218   2.216  0.5447  1.6136 -0.4354
 6409TIP3   OH240717   2.244   5.740  16.553  0.6829  0.1655  0.3075
 6409TIP3    H140718   2.207   5.777  16.633 -0.1664 -0.0871  0.0348
 6409TIP3    H240719   2.171   5.733  16.492  0.7872 -1.9064  0.3213
 6410TIP3   OH240720   1.367   5.577   4.038  0.2681 -0.0174 -0.4760
 6410TIP3    H140721   1.460   5.598   4.048 -0.2271  1.9018  0.7080
 6410TIP3    H240722   1.349   5.517   4.110  1.0533 -2.4025 -2.1416
 6411TIP3   OH240723   0.353   4.308   0.644 -0.1589 -0.0181 -0.3991
 6411TIP3    H140724   0.266   4.314   0.685  0.3004 -0.3476  0.6485
 6411TIP3    H240725   0.371   4.398   0.615  0.1940  0.6348  1.6386
 6412TIP3   OH240726   0.501   0.538  12.516 -0.8959  0.6843 -0.4352
 6412TIP3    H140727   0.472   0.464  12.569 -2.5910  1.8196  0.3172
 6412TIP3    H240728   0.552   0.592  12.576 -0.8089  0.8050 -0.6157
 6413TIP3   OH240729   3.274   5.358   4.506 -0.5561 -0.2523  0.3780
 6413TIP3    H140730   3.209   5.393   4.445 -0.4831  1.3844  1.1889
 6413TIP3    H240731   3.288   5.268   4.477 -0.4040  0.5099 -2.1231
 6414TIP3   OH240732   1.534   0.320  15.414 -0.3759  0.0090 -0.2390
 6414TIP3    H140733   1.538   0.349  15.505  0.1766 -0.0783 -0.2274
 6414TIP3    H240734   1.480   0.386  15.370 -0.4764  0.1635  0.1135
 6415TIP3   OH240735   2.004   1.590  14.943 -0.1858  0.0402  0.1104
 6415TIP3    H140736   2.076   1.531  14.963  1.1747  2.2214  2.1568
 6415TIP3    H240737   1.947   1.540  14.884  1.2424 -2.9741  1.1134
 6416TIP3   OH240738   2.431   1.072   3.754  0.1028  0.2197  0.3884
 6416TIP3    H140739   2.360   1.120   3.711  0.1582 -1.5109 -1.8534
 6416TIP3    H240740   2.486   1.042   3.681  3.2694  1.5800  2.0223
 6417TIP3   OH240741   6.660   5.188  12.517 -0.9259  0.7858 -0.1131
 6417TIP3    H140742   6.582   5.224  12.559 -0.1065  1.5581  0.7903
 6417TIP3    H240743   6.691   5.120  12.576  0.8293  2.5782  1.1787
 6418TIP3   OH240744   3.679   0.270  15.149 -0.0487 -0.0954  0.1946
 6418TIP3    H140745   3.716   0.354  15.123  1.5463 -1.2805 -1.5703
 6418TIP3    H240746   3.588   0.274  15.118  0.6358  0.1503 -1.9185
 6419TIP3   OH240747   3.278   6.477  11.963  0.0375 -0.4751  0.5631
 6419TIP3    H140748   3.229   6.454  12.042 -0.6866  1.5096  0.7385
 6419TIP3    H240749   3.368   6.488  11.994  0.0188 -1.0228  0.8371
 6420TIP3   OH240750   5.175   3.794   5.481  0.1317 -0.0773  0.1727
 6420TIP3    H140751   5.140   3.864   5.536 -2.2992 -0.7023 -0.4776
 6420TIP3    H240752   5.187   3.720   5.539 -0.4803 -0.1292  0.2284
 6421TIP3   OH240753   0.724   0.732   4.314  0.7176  0.2840 -0.1515
 6421TIP3    H140754   0.720   0.677   4.392  1.0371 -0.7288 -0.8310
 6421TIP3    H240755   0.669   0.808   4.336  1.2940  0.3210  1.2693
 6422TIP3   OH240756   3.583   3.850  16.204  0.4222  0.0629 -0.4940
 6422TIP3    H140757   3.610   3.887  16.121 -0.4929 -0.1963 -0.9216
 6422TIP3    H240758   3.630   3.767  16.210  1.8935  0.8983  0.1200
 6423TIP3   OH240759   1.026   4.851   6.286 -0.0917 -0.0914  0.1259
 6423TIP3    H140760   0.980   4.924   6.326  0.6360  0.2833  0.2941
 6423TIP3    H240761   0.967   4.820   6.217 -1.1816 -0.4782  1.1894
 6424TIP3   OH240762   2.065   6.497   5.944 -0.2368  0.5018 -0.0826
 6424TIP3    H140763   2.071   6.589   5.919  1.9107  0.6907  0.9229
 6424TIP3    H240764   2.091   6.494   6.036  1.5684 -1.2728 -0.5628
 6425TIP3   OH240765   6.733   3.015   3.550 -0.6522  0.8506  0.8240
 6425TIP3    H140766   6.755   2.953   3.620 -1.9176  1.7542  2.0643
 6425TIP3    H240767   6.697   2.960   3.480  2.6518 -0.3494 -0.1411
 6426TIP3   OH240768   6.738   6.565  13.257  0.3035  0.3360  0.3195
 6426TIP3    H140769   6.801   6.632  13.230  0.6202 -0.6109 -1.4576
 6426TIP3    H240770   6.673   6.564  13.187 -0.3481 -0.3856  0.9193
 6427TIP3   OH240771   0.110   6.210  16.165  0.6069 -0.1096 -0.0438
 6427TIP3    H140772   0.025   6.229  16.203 -0.9814 -2.0569 -2.3103
 6427TIP3    H240773   0.129   6.120  16.192  2.2459  0.4672  0.8681
 6428TIP3   OH240774   0.763   3.059  13.362 -0.0458  0.0864 -0.2346
 6428TIP3    H140775   0.789   3.130  13.421  0.9468  1.1410 -1.8618
 6428TIP3    H240776   0.674   3.084  13.333  0.8386  1.5424 -1.9341
 6429TIP3   OH240777   1.895   6.472  17.089  0.2112 -0.2566  0.1267
 6429TIP3    H140778   1.949   6.551  17.078 -0.0941 -0.0541  0.0778
 6429TIP3    H240779   1.825   6.482  17.024 -0.4042 -0.0749  0.8110
 6430TIP3   OH240780   2.122   0.526  14.502 -0.1960  0.3137  0.3450
 6430TIP3    H140781   2.160   0.457  14.556 -1.3560 -0.5592  0.0855
 6430TIP3    H240782   2.160   0.607  14.535 -0.6209 -0.2278  2.2635
 6431TIP3   OH240783   6.057   0.152  15.503 -0.4817  0.1075  0.1280
 6431TIP3    H140784   6.117   0.084  15.533 -2.1159 -0.6245  1.9774
 6431TIP3    H240785   5.992   0.105  15.451 -1.2648  0.3301  0.8879
 6432TIP3   OH240786   0.606   1.536  11.610 -0.1889 -0.1176 -0.0414
 6432TIP3    H140787   0.677   1.534  11.674  0.2428  1.2679 -0.4522
 6432TIP3    H240788   0.529   1.563  11.660  0.0811  0.6505 -0.0252
 6433TIP3   OH240789   0.010   3.874  10.875  0.4006  0.0049  0.2801
 6433TIP3    H140790   0.057   3.862  10.793  0.0145  0.7851 -0.0673
 6433TIP3    H240791   0.064   3.935  10.924  1.1795 -1.2676  1.0748
 6434TIP3   OH240792   0.029   3.627   0.647 -0.0318  0.2432 -0.4695
 6434TIP3    H140793   0.014   3.717   0.617 -1.1015 -0.4444 -2.1978
 6434TIP3    H240794   0.067   3.636   0.734 -0.2868  2.3605 -0.5289
 6435TIP3   OH240795   3.928   5.038  10.569 -0.2675  0.0174  0.0240
 6435TIP3    H140796   4.011   5.085  10.563 -0.1702  0.0046  1.0349
 6435TIP3    H240797   3.873   5.077  10.501  0.7259 -0.3318 -0.9975
 6436TIP3   OH240798   5.545   1.888  14.874 -0.0396  0.5074 -0.2063
 6436TIP3    H140799   5.465   1.939  14.861  1.1185  2.2145 -1.0038
 6436TIP3    H240800   5.519   1.819  14.935 -1.9964  1.2767 -0.0693
 6437TIP3   OH240801   0.799   0.022  13.026 -0.0119 -0.1790  0.7137
 6437TIP3    H140802   0.891   0.016  13.052  0.6899  0.2891 -1.4673
 6437TIP3    H240803   0.755   0.062  13.102  2.1197  2.2846  0.7880
 6438TIP3   OH240804   5.892   4.656   3.925 -0.2842  0.0949  0.4878
 6438TIP3    H140805   5.816   4.598   3.933 -1.1407  1.1747  0.4642
 6438TIP3    H240806   5.861   4.740   3.959  0.8116  0.6323  0.1888
 6439TIP3   OH240807   2.460   6.797  12.163 -0.5992 -0.3086 -0.5631
 6439TIP3    H140808   2.456   6.704  12.185 -0.7051 -0.7537 -2.2916
 6439TIP3    H240809   2.371   6.819  12.135 -0.2228 -0.1017 -1.6433
 6440TIP3   OH240810   6.071   1.907  14.053 -0.5542  0.1143 -0.1753
 6440TIP3    H140811   6.059   1.865  14.138  0.5908 -2.7203 -1.2819
 6440TIP3    H240812   6.006   1.977  14.051  0.1791  1.1218  3.4763
 6441TIP3   OH240813   3.202   3.498   5.635 -0.0428 -0.0794 -0.2519
 6441TIP3    H140814   3.178   3.456   5.718 -0.7499  0.6210 -0.0873
 6441TIP3    H240815   3.287   3.539   5.653 -0.5858  0.7982  0.4117
 6442TIP3   OH240816   5.563   0.201   4.480 -0.2361  0.6451 -0.1215
 6442TIP3    H140817   5.478   0.206   4.437 -1.2852  1.6975  1.9286
 6442TIP3    H240818   5.562   0.116   4.525  2.2177 -2.1266 -4.5198
 6443TIP3   OH240819   3.552   0.136   0.247 -0.0951  0.2576 -0.2177
 6443TIP3    H140820   3.621   0.085   0.290  1.4198  1.2181 -1.3883
 6443TIP3    H240821   3.503   0.072   0.195  1.7923 -0.0759 -1.6954
 6444TIP3   OH240822   0.399   0.726  15.697 -0.8203 -0.1505  0.3064
 6444TIP3    H140823   0.355   0.642  15.712 -0.5120 -0.9566 -2.6119
 6444TIP3    H240824   0.473   0.725  15.757 -1.0071 -1.8432  0.5707
 6445TIP3   OH240825   4.671   2.107  15.710  0.2501  0.0477  0.3613
 6445TIP3    H140826   4.678   2.033  15.771 -0.1683 -1.1396 -0.9885
 6445TIP3    H240827   4.580   2.136  15.717  0.8650  1.8297  2.3766
 6446TIP3   OH240828   5.499   2.870   4.221  0.2254  0.7355  0.0362
 6446TIP3    H140829   5.404   2.879   4.212  0.0235 -0.4935  0.6823
 6446TIP3    H240830   5.510   2.802   4.287  1.5623  0.1862 -0.7239
 6447TIP3   OH240831   4.863   0.884   0.331 -0.5113  0.2366  0.2503
 6447TIP3    H140832   4.774   0.918   0.322 -0.1505  1.4176  0.9197
 6447TIP3    H240833   4.918   0.950   0.289 -0.0871 -1.4881 -2.0686
 6448TIP3   OH240834   2.586   3.318  16.354 -0.9999 -0.0075 -0.4462
 6448TIP3    H140835   2.577   3.233  16.310  0.3581 -0.1210 -0.5352
 6448TIP3    H240836   2.627   3.374  16.289 -0.8640  0.4083 -0.0045
 6449TIP3   OH240837   6.137   2.721   0.162 -0.0413  0.6152  0.2818
 6449TIP3    H140838   6.125   2.810   0.130  0.2505  1.3336  2.0652
 6449TIP3    H240839   6.056   2.702   0.211  0.8402  0.8383  1.9131
 6450TIP3   OH240840   0.840   3.312   0.832  0.1785  0.2793  0.3597
 6450TIP3    H140841   0.815   3.274   0.748 -2.6207 -1.0964  1.7048
 6450TIP3    H240842   0.882   3.239   0.880  0.2854  0.5974  0.7581
 6451TIP3   OH240843   0.717   6.817   4.351  0.6552 -0.3502 -0.0717
 6451TIP3    H140844   0.728   6.757   4.425 -0.3357 -1.2607 -0.6439
 6451TIP3    H240845   0.784   6.792   4.288 -0.9116 -2.1263 -1.1090
 6452TIP3   OH240846   2.742   4.665   0.753  0.4047 -0.3284  0.0586
 6452TIP3    H140847   2.739   4.757   0.725 -2.3478 -0.4734 -0.4261
 6452TIP3    H240848   2.724   4.615   0.674  0.1362 -1.1770  0.6408
 6453TIP3   OH240849   1.384   2.058  12.946  0.4122  0.3919 -0.1613
 6453TIP3    H140850   1.464   2.080  12.994  0.2756 -0.1389  0.3135
 6453TIP3    H240851   1.317   2.114  12.984  0.6103  1.0634 -0.7700
 6454TIP3   OH240852   2.392   1.591  13.694  0.2562 -0.5699 -0.7850
 6454TIP3    H140853   2.393   1.680  13.730  2.3220 -1.1611  0.7633
 6454TIP3    H240854   2.483   1.571  13.675 -0.3001 -1.9666 -2.2318
 6455TIP3   OH240855   1.148   6.496  12.213 -0.5928  0.3705  0.0749
 6455TIP3    H140856   1.185   6.428  12.269  0.5707  1.2540  0.4066
 6455TIP3    H240857   1.053   6.483  12.220 -0.3984 -1.5562 -0.3269
 6456TIP3   OH240858   1.874   0.375  10.667 -0.2663  0.0886  0.3937
 6456TIP3    H140859   1.898   0.284  10.685  1.2692  0.3970  0.0706
 6456TIP3    H240860   1.955   0.415  10.638 -1.2556  1.2156 -0.9199
 6457TIP3   OH240861   1.450   0.842   4.603  0.3733 -0.8025 -0.1659
 6457TIP3    H140862   1.531   0.889   4.587 -0.2940  0.5692  0.3636
 6457TIP3    H240863   1.461   0.759   4.557  2.6625 -1.2796  1.0813
 6458TIP3   OH240864   3.830   5.714  16.798 -0.2607  0.0730 -0.2974
 6458TIP3    H140865   3.744   5.743  16.828  0.0320 -0.5115  1.1600
 6458TIP3    H240866   3.890   5.781  16.830  0.0532 -0.5517  0.4611
 6459TIP3   OH240867   2.457   4.829  13.329 -0.3218 -0.0615 -0.1714
 6459TIP3    H140868   2.393   4.858  13.264  0.5753  2.9152  0.1414
 6459TIP3    H240869   2.511   4.906  13.346  2.4943 -2.0537  0.6109
 6460TIP3   OH240870   4.550   1.042   1.294 -0.2335  0.9177  0.0503
 6460TIP3    H140871   4.599   1.039   1.376 -1.1451  0.3677  0.5966
 6460TIP3    H240872   4.553   0.952   1.261  0.6065  1.2511 -0.8224
 6461TIP3   OH240873   1.000   1.534   2.512  0.1304 -0.1287  0.1598
 6461TIP3    H140874   1.043   1.452   2.489  0.8606  0.4862 -0.7527
 6461TIP3    H240875   0.978   1.525   2.604 -0.5593 -1.6749 -0.1242
 6462TIP3   OH240876   5.892   2.072   0.021  0.6205 -0.4539  0.4418
 6462TIP3    H140877   5.981   2.066   0.055  1.2478  1.8448 -0.5497
 6462TIP3    H240878   5.893   2.022  -0.060  1.2562  0.1423  0.0693
 6463TIP3   OH240879   4.079   2.863   0.077  0.6759 -0.0485 -0.5932
 6463TIP3    H140880   4.164   2.821   0.082  0.3630 -0.6765 -0.4204
 6463TIP3    H240881   4.098   2.957   0.068  1.3737 -0.1608 -0.3043
 6464TIP3   OH240882   6.587   5.392   6.229 -0.5812 -0.0128  0.2931
 6464TIP3    H140883   6.600   5.424   6.318 -0.0110  1.3370 -0.2502
 6464TIP3    H240884   6.595   5.470   6.173 -0.3298 -0.9088 -0.9889
 6465TIP3   OH240885   0.535   0.917   0.168 -0.6946 -0.2828  0.6462
 6465TIP3    H140886   0.577   0.881   0.246  0.7623  2.7938  1.4059
 6465TIP3    H240887   0.602   0.971   0.126 -2.3034  0.4285 -1.1844
 6466TIP3   OH240888   4.385   4.237   5.222 -0.0632  0.1296 -0.0366
 6466TIP3    H140889   4.405   4.330   5.214  2.2804 -0.2469  0.7544
 6466TIP3    H240890   4.289   4.233   5.223 -0.2209  2.4820 -0.3850
 6467TIP3   OH240891   0.142   4.778   4.522 -0.1426 -0.4288 -0.8283
 6467TIP3    H140892   0.080   4.716   4.562 -0.5882 -0.7772 -2.0247
 6467TIP3    H240893   0.228   4.749   4.554 -0.3849 -1.3987 -1.0108
 6468TIP3   OH240894   1.004   0.426  14.724 -0.8663 -0.1692 -0.2199
 6468TIP3    H140895   0.956   0.473  14.655 -0.4560  0.2482 -0.2273
 6468TIP3    H240896   0.958   0.448  14.805  0.1713  1.4368 -0.0292
 6469TIP3   OH240897   4.814   3.298   0.712 -0.2649 -0.1165  0.0020
 6469TIP3    H140898   4.898   3.252   0.705 -0.2967 -0.2781  0.6665
 6469TIP3    H240899   4.754   3.235   0.750 -0.4343  0.3193  0.4652
 6470TIP3   OH240900   1.330   6.661  12.456 -0.0774 -0.4619  0.0380
 6470TIP3    H140901   1.259   6.697  12.509  0.9498  1.3609  0.2555
 6470TIP3    H240902   1.313   6.695  12.368  0.8531  0.5221  0.2242
 6471TIP3   OH240903   6.616   0.745   0.358  0.5583  0.1822  0.2430
 6471TIP3    H140904   6.705   0.710   0.354  0.8726  0.9647  0.2391
 6471TIP3    H240905   6.585   0.742   0.268 -0.1860 -1.9530  0.4882
 6472TIP3   OH240906   0.136   6.511  15.209 -0.3629 -0.0880  0.1205
 6472TIP3    H140907   0.220   6.493  15.252  0.1197  0.5029 -0.5492
 6472TIP3    H240908   0.147   6.598  15.171 -0.8628 -0.5050 -1.0129
 6473TIP3   OH240909   4.767   2.690   6.458 -0.4054  0.2579  0.1206
 6473TIP3    H140910   4.828   2.617   6.460 -1.7166 -0.8759  1.5200
 6473TIP3    H240911   4.794   2.746   6.531 -0.9062 -0.1680  0.6465
 6474TIP3   OH240912   1.384   2.754   2.257  0.1338 -0.0142 -0.2559
 6474TIP3    H140913   1.290   2.736   2.256  0.1530 -0.1472  0.1862
 6474TIP3    H240914   1.420   2.694   2.192  0.0447 -0.7170  0.3304
 6475TIP3   OH240915   6.770   4.134   0.436 -0.3009  0.1249  0.1601
 6475TIP3    H140916   6.864   4.141   0.419 -0.3128  0.8747  0.3623
 6475TIP3    H240917   6.748   4.045   0.410  0.1355  0.4524 -1.4690
 6476TIP3   OH240918   2.729   6.435  16.418 -0.0946 -0.2109 -0.2057
 6476TIP3    H140919   2.739   6.345  16.450 -0.8390  0.0803  0.8932
 6476TIP3    H240920   2.660   6.473  16.473  1.0373  1.4042  0.1769
 6477TIP3   OH240921   3.795   4.153  11.530 -0.2910 -0.2413 -0.3940
 6477TIP3    H140922   3.767   4.238  11.565 -0.0684 -1.2464  2.5691
 6477TIP3    H240923   3.890   4.161  11.521  0.3462 -1.1260  3.4920
 6478TIP3   OH240924   5.521   3.596   4.657 -0.0641  0.6912  0.3097
 6478TIP3    H140925   5.608   3.610   4.693 -0.1550  3.3351 -0.3038
 6478TIP3    H240926   5.483   3.526   4.712  2.9623 -1.8081 -0.5138
 6479TIP3   OH240927   0.528   6.669  15.350  0.5687  0.1876  0.3284
 6479TIP3    H140928   0.611   6.631  15.379  0.9397  1.5985  1.2144
 6479TIP3    H240929   0.552   6.735  15.286 -0.1161 -1.4071 -1.6651
 6480TIP3   OH240930   2.785   2.865  15.061 -0.3453 -0.2493 -0.0216
 6480TIP3    H140931   2.814   2.776  15.079 -1.3634 -0.3821  1.1144
 6480TIP3    H240932   2.863   2.911  15.032  0.1620 -1.5466 -0.7928
 6481TIP3   OH240933   4.797   3.928  13.887 -0.1739  0.1354 -1.0003
 6481TIP3    H140934   4.788   4.017  13.852 -1.3189  0.9177  1.1360
 6481TIP3    H240935   4.741   3.874  13.831  0.5861  0.7171 -2.3646
 6482TIP3   OH240936   1.481   5.159  13.126  0.1594  0.0349 -0.2289
 6482TIP3    H140937   1.558   5.144  13.071  1.3071  1.5670  0.8823
 6482TIP3    H240938   1.464   5.253  13.118  0.0413  0.2059  1.5939
 6483TIP3   OH240939   5.654   2.289  12.242 -0.9488 -0.2303  0.1242
 6483TIP3    H140940   5.715   2.338  12.188  0.0285 -0.8946  0.5963
 6483TIP3    H240941   5.576   2.277  12.187  0.0834 -1.0448 -1.2148
 6484TIP3   OH240942   5.834   5.943  17.006  0.2958 -0.2103 -0.6287
 6484TIP3    H140943   5.907   6.005  17.010  0.6251 -0.5519 -1.1354
 6484TIP3    H240944   5.756   5.998  17.001  0.4418  0.1673  0.7847
 6485TIP3   OH240945   3.865   5.189  15.838 -0.4060  0.1947 -0.4400
 6485TIP3    H140946   3.919   5.268  15.831  0.4466 -0.2780  0.5409
 6485TIP3    H240947   3.830   5.191  15.927  0.1159 -0.8210 -0.1910
 6486TIP3   OH240948   1.324   3.710   3.262 -0.1557 -0.1235 -0.2001
 6486TIP3    H140949   1.331   3.800   3.229  0.3083 -0.5069 -1.1674
 6486TIP3    H240950   1.408   3.670   3.240  1.3520  0.2994  3.7499
 6487TIP3   OH240951   5.067   5.110  12.176 -0.2462 -0.6326  0.0129
 6487TIP3    H140952   5.059   5.148  12.089 -2.0765 -0.2560  0.3225
 6487TIP3    H240953   5.123   5.033  12.162  0.3100 -0.0329 -1.2960
 6488TIP3   OH240954   4.783   0.989  15.480 -0.0047 -0.5885 -0.1046
 6488TIP3    H140955   4.776   1.084  15.471 -0.9745 -0.4897  1.3746
 6488TIP3    H240956   4.735   0.969  15.561  2.5836 -1.9987  1.2066
 6489TIP3   OH240957   5.167   0.301  14.715 -0.0640  0.2625 -1.6057
 6489TIP3    H140958   5.192   0.239  14.784 -0.9299  0.6173 -0.9639
 6489TIP3    H240959   5.241   0.300  14.654  0.1824 -0.9651 -1.3034
 6490TIP3   OH240960   2.620   5.031   3.275 -1.1433  0.5993 -0.0410
 6490TIP3    H140961   2.595   5.123   3.265  0.0635  1.1594  1.5048
 6490TIP3    H240962   2.606   5.013   3.368 -1.1686 -0.7304 -0.2846
 6491TIP3   OH240963   6.758   0.330   0.928 -0.3646  0.3839  0.4524
 6491TIP3    H140964   6.700   0.391   0.883  0.0279  1.2644  1.1180
 6491TIP3    H240965   6.832   0.383   0.957 -0.8819  0.0114  2.6850
 6492TIP3   OH240966   0.874   2.135   1.386 -0.3069  0.2295  0.2115
 6492TIP3    H140967   0.922   2.217   1.395  1.4997 -0.3384 -2.7516
 6492TIP3    H240968   0.858   2.127   1.292  0.1749 -3.1076  0.2941
 6493TIP3   OH240969   6.764   4.720   1.067 -0.4701  0.0711 -0.3673
 6493TIP3    H140970   6.749   4.630   1.038  1.0591 -0.2818 -0.1633
 6493TIP3    H240971   6.729   4.774   0.997 -0.5371 -0.7138 -0.9514
 6494TIP3   OH240972   6.722   0.684   1.181 -0.4293 -1.0603  0.3910
 6494TIP3    H140973   6.792   0.635   1.138 -0.7869 -0.1672 -1.3231
 6494TIP3    H240974   6.666   0.714   1.109 -2.0695 -0.9717  1.6445
 6495TIP3   OH240975   2.150   6.169  12.110 -0.2575  0.2508 -0.3004
 6495TIP3    H140976   2.214   6.219  12.160 -0.1940 -0.0818 -0.0498
 6495TIP3    H240977   2.090   6.235  12.075 -1.0634  0.3926  1.2735
 6496TIP3   OH240978   6.551   6.200   0.540 -0.4004 -0.4833  0.3857
 6496TIP3    H140979   6.474   6.222   0.487 -1.0458  0.8357  1.8132
 6496TIP3    H240980   6.529   6.229   0.628  1.1339 -1.5248  1.1553
 6497TIP3   OH240981   4.285   2.165   6.252  0.1489  0.3571  0.1418
 6497TIP3    H140982   4.320   2.252   6.231 -1.1419  0.7057 -0.7077
 6497TIP3    H240983   4.249   2.174   6.340  0.5628  0.5146  0.2951
 6498TIP3   OH240984   3.834   0.758   4.813  0.6379 -0.2401  0.3377
 6498TIP3    H140985   3.783   0.838   4.830  1.2135  0.0790  0.5863
 6498TIP3    H240986   3.869   0.734   4.899  0.4046 -0.8108  0.2761
 6499TIP3   OH240987   4.548   5.171   0.158 -0.0072 -0.3468  0.3282
 6499TIP3    H140988   4.545   5.149   0.065 -2.5133 -0.7643  0.4490
 6499TIP3    H240989   4.636   5.208   0.171  0.3554 -0.1370 -2.2159
 6500TIP3   OH240990   5.817   2.174  12.460 -0.5287  0.3757  0.2189
 6500TIP3    H140991   5.777   2.216  12.384  0.4234  1.2981  0.2010
 6500TIP3    H240992   5.793   2.082  12.452  0.7076  0.1640 -2.0006
 6501TIP3   OH240993   3.924   0.607   1.522  0.9225 -0.2611  0.3289
 6501TIP3    H140994   3.975   0.533   1.487  2.2230 -0.2708  2.1104
 6501TIP3    H240995   3.967   0.684   1.486  0.0729 -0.3227 -0.8690
 6502TIP3   OH240996   1.853   0.283   1.406 -0.2210  0.0903 -0.2044
 6502TIP3    H140997   1.772   0.233   1.396 -0.5623  0.4802  0.5294
 6502TIP3    H240998   1.921   0.226   1.370 -0.5263 -1.1167  1.0516
 6503TIP3   OH240999   3.077   0.528   1.625 -0.5225  0.4754 -0.1468
 6503TIP3    H141000   3.050   0.453   1.573  1.5029 -0.5488  0.1815
 6503TIP3    H241001   3.075   0.498   1.716  0.3927  0.7632 -0.0172
 6504TIP3   OH241002   6.072   3.995  10.512  0.3565 -0.4638  0.1068
 6504TIP3    H141003   6.045   3.947  10.590 -1.0990 -0.2623 -0.2431
 6504TIP3    H241004   6.008   4.065  10.503  1.3707  0.4374 -0.4387
 6505TIP3   OH241005   4.582   1.929  13.027  0.0471  0.0847 -0.2480
 6505TIP3    H141006   4.672   1.899  13.032 -0.9969 -3.4407  0.3424
 6505TIP3    H241007   4.545   1.911  13.113 -1.3089  1.2383 -0.5433
 6506TIP3   OH241008   6.137   5.173  13.702  0.7314 -0.5487 -0.3268
 6506TIP3    H141009   6.182   5.163  13.619 -0.4752 -0.0920 -1.0588
 6506TIP3    H241010   6.136   5.268  13.717 -0.3248 -0.5184 -0.5276
 6507TIP3   OH241011   6.181   0.556   2.581 -0.2430 -0.2036 -0.0781
 6507TIP3    H141012   6.105   0.504   2.606  0.0898 -0.8572 -0.4145
 6507TIP3    H241013   6.206   0.602   2.661 -0.6324 -0.4410  0.1809
 6508TIP3   OH241014   5.582   5.436   5.917 -0.1705  0.0476 -0.3215
 6508TIP3    H141015   5.499   5.465   5.879  0.7512 -0.3360 -2.8263
 6508TIP3    H241016   5.559   5.404   6.004 -2.5953  0.2221 -0.8306
 6509TIP3   OH241017   5.895   3.135  14.013 -0.2693 -0.1178 -0.1265
 6509TIP3    H141018   5.964   3.123  13.948 -0.7518 -0.0638 -0.6602
 6509TIP3    H241019   5.866   3.226  14.001 -1.1812 -0.4686 -0.6611
 6510TIP3   OH241020   3.596   5.300   0.194  0.2941 -0.8745 -0.5227
 6510TIP3    H141021   3.565   5.366   0.132  1.8993 -0.9662 -1.4850
 6510TIP3    H241022   3.619   5.225   0.139  0.0089 -1.6373  0.3865
 6511TIP3   OH241023   4.504   6.522   1.660  0.2146  0.0237  0.0443
 6511TIP3    H141024   4.443   6.573   1.713  0.6365  0.9127 -0.3129
 6511TIP3    H241025   4.530   6.449   1.717 -0.4244  0.1756  0.5446
 6512TIP3   OH241026   5.740   5.149   0.856  0.0064 -0.2378  0.5305
 6512TIP3    H141027   5.661   5.196   0.834  0.7648  0.4480 -0.8407
 6512TIP3    H241028   5.713   5.086   0.923 -1.4097  0.8317  1.0012
 6513TIP3   OH241029   1.684   6.363  13.600  0.0406 -0.5581 -0.2288
 6513TIP3    H141030   1.656   6.282  13.557 -0.4723 -0.3613 -0.2792
 6513TIP3    H241031   1.674   6.346  13.693 -2.8458  0.3489 -0.2433
 6514TIP3   OH241032   0.799   1.076  11.368  0.2952  1.1789  0.0022
 6514TIP3    H141033   0.798   1.161  11.411 -1.2398  1.1343  0.1053
 6514TIP3    H241034   0.806   1.013  11.440  0.0535  1.1868  0.0361
 6515TIP3   OH241035   4.769   2.539  15.973 -0.1908  0.2260  0.3002
 6515TIP3    H141036   4.798   2.465  15.919 -0.8167 -0.0095  0.2757
 6515TIP3    H241037   4.707   2.586  15.917 -2.1149 -0.9333  1.3470
 6516TIP3   OH241038   2.940   5.809   4.469  0.5390  0.2900 -0.0490
 6516TIP3    H141039   2.964   5.841   4.556  1.1496 -1.2296  0.3897
 6516TIP3    H241040   3.014   5.834   4.413  0.7682  0.1214  0.1738
 6517TIP3   OH241041   4.431   2.000   0.793 -0.4031  0.6048  0.3736
 6517TIP3    H141042   4.378   1.973   0.869  0.6349  0.6020  1.1263
 6517TIP3    H241043   4.506   1.940   0.794 -0.7932  0.0665 -1.1671
 6518TIP3   OH241044   4.300   5.522  15.746 -0.5479 -0.2441  0.0086
 6518TIP3    H141045   4.333   5.598  15.696  0.3089 -0.0974  0.7645
 6518TIP3    H241046   4.332   5.446  15.698 -0.9237 -0.1191 -0.4416
 6519TIP3   OH241047   0.202   0.806   2.597  0.2253 -0.3551 -0.5057
 6519TIP3    H141048   0.190   0.890   2.642 -0.5199 -1.0146  0.5935
 6519TIP3    H241049   0.279   0.767   2.639  0.8137 -0.0416 -1.2964
 6520TIP3   OH241050   1.483   2.170   2.640 -0.2779  0.3067 -0.0095
 6520TIP3    H141051   1.560   2.165   2.583 -1.0793 -0.8391 -1.0568
 6520TIP3    H241052   1.470   2.264   2.655 -0.8885  0.8227 -2.9840
 6521TIP3   OH241053   3.549   5.090  11.568 -0.1880 -0.1031 -0.3630
 6521TIP3    H141054   3.523   5.025  11.503  1.4804 -0.2271 -0.9514
 6521TIP3    H241055   3.475   5.095  11.629 -1.1491 -1.0911 -1.4189
 6522TIP3   OH241056   2.557   1.690  12.763 -0.8987 -0.1815  0.1318
 6522TIP3    H141057   2.574   1.780  12.738 -1.9040  0.2929  1.0823
 6522TIP3    H241058   2.466   1.674  12.737 -0.1333 -1.6104 -1.9175
 6523TIP3   OH241059   0.498   6.380  10.229  0.6153  0.0598  0.1582
 6523TIP3    H141060   0.463   6.468  10.244 -1.9136 -1.0425  1.2414
 6523TIP3    H241061   0.543   6.387  10.145 -1.3858  1.9177 -0.8767
 6524TIP3   OH241062   5.698   1.456   4.561 -0.5222 -0.3155 -0.1954
 6524TIP3    H141063   5.733   1.533   4.606  0.7885 -0.3413 -1.1176
 6524TIP3    H241064   5.644   1.492   4.490  1.1221 -0.1693 -1.4388
 6525TIP3   OH241065   5.824   5.602  14.288  0.0377  0.1744 -0.6426
 6525TIP3    H141066   5.852   5.564  14.371 -1.7512 -0.4780 -0.2888
 6525TIP3    H241067   5.825   5.528  14.227  1.7606  0.7393 -1.3478
 6526TIP3   OH241068   4.479   4.670   5.734  0.1591 -0.4810 -1.1692
 6526TIP3    H141069   4.489   4.713   5.819 -0.6227  0.0712 -1.3505
 6526TIP3    H241070   4.423   4.594   5.753 -1.0872  0.3610 -1.4108
 6527TIP3   OH241071   3.876   0.340  16.494 -0.4449  0.0845  0.3761
 6527TIP3    H141072   3.806   0.321  16.557  0.1162 -0.2885  0.8982
 6527TIP3    H241073   3.905   0.253  16.465 -0.8812  0.2568 -0.6091
 6528TIP3   OH241074   0.528   0.186  12.462 -0.1568  0.1137 -0.3630
 6528TIP3    H141075   0.503   0.228  12.544 -1.0578  2.5268 -1.7483
 6528TIP3    H241076   0.554   0.098  12.486 -0.5027  0.7049  2.4755
 6529TIP3   OH241077   3.152   5.034  16.148  0.2279  0.6994 -0.6046
 6529TIP3    H141078   3.179   4.948  16.183 -2.4835  0.5377  1.4794
 6529TIP3    H241079   3.131   5.017  16.057 -0.5372 -1.0026 -0.1689
 6530TIP3   OH241080   1.319   5.853  14.089  0.0369  0.0390  0.1150
 6530TIP3    H141081   1.357   5.776  14.047 -0.1334 -0.6591  1.2075
 6530TIP3    H241082   1.332   5.839  14.182 -0.6956  0.9600  0.3744
 6531TIP3   OH241083   5.330   3.171  14.652 -0.3450  0.4078 -0.0559
 6531TIP3    H141084   5.398   3.214  14.600  0.7268  0.3790  1.2712
 6531TIP3    H241085   5.303   3.237  14.715  2.3044 -1.1219  2.9270
 6532TIP3   OH241086   4.277   3.262  16.967 -0.0618 -0.2045  0.4043
 6532TIP3    H141087   4.338   3.311  17.021  2.2367  0.6511 -2.6530
 6532TIP3    H241088   4.312   3.173  16.965 -0.6548 -0.4592  0.9887
 6533TIP3   OH241089   0.214   3.224   0.334 -0.4738 -0.5864 -0.1389
 6533TIP3    H141090   0.123   3.202   0.356 -0.9717 -0.1066 -1.5639
 6533TIP3    H241091   0.234   3.299   0.390 -1.5640  0.3631 -0.9427
 6534TIP3   OH241092   6.793   1.513  15.808 -0.0142  0.1441 -0.2330
 6534TIP3    H141093   6.789   1.608  15.800  0.3093  0.1000 -1.0591
 6534TIP3    H241094   6.861   1.497  15.874 -1.3786  0.5063  1.3194
 6535TIP3   OH241095   0.141   4.422   3.953  0.5627 -0.0298  0.4264
 6535TIP3    H141096   0.088   4.402   4.030 -0.0923  1.6098  0.4448
 6535TIP3    H241097   0.115   4.511   3.928  0.2591 -0.7611 -2.1252
 6536TIP3   OH241098   1.589   1.967   6.342 -0.0780 -0.1660  0.0170
 6536TIP3    H141099   1.508   1.996   6.382 -1.1055 -0.1607 -1.9533
 6536TIP3    H241100   1.562   1.906   6.273  1.4713  0.7984 -1.5293
 6537TIP3   OH241101   3.256   0.709  15.745 -0.1551  0.0949  0.1982
 6537TIP3    H141102   3.234   0.729  15.653 -0.7741 -0.3914  0.2360
 6537TIP3    H241103   3.302   0.626  15.740  1.3828  0.9131  0.1617
 6538TIP3   OH241104   5.910   5.730   0.642  0.0383  0.1015  0.5239
 6538TIP3    H141105   5.984   5.700   0.590 -1.1987  0.2671 -1.4017
 6538TIP3    H241106   5.833   5.715   0.587 -1.2708  0.9011  2.0407
 6539TIP3   OH241107   3.596   2.969   0.692 -0.1692 -0.5034 -0.4185
 6539TIP3    H141108   3.608   2.944   0.601 -0.7477 -0.1332 -0.5991
 6539TIP3    H241109   3.522   3.028   0.692 -0.2829 -0.6255  0.3179
 6540TIP3   OH241110   0.569   5.807   0.190  0.3862  0.4965 -1.0390
 6540TIP3    H141111   0.538   5.730   0.238  1.6477  0.0185 -0.9523
 6540TIP3    H241112   0.501   5.873   0.204  1.1779  0.7823  2.4353
 6541TIP3   OH241113   0.145   5.082  14.122 -0.7927  0.3118 -0.1258
 6541TIP3    H141114   0.190   5.166  14.131  0.0827  0.0948 -1.9651
 6541TIP3    H241115   0.113   5.082  14.032 -0.1582 -1.5939 -0.3893
 6542TIP3   OH241116   1.853   5.192   5.713 -0.0375 -0.3888 -0.1411
 6542TIP3    H141117   1.794   5.228   5.779  0.0869  0.6720 -0.5808
 6542TIP3    H241118   1.862   5.100   5.736  0.3495  0.0476  1.5717
 6543TIP3   OH241119   4.200   2.872  12.052  0.0481  0.9945  0.0634
 6543TIP3    H141120   4.196   2.869  12.147  0.6930  0.3375  0.0739
 6543TIP3    H241121   4.140   2.943  12.028 -0.8774  0.5177  0.8961
 6544TIP3   OH241122   5.048   4.616   2.984  0.3040 -0.1065 -0.2278
 6544TIP3    H141123   4.991   4.548   2.949  0.5606 -0.3678 -0.1366
 6544TIP3    H241124   4.993   4.663   3.047 -0.3871  0.8067 -1.4638
 6545TIP3   OH241125   0.212   5.018   2.746 -0.1837 -0.7368  0.3171
 6545TIP3    H141126   0.204   5.006   2.841 -1.0915 -0.6336  0.2618
 6545TIP3    H241127   0.127   4.989   2.711 -0.6655  1.2285 -0.2652
 6546TIP3   OH241128   0.244   6.188  14.153 -0.3993  0.2188 -0.0323
 6546TIP3    H141129   0.307   6.242  14.201 -1.5626  1.7735 -0.1713
 6546TIP3    H241130   0.235   6.109  14.206  0.8066  0.4468  0.5597
 6547TIP3   OH241131   2.827   0.411  15.647  0.4099 -0.1008  0.3230
 6547TIP3    H141132   2.830   0.504  15.671  1.3041  0.4142 -1.6066
 6547TIP3    H241133   2.755   0.375  15.698 -2.3884  2.4511 -1.5154
 6548TIP3   OH241134   1.956   3.613   2.579 -0.4415 -0.3652  0.4394
 6548TIP3    H141135   1.968   3.700   2.618  0.2541 -0.5294  0.6134
 6548TIP3    H241136   1.864   3.610   2.554 -0.3568  0.6144 -0.0290
 6549TIP3   OH241137   4.334   5.678  12.210 -0.4689 -0.4063  0.3040
 6549TIP3    H141138   4.370   5.695  12.297  2.2440 -2.3920 -0.3260
 6549TIP3    H241139   4.410   5.675  12.152 -2.2363  1.6935 -2.3924
 6550TIP3   OH241140   0.295   4.386  14.107  0.4277 -0.4201 -0.3726
 6550TIP3    H141141   0.211   4.411  14.145  0.1521 -1.6971 -0.1076
 6550TIP3    H241142   0.297   4.430  14.022  0.1696  0.8389  0.2445
 6551TIP3   OH241143   5.573   3.192   2.740  0.4778 -0.2938  0.4367
 6551TIP3    H141144   5.663   3.225   2.740  0.2986  0.2364 -0.3946
 6551TIP3    H241145   5.520   3.269   2.718 -0.2637 -0.4089  1.6947
 6552TIP3   OH241146   3.216   3.294   0.788  0.3766  0.6553 -0.0331
 6552TIP3    H141147   3.160   3.281   0.711 -1.1223  0.9168  0.9810
 6552TIP3    H241148   3.289   3.346   0.756 -0.4132  1.0792 -1.2073
 6553TIP3   OH241149   6.752   6.057   3.275  0.6252 -0.3870  0.2732
 6553TIP3    H141150   6.734   6.093   3.188 -2.5603  0.9791  1.3180
 6553TIP3    H241151   6.847   6.064   3.285  0.9985  0.3160 -2.6725
 6554TIP3   OH241152   0.887   3.266  16.796 -0.1426 -0.2153  0.0790
 6554TIP3    H141153   0.886   3.362  16.800  0.3315 -0.1010 -1.8835
 6554TIP3    H241154   0.806   3.244  16.751 -0.1539 -0.7343  0.3525
 6555TIP3   OH241155   6.481   3.634  14.729 -0.6463 -0.6258  0.7697
 6555TIP3    H141156   6.429   3.680  14.796 -0.4885  0.8602 -0.0912
 6555TIP3    H241157   6.541   3.579  14.780 -2.4649 -1.7762  1.8000
 6556TIP3   OH241158   0.766   3.522   2.976  0.8734  0.5012 -0.4329
 6556TIP3    H141159   0.772   3.556   2.887  0.8681  1.4348 -0.0887
 6556TIP3    H241160   0.852   3.541   3.014 -0.3475  3.9637  1.0610
 6557TIP3   OH241161   5.345   5.940   1.364 -0.0863 -0.5431 -0.0321
 6557TIP3    H141162   5.379   6.007   1.306  2.3798 -1.4552  0.2478
 6557TIP3    H241163   5.272   5.901   1.316  0.1763  0.5188 -1.3475
 6558TIP3   OH241164   5.942   0.079  16.656  0.1673  0.3387 -0.0174
 6558TIP3    H141165   5.945  -0.014  16.677 -0.6878  0.4869  0.8831
 6558TIP3    H241166   6.026   0.098  16.615  1.4367 -0.3112  2.1133
 6559TIP3   OH241167   1.970   4.997  15.367  0.5102 -0.2991  0.1552
 6559TIP3    H141168   1.947   5.011  15.459  1.3806  0.5133  0.2667
 6559TIP3    H241169   1.984   4.902  15.361 -1.6367 -0.6647  0.3308
 6560TIP3   OH241170   2.981   3.148   2.333  0.5264  0.4577 -0.6553
 6560TIP3    H141171   2.932   3.219   2.293 -0.8202  0.1637  0.3516
 6560TIP3    H241172   2.979   3.077   2.269 -0.3639  0.4710 -0.6520
 6561TIP3   OH241173   2.435   1.314  17.001  0.2163  0.2730  0.4652
 6561TIP3    H141174   2.496   1.249  16.964 -0.2402 -0.9847  1.8399
 6561TIP3    H241175   2.433   1.384  16.936  0.6549 -1.1303 -1.1254
 6562TIP3   OH241176   0.950   0.519  12.976  0.5279 -0.3492 -0.0027
 6562TIP3    H141177   1.011   0.510  13.050  1.6863 -0.0434 -0.9020
 6562TIP3    H241178   0.993   0.474  12.904 -0.7649 -0.9669 -0.4232
 6563TIP3   OH241179   3.987   0.361  13.739  0.6436 -0.1040  0.2783
 6563TIP3    H141180   4.031   0.294  13.791 -0.5818 -1.0795  0.1114
 6563TIP3    H241181   4.054   0.391  13.677  1.5249 -0.3688  1.0908
 6564TIP3   OH241182   3.897   3.411  11.752 -0.2949 -0.0271 -0.5614
 6564TIP3    H141183   3.910   3.505  11.748 -0.9511  0.0942 -0.0558
 6564TIP3    H241184   3.954   3.381  11.822 -0.8109  0.1427 -0.0575
 6565TIP3   OH241185   2.040   0.663   2.869  0.4955  0.2087 -0.0279
 6565TIP3    H141186   1.979   0.684   2.799  0.0203  1.1150  0.6338
 6565TIP3    H241187   1.988   0.610   2.931  0.4516  0.7423  0.3977
 6566TIP3   OH241188   0.691   1.011   3.575  0.4414  0.0745 -0.2003
 6566TIP3    H141189   0.763   0.959   3.539  0.4796 -0.8227  1.1140
 6566TIP3    H241190   0.726   1.100   3.580  2.4999 -0.7804  2.9349
 6567TIP3   OH241191   5.076   1.564  13.806  0.2785 -0.1866  0.2262
 6567TIP3    H141192   5.110   1.598  13.723 -2.2270  2.6274  0.1577
 6567TIP3    H241193   4.991   1.526  13.783 -1.2280  2.1012  1.5722
 6568TIP3   OH241194   6.274   1.043  11.134  0.0734  0.0171 -0.3672
 6568TIP3    H141195   6.240   1.006  11.216  1.2227 -2.2128 -0.8423
 6568TIP3    H241196   6.233   0.992  11.065  1.2915 -0.0248 -1.0834
 6569TIP3   OH241197   0.110   4.001   0.641  0.4449 -0.2043  0.0473
 6569TIP3    H141198   0.091   4.094   0.650 -3.3685 -0.7181 -0.9769
 6569TIP3    H241199   0.170   3.996   0.566 -0.6758  1.3669 -1.0179
 6570TIP3   OH241200   2.970   0.868  12.173 -0.8006 -0.4646 -0.6021
 6570TIP3    H141201   2.993   0.945  12.225  0.3320 -1.2248  0.0492
 6570TIP3    H241202   3.031   0.800  12.201 -1.7747 -1.6178 -1.1648
 6571TIP3   OH241203   2.598   2.981  14.326  0.1777  0.0703 -0.2181
 6571TIP3    H141204   2.682   2.996  14.283  0.1789  1.3833  0.2137
 6571TIP3    H241205   2.616   2.911  14.389  0.7199 -0.2781 -0.7488
 6572TIP3   OH241206   3.561   0.105  11.744  0.5585  0.3942  0.1668
 6572TIP3    H141207   3.488   0.125  11.685 -0.4032  0.0352  1.1948
 6572TIP3    H241208   3.532   0.028  11.793  1.1682  0.8836  1.3548
 6573TIP3   OH241209   5.553   0.343   2.261  0.1896 -0.0055 -0.2791
 6573TIP3    H141210   5.577   0.428   2.300 -0.0785 -0.3629  0.6944
 6573TIP3    H241211   5.534   0.364   2.170  0.1851  0.9754 -0.0733
 6574TIP3   OH241212   5.611   3.533   1.906  0.2219 -0.5708  0.2406
 6574TIP3    H141213   5.626   3.579   1.824  2.0772 -1.0112  0.2806
 6574TIP3    H241214   5.520   3.503   1.901  0.2267 -0.3786 -1.5322
 6575TIP3   OH241215   3.874   1.154   2.838  0.5495  0.1177  0.1570
 6575TIP3    H141216   3.946   1.095   2.816 -0.4417 -0.2679 -2.4365
 6575TIP3    H241217   3.874   1.219   2.768 -0.9101  0.7780  0.7260
 6576TIP3   OH241218   3.438   3.179   5.786 -0.8697 -0.1679 -0.2134
 6576TIP3    H141219   3.452   3.270   5.758 -1.8526  0.1349  0.2048
 6576TIP3    H241220   3.524   3.139   5.783 -0.7611  0.1253 -2.6736
 6577TIP3   OH241221   1.002   0.900  12.662  0.6149  0.2039  0.0714
 6577TIP3    H141222   1.055   0.893  12.741  1.2038 -0.7315 -0.3952
 6577TIP3    H241223   0.919   0.936  12.692  0.5087 -0.9851  1.2567
 6578TIP3   OH241224   1.364   4.067  14.727  0.2891  0.0679  0.0874
 6578TIP3    H141225   1.452   4.095  14.753 -0.1257  1.2860  0.2533
 6578TIP3    H241226   1.357   3.977  14.758  0.6888  0.6801  2.0996
 6579TIP3   OH241227   1.837   3.256   5.327 -0.5297  0.5122  0.0732
 6579TIP3    H141228   1.848   3.348   5.303  0.4711  0.4940  0.4143
 6579TIP3    H241229   1.799   3.216   5.249  0.9090  0.8238 -0.8338
 6580TIP3   OH241230   2.447   0.024  17.047  0.5384 -0.0355 -0.0597
 6580TIP3    H141231   2.500   0.102  17.033  0.7757 -0.0024  0.9771
 6580TIP3    H241232   2.360   0.058  17.070  0.6459 -0.0670  0.4072
 6581TIP3   OH241233   1.397   3.681   3.536  0.8778  0.8347 -0.0776
 6581TIP3    H141234   1.354   3.689   3.451 -1.6481  0.0533  1.0184
 6581TIP3    H241235   1.484   3.646   3.517 -0.2602 -1.0393 -2.2277
 6582TIP3   OH241236   0.843   5.105  16.034 -0.3919 -0.4685 -0.3469
 6582TIP3    H141237   0.892   5.062  15.964 -0.0820 -0.4033 -0.1701
 6582TIP3    H241238   0.776   5.042  16.059 -0.2370 -0.6600 -0.4130
 6583TIP3   OH241239   6.672   0.467  12.193 -0.5673 -0.0945  0.0996
 6583TIP3    H141240   6.691   0.536  12.130 -0.1287  1.3611  1.7534
 6583TIP3    H241241   6.748   0.466  12.251 -0.5356 -2.0230  0.1157
 6584TIP3   OH241242   0.405   1.698  15.601 -0.3418  0.0218  0.2928
 6584TIP3    H141243   0.476   1.634  15.609 -0.8659 -0.5574  0.2939
 6584TIP3    H241244   0.369   1.683  15.513 -0.4640  0.3220  0.2895
 6585TIP3   OH241245   6.346   3.307  12.434  0.3722  0.1043  0.5690
 6585TIP3    H141246   6.425   3.358  12.453  2.0182 -1.9987 -0.3135
 6585TIP3    H241247   6.316   3.341  12.350  0.5851  0.6110  0.6929
 6586TIP3   OH241248   1.027   3.589   5.373  0.3385  0.6015 -0.1933
 6586TIP3    H141249   1.033   3.515   5.434 -1.3895  2.0759  1.9278
 6586TIP3    H241250   0.987   3.551   5.294  0.7967 -0.9808  0.2843
 6587TIP3   OH241251   0.449   2.252  14.791 -0.0774 -0.0756  0.0094
 6587TIP3    H141252   0.374   2.255  14.850  1.0362  1.5299  1.4398
 6587TIP3    H241253   0.512   2.194  14.834  0.1585 -0.0908 -0.3481
 6588TIP3   OH241254   3.708   6.470   1.108  0.0616  0.1490 -0.8526
 6588TIP3    H141255   3.647   6.396   1.115  0.6676 -0.4779 -2.0326
 6588TIP3    H241256   3.686   6.526   1.184 -1.4264 -0.4596 -0.7980
 6589TIP3   OH241257   4.659   3.223  13.730  0.3312  0.7661 -0.0980
 6589TIP3    H141258   4.572   3.188  13.712  0.9672 -0.9008 -0.0731
 6589TIP3    H241259   4.717   3.176  13.671  1.6895 -0.7117  2.2610
 6590TIP3   OH241260   1.536   5.902  15.833 -0.3300  0.7620 -0.3453
 6590TIP3    H141261   1.444   5.920  15.814 -0.4547  0.3452 -0.1483
 6590TIP3    H241262   1.578   5.988  15.834 -0.5770  0.9068 -1.1540
 6591TIP3   OH241263   1.429   2.040   4.568 -0.0201  0.0880 -0.2978
 6591TIP3    H141264   1.390   1.966   4.613  0.0115 -0.1887 -0.7183
 6591TIP3    H241265   1.523   2.033   4.584  0.1621 -0.8791 -1.6534
 6592TIP3   OH241266   5.393   4.549   5.940  0.4191 -0.4799 -0.5816
 6592TIP3    H141267   5.362   4.478   5.883 -0.8862 -0.6462  0.2875
 6592TIP3    H241268   5.488   4.547   5.931  0.5186 -3.1321  0.3388
 6593TIP3   OH241269   2.348   3.276  15.125  0.0690 -0.1843 -0.6861
 6593TIP3    H141270   2.422   3.285  15.185 -0.2177  0.1060 -0.3709
 6593TIP3    H241271   2.299   3.358  15.135  0.0582 -0.1006 -1.3749
 6594TIP3   OH241272   4.219   0.991  14.753  0.6074  0.8226 -0.4603
 6594TIP3    H141273   4.295   1.040  14.783  0.0265  0.4375  1.8024
 6594TIP3    H241274   4.197   0.933  14.826 -2.0400  1.1212 -0.9329
 6595TIP3   OH241275   0.843   2.779  12.204 -0.4285  0.2011  0.5051
 6595TIP3    H141276   0.867   2.692  12.170 -0.7725  0.6285 -0.8663
 6595TIP3    H241277   0.908   2.838  12.167  0.2211  0.4687  1.9922
 6596TIP3   OH241278   0.683   1.951  12.249  0.5248 -0.5173 -0.2219
 6596TIP3    H141279   0.651   1.978  12.163 -0.5432 -1.0189  0.0148
 6596TIP3    H241280   0.766   1.906  12.230  1.7079  1.7410 -0.7350
 6597TIP3   OH241281   0.596   0.033  16.629  0.3100  0.2120  0.5758
 6597TIP3    H141282   0.687   0.051  16.652  0.6571  0.4922 -0.9438
 6597TIP3    H241283   0.589   0.055  16.536 -1.1669 -0.3567  0.5192
 6598TIP3   OH241284   1.239   5.857  15.867 -0.5191  0.3249 -0.0077
 6598TIP3    H141285   1.160   5.835  15.817 -1.0860 -0.3959  1.1625
 6598TIP3    H241286   1.238   5.953  15.870 -0.3789  0.3935 -1.4899
 6599TIP3   OH241287   4.173   4.329   0.621  0.1490  0.7550  0.2350
 6599TIP3    H141288   4.257   4.285   0.629  0.7207  0.9052 -3.4073
 6599TIP3    H241289   4.109   4.266   0.656  1.4919 -0.4327  0.6461
 6600TIP3   OH241290   6.615   0.120   2.627  0.1895  0.0086  0.3419
 6600TIP3    H141291   6.635   0.212   2.647  1.0454 -0.5195  2.0908
 6600TIP3    H241292   6.654   0.105   2.542  1.1635  0.9228  0.6069
 6601TIP3   OH241293   4.263   1.478  13.559 -0.3370  0.4282 -0.2331
 6601TIP3    H141294   4.274   1.386  13.581  0.4409  0.5625 -0.0615
 6601TIP3    H241295   4.246   1.521  13.643 -2.7982  0.1608 -0.5194
 6602TIP3   OH241296   3.338   2.691  14.803 -0.7343  0.2180  0.4636
 6602TIP3    H141297   3.368   2.730  14.721 -0.4320  0.6026  0.7593
 6602TIP3    H241298   3.315   2.765  14.859 -2.5016 -0.0443  0.1615
 6603TIP3   OH241299   2.409   4.991   5.167 -0.0167 -0.2846 -0.0102
 6603TIP3    H141300   2.355   5.056   5.122  0.8405  1.1827  0.9826
 6603TIP3    H241301   2.452   4.942   5.096 -0.3152  0.5594 -0.7958
 6604TIP3   OH241302   2.323   1.879  16.762 -0.4071  0.1264 -0.4311
 6604TIP3    H141303   2.240   1.899  16.806 -0.4864 -0.7995 -0.1426
 6604TIP3    H241304   2.317   1.786  16.740  0.2956  0.1995 -0.9854
 6605TIP3   OH241305   5.069   0.475   0.237  0.0371  0.2170 -0.1720
 6605TIP3    H141306   4.981   0.460   0.272 -0.2592  1.0349 -0.5447
 6605TIP3    H241307   5.076   0.570   0.230  0.5319  0.1122 -1.2271
 6606TIP3   OH241308   1.406   0.836   0.481 -0.2882 -0.5960  0.0385
 6606TIP3    H141309   1.348   0.886   0.423  0.5386  0.4674  0.0862
 6606TIP3    H241310   1.432   0.760   0.429 -0.2722 -0.1209 -0.6598
 6607TIP3   OH241311   4.383   0.695   0.040 -0.3404 -0.7798  0.1900
 6607TIP3    H141312   4.344   0.737   0.117 -2.4960 -0.1367 -1.1623
 6607TIP3    H241313   4.425   0.766  -0.008 -0.8257 -0.7821 -0.2532
 6608TIP3   OH241314   6.742   0.003   5.875 -0.2819 -0.2361  0.3085
 6608TIP3    H141315   6.756  -0.073   5.818 -1.3650  1.3794 -2.2827
 6608TIP3    H241316   6.743   0.078   5.815 -2.8068  1.4655  2.2274
 6609TIP3   OH241317   0.513   3.109   1.599  0.1217  0.4778  0.1696
 6609TIP3    H141318   0.529   3.025   1.554 -1.3157 -0.1105  0.7089
 6609TIP3    H241319   0.440   3.149   1.550 -2.5346 -0.8692  2.7320
 6610TIP3   OH241320   5.681   5.062   4.220  0.1872  0.5586  0.3840
 6610TIP3    H141321   5.648   4.973   4.231 -0.5405  1.1124  3.3348
 6610TIP3    H241322   5.605   5.118   4.229  0.7363  1.5681 -0.8400
 6611TIP3   OH241323   1.681   1.945  15.860 -0.4910 -0.1355 -0.5117
 6611TIP3    H141324   1.591   1.972  15.847 -0.2044  0.2152 -1.9640
 6611TIP3    H241325   1.717   1.936  15.771  0.3318 -2.2562 -0.0373
 6612TIP3   OH241326   3.307   0.569   3.280 -0.6316 -0.2309 -0.0945
 6612TIP3    H141327   3.267   0.563   3.367 -1.7149 -0.8751 -0.6124
 6612TIP3    H241328   3.401   0.560   3.296 -0.7078  0.8659  1.1118
 6613TIP3   OH241329   6.783   5.788   0.738 -0.2570  0.4101 -0.1553
 6613TIP3    H141330   6.857   5.819   0.687  0.6615  0.7051  1.2967
 6613TIP3    H241331   6.800   5.820   0.827 -1.6420 -0.3290  0.4053
 6614TIP3   OH241332   0.246   6.222   3.420  0.5939  0.4345  0.3877
 6614TIP3    H141333   0.190   6.259   3.351  0.5624 -0.6035 -0.1688
 6614TIP3    H241334   0.201   6.243   3.501 -0.1193  0.4394  0.0011
 6615TIP3   OH241335   1.205   4.524   3.834 -0.5182  0.3319 -0.1593
 6615TIP3    H141336   1.169   4.606   3.869  0.7396  1.3076 -1.0447
 6615TIP3    H241337   1.221   4.542   3.742  1.1584 -0.3863 -0.0598
 6616TIP3   OH241338   6.813   1.777  11.526 -0.1041 -0.0497 -0.4600
 6616TIP3    H141339   6.859   1.706  11.571 -2.8166 -0.6238  1.7217
 6616TIP3    H241340   6.878   1.816  11.469  2.7564 -1.3858  1.6441
 6617TIP3   OH241341   1.075   3.995  13.568 -0.3397 -0.0868  0.0871
 6617TIP3    H141342   0.987   4.031  13.561 -0.4440 -0.6453 -2.4802
 6617TIP3    H241343   1.126   4.044  13.503  1.3650  0.4297  1.7154
 6618TIP3   OH241344   3.847   2.212  12.572  0.0298 -0.1356  0.2464
 6618TIP3    H141345   3.754   2.208  12.594 -0.4440  3.5858 -0.4042
 6618TIP3    H241346   3.890   2.167  12.645 -2.2335 -1.7442  0.6861
 6619TIP3   OH241347   1.757   0.115   0.327 -0.0915 -0.0901  0.9971
 6619TIP3    H141348   1.779   0.131   0.419  2.4397 -0.4907  0.5470
 6619TIP3    H241349   1.782   0.024   0.312 -2.4232 -0.7077  0.3634
 6620TIP3   OH241350   4.854   2.363   4.607  0.0832  0.9200 -0.6689
 6620TIP3    H141351   4.880   2.341   4.696 -1.4496 -0.4248 -0.4969
 6620TIP3    H241352   4.888   2.452   4.593 -0.0414  1.3462  1.4132
 6621TIP3   OH241353   4.821   4.443   4.333 -0.3392 -0.6056 -0.4703
 6621TIP3    H141354   4.785   4.493   4.260 -0.3637 -0.1489 -0.1456
 6621TIP3    H241355   4.759   4.454   4.404 -2.0348 -3.6804 -1.2900
 6622TIP3   OH241356   2.570   4.118   2.905  0.1266  0.0350  0.1295
 6622TIP3    H141357   2.588   4.051   2.971 -0.7556 -0.0034  0.3542
 6622TIP3    H241358   2.476   4.110   2.889 -0.0221  1.3155  0.2665
 6623TIP3   OH241359   0.201   4.729   4.946  0.1326 -0.2769  0.4787
 6623TIP3    H141360   0.131   4.778   4.989  1.9771  1.9520  1.0818
 6623TIP3    H241361   0.232   4.787   4.876  1.2941 -1.2835  0.1248
 6624TIP3   OH241362   6.136   6.221   3.969 -0.1119  0.2631  0.1766
 6624TIP3    H141363   6.178   6.207   3.884 -0.1168  0.0702  0.2039
 6624TIP3    H241364   6.124   6.132   4.003  2.2910  0.3773  1.5517
 6625TIP3   OH241365   5.410   2.107   0.674  0.2373 -1.0382  0.3034
 6625TIP3    H141366   5.365   2.031   0.713 -1.2889 -1.5467 -2.1821
 6625TIP3    H241367   5.502   2.091   0.691  0.0132 -3.7292 -0.4175
 6626TIP3   OH241368   2.369   6.052  16.153 -0.2969  0.3071  0.1806
 6626TIP3    H141369   2.398   6.068  16.243 -1.0149 -2.3029  0.9528
 6626TIP3    H241370   2.342   5.960  16.152  0.9448 -0.1644 -3.0589
 6627TIP3   OH241371   1.224   6.068  13.173 -0.1783  0.4573  0.2207
 6627TIP3    H141372   1.181   5.988  13.203 -1.0609  1.8523  2.9839
 6627TIP3    H241373   1.158   6.113  13.121 -0.4594  0.4263  0.5499
 6628TIP3   OH241374   6.169   1.737  16.186  0.3615  0.0412 -0.1335
 6628TIP3    H141375   6.187   1.831  16.184 -2.1605  0.6155  0.6243
 6628TIP3    H241376   6.203   1.704  16.103 -0.1304  1.9279 -1.1466
 6629TIP3   OH241377   3.105   4.265  14.826  0.3902 -0.2384 -0.0230
 6629TIP3    H141378   3.176   4.251  14.888  0.5074 -1.3096 -0.3829
 6629TIP3    H241379   3.096   4.360  14.821 -0.2823 -0.1218  2.3682
 6630TIP3   OH241380   5.327   0.602   5.024  0.3336  0.5087  0.4374
 6630TIP3    H141381   5.319   0.592   4.929  1.6119  0.9520  0.2717
 6630TIP3    H241382   5.276   0.680   5.044 -1.1289 -0.3788  0.3343
 6631TIP3   OH241383   4.288   2.712  14.504  0.1759  0.2630  0.6586
 6631TIP3    H141384   4.307   2.733  14.413  1.2617  1.0917  1.0512
 6631TIP3    H241385   4.311   2.619  14.513  1.2140  0.4779  0.3648
 6632TIP3   OH241386   5.449   6.235   3.204 -0.7202  0.3736 -0.2926
 6632TIP3    H141387   5.378   6.176   3.179 -1.4905  1.1919 -0.1016
 6632TIP3    H241388   5.407   6.321   3.211  0.0653  0.6899  0.8880
 6633TIP3   OH241389   2.541   6.727   0.703  0.2242 -0.1469  0.6244
 6633TIP3    H141390   2.556   6.746   0.610  1.4794  0.9382  1.0209
 6633TIP3    H241391   2.601   6.655   0.722  0.8398  0.4176  0.8599
 6634TIP3   OH241392   4.062   3.676  12.025 -0.4937 -0.2277 -0.8319
 6634TIP3    H141393   4.078   3.763  11.989  0.6506  0.8149  1.9859
 6634TIP3    H241394   4.078   3.684  12.118  0.7412 -3.7426 -0.5819
 6635TIP3   OH241395   4.086   1.398   6.445  0.0472 -0.1725 -0.5922
 6635TIP3    H141396   4.152   1.392   6.513  0.6153  1.9778 -0.8644
 6635TIP3    H241397   4.016   1.339   6.473 -0.1856  1.3420  2.3856
 6636TIP3   OH241398   6.317   2.269  11.883 -0.1387 -0.5748  0.0053
 6636TIP3    H141399   6.399   2.317  11.870  0.7026 -1.9562  0.0197
 6636TIP3    H241400   6.328   2.189  11.831 -0.8107 -1.5212  1.2694
 6637TIP3   OH241401   5.550   3.404   1.054  0.3718 -0.0403  0.0632
 6637TIP3    H141402   5.638   3.395   1.092  1.2324 -0.4383 -1.8993
 6637TIP3    H241403   5.509   3.319   1.068  0.7980 -0.2868 -0.1379
 6638TIP3   OH241404   3.054   5.683  15.636  0.3918  0.5342 -0.1379
 6638TIP3    H141405   3.099   5.763  15.662  0.8708  0.0210  0.6660
 6638TIP3    H241406   3.021   5.647  15.719 -0.2576  0.1615 -0.5516
 6639TIP3   OH241407   3.817   0.776   0.011 -0.8931  0.2773  0.0156
 6639TIP3    H141408   3.858   0.854   0.048 -0.9459  0.0090  0.6499
 6639TIP3    H241409   3.749   0.811  -0.047 -1.6154  0.7133  1.0799
 6640TIP3   OH241410   4.159   3.780  15.553 -0.4526 -0.6202  0.0057
 6640TIP3    H141411   4.173   3.772  15.648  1.3092 -0.7096 -0.2249
 6640TIP3    H241412   4.209   3.857  15.528  0.3311 -1.4447 -1.0633
 6641TIP3   OH241413   4.563   5.134   1.018  0.0586 -0.1152 -0.1357
 6641TIP3    H141414   4.552   5.042   0.996 -0.6269 -0.7078  2.3291
 6641TIP3    H241415   4.658   5.148   1.015  0.1232 -0.6982 -1.2179
 6642TIP3   OH241416   4.465   5.768  11.693 -0.7952  0.0426 -0.0437
 6642TIP3    H141417   4.517   5.781  11.613 -0.9425  2.6647  0.1757
 6642TIP3    H241418   4.386   5.724  11.664 -0.4745  0.1947 -1.2099
 6643TIP3   OH241419   5.721   6.004  15.750 -0.6174  0.0780  0.7663
 6643TIP3    H141420   5.755   6.083  15.791  0.5530  0.2705 -0.4822
 6643TIP3    H241421   5.760   6.004  15.662 -2.2020 -0.8269  0.0115
 6644TIP3   OH241422   2.863   4.648  16.125 -0.3746  0.4085 -0.2806
 6644TIP3    H141423   2.855   4.683  16.036  2.0860  0.8414 -0.4030
 6644TIP3    H241424   2.957   4.649  16.143 -0.5750 -2.0248  1.4067
 6645TIP3   OH241425   4.604   0.111   3.743 -0.5251 -0.2960  0.1980
 6645TIP3    H141426   4.652   0.134   3.823 -0.8981  0.2763  0.2655
 6645TIP3    H241427   4.528   0.170   3.743 -0.4060 -0.1318 -0.6986
 6646TIP3   OH241428   6.838   1.598   0.849  0.4483 -0.2310 -0.1085
 6646TIP3    H141429   6.821   1.525   0.791 -2.6379  0.7796 -0.6779
 6646TIP3    H241430   6.840   1.675   0.792  1.1350  0.4225  0.7475
 6647TIP3   OH241431   0.617   1.699   1.235 -0.1553 -0.0544 -0.6492
 6647TIP3    H141432   0.555   1.650   1.182 -2.2138  0.8737  0.7529
 6647TIP3    H241433   0.582   1.694   1.324  1.5098  0.9644  0.1226
 6648TIP3   OH241434   5.664   0.246   2.603  0.2079 -0.6738 -0.1076
 6648TIP3    H141435   5.585   0.300   2.609  1.0353  0.4417  1.3640
 6648TIP3    H241436   5.722   0.297   2.545  0.2909 -0.9202 -0.2420
 6649TIP3   OH241437   4.804   5.268  13.699 -0.0690  0.0697  0.0032
 6649TIP3    H141438   4.737   5.303  13.641  0.6024  1.2430 -0.1154
 6649TIP3    H241439   4.878   5.328  13.688  1.0998 -1.3318 -0.0651
 6650TIP3   OH241440   6.808   2.280  14.394  0.2394  0.2049  0.6013
 6650TIP3    H141441   6.783   2.232  14.315  1.0734 -1.7457  1.4555
 6650TIP3    H241442   6.867   2.348  14.362 -0.7105  0.5127 -0.6155
 6651TIP3   OH241443   5.234   6.638   1.304  0.7718 -0.1684 -0.8248
 6651TIP3    H141444   5.305   6.628   1.241  0.8915  1.4990 -1.0106
 6651TIP3    H241445   5.275   6.680   1.380  0.3446 -0.8608 -0.1981
 6652TIP3   OH241446   2.287   0.245   1.069  0.3392 -0.1684 -0.2124
 6652TIP3    H141447   2.290   0.161   1.024  0.0678 -0.3059  0.0211
 6652TIP3    H241448   2.213   0.291   1.029  0.2518 -0.1925 -0.0796
 6653TIP3   OH241449   1.042   5.787  15.692  0.7560 -0.2902  0.0509
 6653TIP3    H141450   0.975   5.749  15.635 -1.9304  1.0807  2.0633
 6653TIP3    H241451   1.082   5.856  15.640 -0.1279 -0.4667 -0.8883
 6654TIP3   OH241452   3.150   3.309  15.806 -0.0861  1.3252 -0.5111
 6654TIP3    H141453   3.118   3.366  15.735 -0.7408  0.8792 -0.5835
 6654TIP3    H241454   3.191   3.235  15.761 -0.1231  1.2500 -0.4200
 6655TIP3   OH241455   4.429   1.474   0.003  0.1680 -0.5720 -0.0291
 6655TIP3    H141456   4.431   1.559  -0.042  0.5104  0.3885  1.6684
 6655TIP3    H241457   4.481   1.416  -0.052 -0.0422  0.3271 -1.2241
 6656TIP3   OH241458   6.810   0.080   2.117  0.1829 -0.2779 -0.0165
 6656TIP3    H141459   6.903   0.060   2.108  0.2737 -0.8095  1.8365
 6656TIP3    H241460   6.804   0.175   2.102  0.8859 -0.3561 -0.8762
 6657TIP3   OH241461   1.730   2.894  10.935  0.1445  0.0556  0.2369
 6657TIP3    H141462   1.739   2.899  10.840  1.6614  1.1692  0.3984
 6657TIP3    H241463   1.783   2.818  10.960  0.8078  0.5136  0.2736
 6658TIP3   OH241464   0.383   3.472  16.769  0.1885  0.5342 -0.0623
 6658TIP3    H141465   0.463   3.507  16.807  1.0314 -0.7278 -0.6328
 6658TIP3    H241466   0.324   3.461  16.843  1.1510 -0.1468  0.6208
 6659TIP3   OH241467   2.719   3.456  14.812 -0.1401 -0.6426 -0.1341
 6659TIP3    H141468   2.814   3.461  14.821 -0.1126 -1.4875  0.1488
 6659TIP3    H241469   2.690   3.547  14.809  0.6169 -0.3763  0.4148
 6660TIP3   OH241470   2.075   2.032  13.949 -0.2787 -0.2788 -0.1903
 6660TIP3    H141471   1.980   2.023  13.942 -0.3347 -1.3368  1.3502
 6660TIP3    H241472   2.109   1.997  13.866 -1.2572  1.4038 -1.3396
 6661TIP3   OH241473   0.881   6.339  15.396  0.4444  0.1257  0.4464
 6661TIP3    H141474   0.849   6.297  15.475  0.9291 -1.2764 -0.0706
 6661TIP3    H241475   0.809   6.331  15.333  1.1919 -1.6823 -0.2435
 6662TIP3   OH241476   3.090   2.113  16.883 -0.3136  0.2030  0.8415
 6662TIP3    H141477   3.106   2.152  16.797  0.2622  0.4720  1.0667
 6662TIP3    H241478   2.999   2.136  16.903 -0.9699 -1.1795 -0.3681
 6663TIP3   OH241479   0.018   1.480   2.529 -0.2372  0.1457 -0.2066
 6663TIP3    H141480  -0.000   1.387   2.540  1.7343 -0.0253  3.1444
 6663TIP3    H241481  -0.068   1.521   2.519 -1.2594 -1.8529 -0.0384
 6664TIP3   OH241482   4.691   2.460   5.123  0.7579  0.6351 -0.1966
 6664TIP3    H141483   4.696   2.556   5.124  0.4857  0.6631 -0.8813
 6664TIP3    H241484   4.672   2.436   5.214 -0.4798  1.3212 -0.2465
 6665TIP3   OH241485   2.138   6.234  16.079 -0.0470  0.2461  0.2988
 6665TIP3    H141486   2.141   6.258  15.987  0.5515 -0.6436  0.0746
 6665TIP3    H241487   2.219   6.184  16.093 -0.5705 -0.4043  1.0810
 6666TIP3   OH241488   5.578   5.733  14.225 -0.6368  0.3593  0.5788
 6666TIP3    H141489   5.563   5.771  14.311 -3.7807 -0.9712  0.7275
 6666TIP3    H241490   5.647   5.668  14.240  0.9093  2.0881  1.4109
 6667TIP3   OH241491   2.273   4.400  12.201  0.0619  0.1677  0.1113
 6667TIP3    H141492   2.280   4.309  12.230 -0.1409  0.1399  0.0780
 6667TIP3    H241493   2.217   4.396  12.123 -1.8305  0.5628  1.3973
 6668TIP3   OH241494   3.866   4.661  16.866  0.0133  0.3457 -0.1897
 6668TIP3    H141495   3.812   4.588  16.835  0.6533 -1.0946  1.8623
 6668TIP3    H241496   3.862   4.725  16.795  0.6308 -2.2660 -2.8173
 6669TIP3   OH241497   1.301   0.611   5.612 -0.6331  0.2447 -0.3442
 6669TIP3    H141498   1.374   0.555   5.586  0.7143  1.5056  0.5582
 6669TIP3    H241499   1.223   0.561   5.588  0.5025 -1.1517 -1.3430
 6670TIP3   OH241500   2.573   0.277  10.163 -0.3715  0.3521  0.4493
 6670TIP3    H141501   2.592   0.195  10.119 -0.5392  0.8082 -0.4981
 6670TIP3    H241502   2.611   0.267  10.250  0.0404 -0.5337  0.1755
 6671TIP3   OH241503   4.595   5.632   5.786 -0.3203 -0.0643 -0.2995
 6671TIP3    H141504   4.555   5.588   5.710 -0.8240  0.4725 -0.3499
 6671TIP3    H241505   4.609   5.561   5.849 -0.2580 -0.4523 -0.7423
 6672TIP3   OH241506   5.512   4.338  15.590 -0.5772 -0.1811  0.2490
 6672TIP3    H141507   5.439   4.391  15.623 -0.1192 -1.0352  2.9377
 6672TIP3    H241508   5.540   4.287  15.666  2.5725 -0.1981 -0.7752
 6673TIP3   OH241509   6.219   2.264  13.837  0.4556  0.3960 -0.3203
 6673TIP3    H141510   6.245   2.257  13.745 -1.2786 -1.0164 -0.7559
 6673TIP3    H241511   6.252   2.349  13.865  1.3028  0.7163 -2.1415
 6674TIP3   OH241512   4.676   5.487   2.467 -0.2918  0.5353 -0.1767
 6674TIP3    H141513   4.655   5.530   2.549 -0.4837  0.1676 -0.0315
 6674TIP3    H241514   4.733   5.414   2.491 -2.5088 -1.2535 -0.0168
 6675TIP3   OH241515   5.168   5.412   3.463  0.4528 -0.1160 -0.0431
 6675TIP3    H141516   5.233   5.345   3.443  0.4620 -0.4970  1.1863
 6675TIP3    H241517   5.215   5.495   3.455  1.2325 -0.4018  1.2261
 6676TIP3   OH241518   2.296   4.645  13.471 -0.5645 -0.3341 -0.4877
 6676TIP3    H141519   2.350   4.712  13.429  0.0458  0.1587  0.9989
 6676TIP3    H241520   2.330   4.562  13.437  3.1091 -0.2503  2.3096
 6677TIP3   OH241521   0.236   1.649  14.305 -0.1363  0.2308  0.4922
 6677TIP3    H141522   0.261   1.606  14.386 -1.1644  1.6117  1.5778
 6677TIP3    H241523   0.188   1.727  14.332 -0.0369  1.0249 -1.4311
 6678TIP3   OH241524   0.226   0.166   0.348 -0.0253  0.3859  0.1200
 6678TIP3    H141525   0.160   0.205   0.292  0.6252  1.7230  0.2227
 6678TIP3    H241526   0.177   0.114   0.411 -0.9776  1.2677  0.1348
 6679TIP3   OH241527   1.228   4.617  13.057 -0.1976  0.0564 -0.5235
 6679TIP3    H141528   1.176   4.582  12.985  0.1792  0.4159 -0.9730
 6679TIP3    H241529   1.185   4.699  13.079  0.1477  0.3261 -0.8578
 6680TIP3   OH241530   3.000   3.778  10.635  0.8304  0.4579  0.1313
 6680TIP3    H141531   2.926   3.749  10.688  0.8351 -0.9500 -0.5665
 6680TIP3    H241532   3.038   3.851  10.683  0.3801 -0.2848  1.6587
 6681TIP3   OH241533   0.027   2.813   1.204 -0.2589  0.1001 -0.5006
 6681TIP3    H141534   0.008   2.896   1.161  1.6431  0.5025 -0.6381
 6681TIP3    H241535   0.073   2.762   1.138 -1.9764 -1.3608 -0.6436
 6682TIP3   OH241536   2.684   4.297  12.111 -0.5057  0.3259  0.1203
 6682TIP3    H141537   2.676   4.251  12.028 -3.0277  0.0005  0.4553
 6682TIP3    H241538   2.733   4.238  12.167  0.4324  0.1520 -0.8541
 6683TIP3   OH241539   4.541   2.785   1.058  0.4118  0.2221 -0.4063
 6683TIP3    H141540   4.524   2.758   1.148 -3.0021 -0.4404 -1.1062
 6683TIP3    H241541   4.545   2.703   1.009 -3.2263  0.5592 -1.5440
 6684TIP3   OH241542   4.319   0.516  11.639  0.4131  0.1141  0.2111
 6684TIP3    H141543   4.359   0.431  11.656  1.1842  0.7851  1.8930
 6684TIP3    H241544   4.233   0.495  11.601 -0.5782 -1.5144  3.0346
 6685TIP3   OH241545   3.172   0.806  12.588 -0.0484  0.1063 -0.9063
 6685TIP3    H141546   3.118   0.835  12.662  0.0507 -1.9717  0.0462
 6685TIP3    H241547   3.112   0.803  12.514 -0.5620  0.5502 -0.5185
 6686TIP3   OH241548   5.172   3.746   4.818  0.4053 -0.3205 -0.6210
 6686TIP3    H141549   5.233   3.798   4.871  0.1986 -0.6386 -0.0591
 6686TIP3    H241550   5.096   3.733   4.875 -0.5625  0.7810 -1.6049
 6687TIP3   OH241551   3.891   4.801   4.964  0.0470 -0.9528 -0.1202
 6687TIP3    H141552   3.975   4.806   5.010 -0.8580 -0.6549  1.5862
 6687TIP3    H241553   3.913   4.817   4.872  1.7030  0.4138  0.4650
 6688TIP3   OH241554   5.801   6.496   4.613  0.3672  0.1385  0.2524
 6688TIP3    H141555   5.784   6.401   4.611  2.4632 -0.3540  2.4108
 6688TIP3    H241556   5.718   6.534   4.642 -0.2517 -1.1076  0.1889
 6689TIP3   OH241557   4.728   0.672   2.377  0.3986 -0.3481 -0.1067
 6689TIP3    H141558   4.660   0.648   2.315  1.7649 -1.6239 -1.1866
 6689TIP3    H241559   4.722   0.767   2.385 -2.3815 -0.5387  0.9201
 6690TIP3   OH241560   2.943   1.002  12.432 -0.1451 -0.5591  0.0468
 6690TIP3    H141561   2.918   0.910  12.438  1.5538 -1.1906 -1.6171
 6690TIP3    H241562   2.995   1.017  12.511 -1.5784 -0.5997  1.0289
 6691TIP3   OH241563   2.475   1.622  12.071  0.2734 -0.1071 -0.0083
 6691TIP3    H141564   2.463   1.644  11.978  2.3929  0.1316 -0.2948
 6691TIP3    H241565   2.415   1.549  12.087 -1.5967  1.1359 -0.9996
 6692TIP3   OH241566   3.195   5.930  15.665  0.2518 -0.0558  0.1154
 6692TIP3    H141567   3.252   5.998  15.701  0.9203 -1.2175  1.3350
 6692TIP3    H241568   3.117   5.978  15.634 -0.0509  1.1135  2.4561
 6693TIP3   OH241569   1.490   1.290  14.978  0.3000 -0.0941  0.0769
 6693TIP3    H141570   1.529   1.208  15.008  1.1372  0.3864  0.3466
 6693TIP3    H241571   1.487   1.282  14.883  1.2236 -0.0776  0.0390
 6694TIP3   OH241572   1.960   2.027  14.789 -0.4610 -0.5555 -0.1429
 6694TIP3    H141573   1.871   2.035  14.823 -0.1118 -0.2839  0.7261
 6694TIP3    H241574   2.012   1.997  14.863  0.3895  0.4035 -0.3265
 6695TIP3   OH241575   4.798   4.400  13.613  0.1717 -0.2733  0.1283
 6695TIP3    H141576   4.752   4.428  13.693 -1.1509  0.2668 -0.7806
 6695TIP3    H241577   4.846   4.478  13.584 -1.5975  0.4348 -1.0918
 6696TIP3   OH241578   2.064   0.617  11.053  0.1279 -0.3410  0.2675
 6696TIP3    H141579   2.024   0.553  11.111 -0.9665  0.1675  0.1027
 6696TIP3    H241580   2.107   0.565  10.985  1.6097 -0.9547  1.6058
 6697TIP3   OH241581   0.327   6.232  14.662 -0.3501  0.1699  0.1115
 6697TIP3    H141582   0.344   6.225  14.568 -0.4148  2.3575 -0.1148
 6697TIP3    H241583   0.235   6.207  14.672 -0.7005  1.1125 -0.6066
 6698TIP3   OH241584   2.647   3.532   0.648  0.2494 -0.3707  0.1379
 6698TIP3    H141585   2.716   3.551   0.584 -0.2566  0.6370 -0.1337
 6698TIP3    H241586   2.631   3.617   0.691 -0.2626 -0.7704  0.7538
 6699TIP3   OH241587   1.898   6.782  14.444 -0.1661  0.0611  0.3056
 6699TIP3    H141588   1.986   6.746  14.430 -0.1794  0.6740 -1.6493
 6699TIP3    H241589   1.896   6.861  14.391 -2.9801 -1.7174 -2.6156
 6700TIP3   OH241590   2.690   4.424  16.779  0.0516 -0.1306  0.2744
 6700TIP3    H141591   2.774   4.412  16.734 -0.5593 -2.2203 -0.3820
 6700TIP3    H241592   2.657   4.508  16.746  0.8173 -0.3818 -1.2055
 6701TIP3   OH241593   1.837   4.264   4.055  0.1151  0.0780 -1.0703
 6701TIP3    H141594   1.921   4.309   4.066  0.1421 -0.1025 -0.4763
 6701TIP3    H241595   1.777   4.333   4.027 -0.5595  1.2677  2.6889
 6702TIP3   OH241596   0.791   0.612   0.994 -0.0766  0.3116 -0.0349
 6702TIP3    H141597   0.723   0.679   1.000 -0.7814 -0.3920  0.0429
 6702TIP3    H241598   0.819   0.599   1.085  0.2947  0.7369 -0.0893
 6703TIP3   OH241599   0.751   2.275   3.770 -0.1655  0.4345  0.2076
 6703TIP3    H141600   0.726   2.318   3.688  1.8057  0.3475 -0.4956
 6703TIP3    H241601   0.731   2.183   3.756  0.7141  0.3266 -0.4388
 6704TIP3   OH241602   6.320   0.655  17.036 -0.1353  0.0849 -0.0165
 6704TIP3    H141603   6.347   0.612  16.955  2.5854  0.5493  0.5401
 6704TIP3    H241604   6.248   0.602  17.068 -0.1426 -1.1266 -1.8594
 6705TIP3   OH241605   3.080   6.626   5.143  0.3209  0.2539  0.2434
 6705TIP3    H141606   3.068   6.628   5.048 -1.6406  1.5269  0.4492
 6705TIP3    H241607   3.076   6.533   5.166  0.1385 -0.0213 -0.8641
 6706TIP3   OH241608   5.071   2.093   4.189 -0.2595 -0.2026  0.0117
 6706TIP3    H141609   5.036   2.061   4.271  0.6679  1.4962  1.1452
 6706TIP3    H241610   5.163   2.115   4.208  0.2869 -0.7497 -1.7587
 6707TIP3   OH241611   3.842   2.123   3.704  0.0589  0.0146  0.2520
 6707TIP3    H141612   3.831   2.158   3.792  2.5911 -0.4874  0.8330
 6707TIP3    H241613   3.870   2.198   3.651 -0.8435  0.1806 -0.0081
 6708TIP3   OH241614   0.706   3.708  10.475  0.1328  0.5379  0.5982
 6708TIP3    H141615   0.654   3.767  10.420  1.2126  2.4525  1.5269
 6708TIP3    H241616   0.788   3.754  10.489  2.1932 -2.3957 -0.8343
 6709TIP3   OH241617   4.950   2.243   6.253 -0.0658  0.0057  0.0057
 6709TIP3    H141618   4.903   2.167   6.217  1.3883 -0.9031 -0.0769
 6709TIP3    H241619   4.998   2.278   6.179 -0.5511  0.8919  0.0997
 6710TIP3   OH241620   3.866   6.011   2.722 -0.4236 -0.5665  0.1683
 6710TIP3    H141621   3.944   5.977   2.678 -0.5376 -1.3706  0.5606
 6710TIP3    H241622   3.899   6.055   2.800 -0.2669  0.3070 -0.3871
 6711TIP3   OH241623   1.268   6.598   1.528  0.5449 -0.0792  0.1240
 6711TIP3    H141624   1.206   6.617   1.599  2.0467  0.1098  1.4361
 6711TIP3    H241625   1.237   6.651   1.454 -0.1111  1.0153  1.1497
 6712TIP3   OH241626   5.900   4.745  11.033  0.0868 -0.2726 -0.3495
 6712TIP3    H141627   5.853   4.685  11.091 -1.0266  0.5018 -0.4166
 6712TIP3    H241628   5.901   4.701  10.948 -0.2333 -0.4376 -0.2688
 6713TIP3   OH241629   2.463   1.066   2.164 -0.2246 -0.0090 -0.0315
 6713TIP3    H141630   2.433   1.055   2.254  1.8870  0.5567  0.7995
 6713TIP3    H241631   2.451   1.159   2.146 -0.3367 -0.0596 -0.2229
 6714TIP3   OH241632   1.052   2.539  12.862  0.3522  0.4347 -0.4500
 6714TIP3    H141633   0.962   2.546  12.830  0.3207  2.3877 -0.0325
 6714TIP3    H241634   1.043   2.535  12.957  0.6830 -0.1254 -0.4385
 6715TIP3   OH241635   2.001   5.781  14.573  0.4024  0.1115  0.2380
 6715TIP3    H141636   2.085   5.826  14.579  0.5737 -0.3212  1.2567
 6715TIP3    H241637   1.954   5.827  14.503  2.0943 -0.6745 -1.5403
 6716TIP3   OH241638   3.574   3.507   1.909 -0.6426  0.3669  0.0498
 6716TIP3    H141639   3.578   3.581   1.848  1.6661  1.0854  0.9642
 6716TIP3    H241640   3.525   3.541   1.985 -2.3725 -0.1196 -0.7912
 6717TIP3   OH241641   1.106   3.320   2.597  0.0771  0.3727  0.4394
 6717TIP3    H141642   1.164   3.395   2.611  0.3238  0.1755  0.4758
 6717TIP3    H241643   1.164   3.248   2.575 -0.2741  0.6164 -1.4793
 6718TIP3   OH241644   0.719   2.397   3.532 -0.0470  0.1203  0.3144
 6718TIP3    H141645   0.654   2.466   3.544 -0.3389 -0.3074  1.2380
 6718TIP3    H241646   0.803   2.444   3.532 -0.3260  0.6425 -0.6266
 6719TIP3   OH241647   5.179   2.934   3.965 -0.5524  0.4151 -0.2057
 6719TIP3    H141648   5.235   2.864   3.930 -0.4904  0.8282 -0.9450
 6719TIP3    H241649   5.193   2.930   4.060 -0.5813 -0.5995 -0.2327
 6720TIP3   OH241650   1.008   6.720  11.533 -0.5994 -0.0295  0.0624
 6720TIP3    H141651   0.947   6.794  11.546 -1.6956 -0.8761 -0.1200
 6720TIP3    H241652   0.983   6.683  11.448 -0.1334 -0.6805  0.2025
 6721TIP3   OH241653   5.502   4.396  12.687 -0.4744 -0.0912 -0.0089
 6721TIP3    H141654   5.596   4.374  12.686 -0.1528  1.1854 -0.6866
 6721TIP3    H241655   5.459   4.316  12.716  0.9687 -0.1310  2.2844
 6722TIP3   OH241656   5.864   3.437   4.518  0.5433  0.2276 -0.5198
 6722TIP3    H141657   5.894   3.346   4.522 -1.4200 -0.4739 -0.8985
 6722TIP3    H241658   5.906   3.473   4.440 -0.5822 -1.1181 -1.8007
 6723TIP3   OH241659   5.499   6.842  15.322  0.0580  0.5651 -0.5841
 6723TIP3    H141660   5.495   6.937  15.335 -1.0635  0.2137  2.5649
 6723TIP3    H241661   5.411   6.818  15.292 -0.3100  0.3580  0.5948
 6724TIP3   OH241662   1.748   6.012  12.829 -0.3313 -0.0734 -0.1383
 6724TIP3    H141663   1.736   6.006  12.734  1.6017  0.6567 -0.4697
 6724TIP3    H241664   1.662   6.040  12.862 -1.1073 -0.5796 -1.6309
 6725TIP3   OH241665   2.484   4.449  15.236  0.4126 -0.7396  0.0285
 6725TIP3    H141666   2.408   4.495  15.200 -0.4163 -0.4748  2.0073
 6725TIP3    H241667   2.493   4.371  15.180  1.4893  1.3827 -3.0372
 6726TIP3   OH241668   3.156   5.959   3.804 -0.5167 -0.5453  0.3057
 6726TIP3    H141669   3.133   6.009   3.726  0.9313 -0.8616 -0.3717
 6726TIP3    H241670   3.158   6.023   3.875 -1.2003 -0.1293 -0.0447
 6727TIP3   OH241671   2.036   3.769  14.393  0.1379  0.0269  0.2640
 6727TIP3    H141672   2.014   3.723  14.313 -0.8077 -0.7227  0.9357
 6727TIP3    H241673   2.065   3.856  14.364 -1.6619  0.3049 -0.8038
 6728TIP3   OH241674   6.234   4.953  13.317 -0.0462  0.2292  0.1375
 6728TIP3    H141675   6.144   4.983  13.330 -0.7246 -1.4358 -0.4187
 6728TIP3    H241676   6.226   4.857  13.312  1.9261 -0.0542  1.3765
 6729TIP3   OH241677   3.381   5.907  15.037  0.9277 -0.0903  0.2719
 6729TIP3    H141678   3.314   5.861  15.087  2.2747 -0.5869  1.7349
 6729TIP3    H241679   3.374   5.873  14.948 -0.4550 -0.4312  0.4976
 6730TIP3   OH241680   0.060   1.521   3.668  0.0924  0.2639 -0.0875
 6730TIP3    H141681   0.087   1.511   3.577  0.5014  0.3794  0.0212
 6730TIP3    H241682   0.141   1.540   3.716  0.0389 -0.7833  0.4513
 6731TIP3   OH241683   0.045   1.133  10.695 -0.2339  0.1452  0.4938
 6731TIP3    H141684   0.032   1.225  10.672 -0.8612 -0.0308  0.1303
 6731TIP3    H241685   0.132   1.131  10.736  0.6112  0.6008 -1.1679
 6732TIP3   OH241686   6.341   1.325   5.165  0.4008  0.4181 -0.1313
 6732TIP3    H141687   6.297   1.258   5.217  0.7201  0.9670  0.8704
 6732TIP3    H241688   6.299   1.407   5.190 -0.6395  0.5228 -2.0443
 6733TIP3   OH241689   5.701   3.741  12.453 -0.3915 -0.5984  0.4710
 6733TIP3    H141690   5.609   3.749  12.476 -0.2133 -0.0994  1.0332
 6733TIP3    H241691   5.733   3.669  12.507 -0.5476 -1.0511 -0.0352
 6734TIP3   OH241692   1.466   4.925   0.657 -0.7807 -0.2184 -0.1796
 6734TIP3    H141693   1.434   4.854   0.601 -1.3771 -0.5239  0.5339
 6734TIP3    H241694   1.557   4.937   0.631 -0.3529 -1.9564  0.3836
 6735TIP3   OH241695   2.906   5.488   0.950 -0.3972 -0.2212  0.4579
 6735TIP3    H141696   2.897   5.444   0.866 -1.4372 -1.1357  1.0313
 6735TIP3    H241697   2.869   5.427   1.014  0.1969  0.5358  1.5596
 6736TIP3   OH241698   4.740   4.533   0.431  0.2362  0.1440  0.3738
 6736TIP3    H141699   4.770   4.444   0.445 -0.3173 -0.0422  0.3853
 6736TIP3    H241700   4.661   4.541   0.484 -1.3431 -0.2527 -1.7695
 6737TIP3   OH241701   3.156   2.472   3.335 -0.2815 -0.6368 -1.2926
 6737TIP3    H141702   3.210   2.529   3.390 -1.2767  0.5085 -1.4622
 6737TIP3    H241703   3.085   2.442   3.393 -1.4401  0.7250 -1.9385
 6738TIP3   OH241704   0.823   2.236  12.373 -0.2482 -0.1000  0.3139
 6738TIP3    H141705   0.914   2.208  12.364 -0.0225  0.8558 -0.5325
 6738TIP3    H241706   0.788   2.235  12.284 -0.9873 -0.1849  0.5936
 6739TIP3   OH241707   3.222   0.345   0.331 -0.1860 -0.0144 -0.1724
 6739TIP3    H141708   3.179   0.404   0.393  1.8035 -1.6537  3.0617
 6739TIP3    H241709   3.306   0.386   0.313 -0.2666 -0.1337 -0.8291
 6740TIP3   OH241710   2.475   6.291   4.416  0.2146 -0.0793 -0.1607
 6740TIP3    H141711   2.519   6.318   4.497  0.9859 -1.5900 -0.0526
 6740TIP3    H241712   2.511   6.205   4.395 -0.6902 -0.1593 -1.5904
 6741TIP3   OH241713   5.737   4.010   0.977  0.1853 -0.2802 -0.1131
 6741TIP3    H141714   5.683   3.981   1.050  0.2165  0.7833  0.3530
 6741TIP3    H241715   5.821   3.967   0.991  0.4853  0.6362  1.0113
 6742TIP3   OH241716   2.570   0.442   3.601 -0.9746  0.2906 -0.1211
 6742TIP3    H141717   2.530   0.520   3.638  0.8767  0.8317  0.8685
 6742TIP3    H241718   2.613   0.472   3.521 -0.1498  0.3392  0.3280
 6743TIP3   OH241719   3.272   0.760  13.092 -0.4153 -0.5598  0.1922
 6743TIP3    H141720   3.325   0.808  13.155 -0.5337  0.1075 -0.2167
 6743TIP3    H241721   3.236   0.687  13.143 -0.1158 -0.3117  0.7740
 6744TIP3   OH241722   4.151   5.710   2.723 -0.8236  0.0202  0.3120
 6744TIP3    H141723   4.149   5.742   2.813 -2.0418 -0.1793  0.3671
 6744TIP3    H241724   4.062   5.681   2.706 -0.8731  1.0728 -1.3471
 6745TIP3   OH241725   4.014   1.027   2.439  0.5770 -0.2844 -0.2323
 6745TIP3    H141726   4.083   0.974   2.398  1.0132 -1.1946  1.6072
 6745TIP3    H241727   4.055   1.063   2.517 -1.0280 -0.8958  0.9372
 6746TIP3   OH241728   6.190   5.473   1.411  0.7324 -0.0623 -0.5346
 6746TIP3    H141729   6.185   5.395   1.466  1.2401 -0.4528 -1.0390
 6746TIP3    H241730   6.282   5.500   1.416  0.8700 -0.3167 -1.4755
 6747TIP3   OH241731   2.641   0.920  13.536 -0.4107  0.5853  0.0807
 6747TIP3    H141732   2.625   0.896  13.444 -0.3834 -4.6901  1.1086
 6747TIP3    H241733   2.730   0.956  13.536  0.5204 -1.4234 -1.8414
 6748TIP3   OH241734   4.242   4.222  15.643  0.3514  0.5494  0.1289
 6748TIP3    H141735   4.287   4.138  15.634  0.9270  0.8794 -0.1387
 6748TIP3    H241736   4.312   4.288  15.638 -0.1277  1.0606 -0.0279
 6749TIP3   OH241737   0.487   4.527  14.578  0.3403  0.1626  0.2536
 6749TIP3    H141738   0.492   4.535  14.482 -0.3193 -1.2614  0.0732
 6749TIP3    H241739   0.500   4.616  14.610  2.2254  0.4394 -1.0773
 6750TIP3   OH241740   3.156   5.283   0.751  0.0679  0.7126 -0.5052
 6750TIP3    H141741   3.082   5.230   0.721  1.0257 -0.5399 -0.7286
 6750TIP3    H241742   3.228   5.257   0.695  1.3436 -0.0210  1.3898
 6751TIP3   OH241743   1.082   3.437   1.150 -0.2361  0.5510  0.6125
 6751TIP3    H141744   0.999   3.399   1.120  0.9958 -1.2650 -0.6895
 6751TIP3    H241745   1.082   3.526   1.114 -1.4699  0.4679  0.3676
 6752TIP3   OH241746   2.793   6.702   4.976  0.4441  0.4120 -0.9071
 6752TIP3    H141747   2.845   6.725   4.900  1.3454 -1.0355 -0.7678
 6752TIP3    H241748   2.844   6.734   5.051 -0.2480  1.4794 -0.8692
 6753TIP3   OH241749   5.040   2.579  13.110 -0.5492  0.0111 -0.7011
 6753TIP3    H141750   4.998   2.656  13.073 -1.8337 -0.3810 -0.1059
 6753TIP3    H241751   5.075   2.608  13.194  0.2633  0.2948 -1.1233
 6754TIP3   OH241752   0.409   2.857   2.949 -0.2261  0.3681 -0.0855
 6754TIP3    H141753   0.365   2.913   3.012 -0.6376  0.1476 -0.1765
 6754TIP3    H241754   0.479   2.814   2.999 -1.7618 -1.3229  0.7342
 6755TIP3   OH241755   3.901   6.716   5.723 -0.7282  0.0717 -0.3138
 6755TIP3    H141756   3.996   6.730   5.723 -0.5797 -0.8170 -1.2708
 6755TIP3    H241757   3.865   6.799   5.691 -0.4486  1.1776  2.0306
 6756TIP3   OH241758   2.546   2.297  13.337 -0.2781 -0.4230  0.1000
 6756TIP3    H141759   2.485   2.363  13.303  0.0639 -0.2194 -0.1250
 6756TIP3    H241760   2.540   2.224  13.275 -1.4593 -1.0656  0.9299
 6757TIP3   OH241761   3.348   5.357  12.286  0.3769 -0.2070  0.3380
 6757TIP3    H141762   3.297   5.430  12.251 -0.3351  0.4459  2.5446
 6757TIP3    H241763   3.365   5.381  12.377  0.1684 -2.7546  1.1362
 6758TIP3   OH241764   1.971   0.049   5.130 -0.2623  0.5173 -0.0170
 6758TIP3    H141765   1.963   0.087   5.042 -0.2069  0.3598 -0.0908
 6758TIP3    H241766   2.045   0.096   5.169 -1.9614  2.5517  0.9637
 6759TIP3   OH241767   6.078   4.648  12.650  0.0938  0.4185  0.0198
 6759TIP3    H141768   6.029   4.711  12.597 -0.3288  0.8226  0.8730
 6759TIP3    H241769   6.154   4.698  12.681  0.3007  0.2048 -0.1391
 6760TIP3   OH241770   2.221   0.890   3.525  0.4108 -0.3332 -0.4234
 6760TIP3    H141771   2.286   0.919   3.461 -1.1402  1.2343 -1.3873
 6760TIP3    H241772   2.149   0.953   3.516  0.1383  0.0299  2.9313
 6761TIP3   OH241773   0.964   4.729  12.438 -0.4437  0.1637  0.0073
 6761TIP3    H141774   1.040   4.715  12.496 -0.3180  0.4961 -0.0770
 6761TIP3    H241775   0.923   4.642  12.431 -1.0262  0.3158  1.3675
 6762TIP3   OH241776   3.138   3.544  11.549  0.4558  0.1222  0.5433
 6762TIP3    H141777   3.133   3.462  11.598 -0.7172  0.5952  1.2321
 6762TIP3    H241778   3.122   3.612  11.614  0.1860  0.8328 -0.2542
 6763TIP3   OH241779   6.034   3.975   1.222  0.0267 -1.0973  0.6832
 6763TIP3    H141780   6.052   4.057   1.269  1.1301 -0.8523 -0.1354
 6763TIP3    H241781   6.015   3.912   1.291 -1.7743  0.0372  1.3040
 6764TIP3   OH241782   2.047   5.277  13.566  0.2043  0.2377  0.1224
 6764TIP3    H141783   1.967   5.225  13.570 -0.1308  0.3795 -2.5163
 6764TIP3    H241784   2.101   5.232  13.501  1.3161  1.3611  0.2381
 6765TIP3   OH241785   5.522   4.141   4.270 -0.3411  0.3753  0.4305
 6765TIP3    H141786   5.559   4.105   4.350 -1.7190  1.3088  1.5419
 6765TIP3    H241787   5.593   4.137   4.206  1.3316  1.1535  2.1584
 6766TIP3   OH241788   5.562   6.592   4.233 -0.3030  0.3270 -0.1465
 6766TIP3    H141789   5.646   6.634   4.218 -0.9664  1.0620 -1.9848
 6766TIP3    H241790   5.521   6.645   4.302  0.5657  0.1636  0.5189
 6767TIP3   OH241791   5.834   1.904  13.343  0.7051 -0.3261 -0.0361
 6767TIP3    H141792   5.816   1.998  13.352  1.6197 -0.2594  1.3579
 6767TIP3    H241793   5.836   1.890  13.249  3.5175  1.6768 -0.4005
 6768TIP3   OH241794   0.844   2.854   3.412  0.0822 -0.4669 -0.5386
 6768TIP3    H141795   0.921   2.879   3.361  0.9023 -1.9077 -0.0664
 6768TIP3    H241796   0.826   2.764   3.385 -0.8376 -0.4843  0.0984
 6769TIP3   OH241797   2.802   2.678   4.929 -0.0466  0.0389 -0.0867
 6769TIP3    H141798   2.719   2.638   4.957 -0.6658  1.8998  0.9576
 6769TIP3    H241799   2.797   2.679   4.834 -1.4017  0.4008 -0.0393
 6770TIP3   OH241800   4.714   5.427   1.651  0.3129  0.0568 -0.4066
 6770TIP3    H141801   4.674   5.511   1.675  0.9133  0.1969  0.1283
 6770TIP3    H241802   4.802   5.431   1.688  0.8818 -0.1935 -1.6806
 6771TIP3   OH241803   6.114   2.236  15.155  0.5591  0.0835 -0.0108
 6771TIP3    H141804   6.041   2.178  15.137 -0.8365  0.7958  2.8260
 6771TIP3    H241805   6.148   2.207  15.240  1.3634  1.8508  0.3183
 6772TIP3   OH241806   4.473   4.696  13.079  0.3507 -0.0285  0.2394
 6772TIP3    H141807   4.525   4.681  13.157  0.3244  0.6412  0.3926
 6772TIP3    H241808   4.511   4.637  13.013 -0.6678 -1.8208  1.1791
 6773TIP3   OH241809   1.974   0.933   1.541 -0.3857  0.2333  0.7770
 6773TIP3    H141810   2.057   0.980   1.530 -1.0447  1.2945  0.0419
 6773TIP3    H241811   1.938   0.967   1.623 -1.4793  2.1221 -0.3870
 6774TIP3   OH241812   1.063   6.330  13.912 -0.2520 -0.5088 -0.9580
 6774TIP3    H141813   1.061   6.418  13.874 -0.9270  0.5978  1.4823
 6774TIP3    H241814   1.155   6.316  13.935 -0.0709 -0.6484 -1.7276
 6775TIP3   OH241815   5.244   4.788   4.175  0.0373  0.3913 -0.2966
 6775TIP3    H141816   5.168   4.796   4.117  0.6183  2.1729 -0.8674
 6775TIP3    H241817   5.237   4.699   4.210 -2.6366  0.6781  0.1431
 6776TIP3   OH241818   4.930   4.354   5.795 -0.3275 -1.0420  0.0379
 6776TIP3    H141819   4.999   4.396   5.744 -0.6030 -1.4054 -0.6406
 6776TIP3    H241820   4.975   4.320   5.872 -0.1751  0.9830  0.9242
 6777TIP3   OH241821   1.334   2.265  13.403  0.7258  0.0036  0.5135
 6777TIP3    H141822   1.281   2.342  13.380 -0.5635 -0.9721  0.1381
 6777TIP3    H241823   1.424   2.298  13.400  0.4722  0.8118 -2.6739
 6778TIP3   OH241824   5.496   2.558  11.161  0.2288 -0.2101 -0.1491
 6778TIP3    H141825   5.475   2.621  11.229  1.4365  0.1361 -0.0632
 6778TIP3    H241826   5.501   2.610  11.081 -0.0772 -0.4240 -0.3083
 6779TIP3   OH241827   4.857   3.905  12.955  0.0018 -0.2809  0.0583
 6779TIP3    H141828   4.946   3.939  12.963  0.3031 -1.1000  0.2121
 6779TIP3    H241829   4.801   3.983  12.965  0.7176  0.4371 -1.2451
 6780TIP3   OH241830   2.239   4.843  12.066 -0.5174 -0.2078  0.4790
 6780TIP3    H141831   2.151   4.810  12.050 -1.3049  2.0857 -0.3178
 6780TIP3    H241832   2.238   4.873  12.157 -0.8503  0.6116  0.2106
 6781TIP3   OH241833   1.001   6.494   0.500  0.4529  0.3759  0.5935
 6781TIP3    H141834   0.927   6.552   0.519 -0.4315 -0.9279  1.2541
 6781TIP3    H241835   0.962   6.407   0.495  1.7467 -0.1648 -0.4599
 6782TIP3   OH241836   5.011   2.039  14.395  0.1658  0.6708  0.0902
 6782TIP3    H141837   5.036   2.121  14.354 -0.4075  1.8426  1.9542
 6782TIP3    H241838   5.058   2.039  14.478 -0.9018 -0.2186  0.7228
 6783TIP3   OH241839   6.713   5.183  10.725 -0.8759 -0.3153 -0.2641
 6783TIP3    H141840   6.703   5.183  10.630 -0.8749  0.0902 -0.2678
 6783TIP3    H241841   6.779   5.116  10.742 -0.7318 -0.2565 -0.5667
 6784TIP3   OH241842   4.797   3.733   1.823 -0.1557 -0.0750 -0.6109
 6784TIP3    H141843   4.816   3.802   1.886  0.0597 -0.6074 -0.0855
 6784TIP3    H241844   4.724   3.768   1.771 -0.2635  0.4126 -0.1475
 6785TIP3   OH241845   4.636   0.911  14.404 -0.6592  0.1790  0.4098
 6785TIP3    H141846   4.718   0.899  14.356  0.0459  0.5991  1.4715
 6785TIP3    H241847   4.582   0.836  14.378  0.0196 -0.0606 -0.3636
 6786TIP3   OH241848   0.699   1.741   0.356 -0.2884 -0.5332  0.0357
 6786TIP3    H141849   0.638   1.796   0.405  0.3750  0.4062 -0.1729
 6786TIP3    H241850   0.773   1.729   0.416  0.1766 -0.0376 -0.4331
 6787TIP3   OH241851   3.584   0.655  15.769 -0.0953  0.4087 -0.1468
 6787TIP3    H141852   3.503   0.606  15.760 -1.2155  2.1503 -0.0787
 6787TIP3    H241853   3.628   0.645  15.684 -1.0444  0.5440 -0.6717
 6788TIP3   OH241854   5.877   1.862  13.023 -0.2058 -0.1889  0.1168
 6788TIP3    H141855   5.808   1.927  13.026  1.6512  1.9602 -0.9494
 6788TIP3    H241856   5.834   1.783  12.989 -2.5097  0.4002  1.4265
 6789TIP3   OH241857   3.508   6.706  12.767 -0.5097  0.3629 -0.1712
 6789TIP3    H141858   3.524   6.694  12.861 -0.5239 -0.2625 -0.2402
 6789TIP3    H241859   3.499   6.800  12.756  0.0813  0.4868  0.3611
 6790TIP3   OH241860   1.232   2.232  13.082  0.0782  0.4764  0.0906
 6790TIP3    H141861   1.304   2.293  13.101  0.2870  0.2817 -0.0681
 6790TIP3    H241862   1.238   2.165  13.150  1.1413 -0.4982 -0.9127
 6791TIP3   OH241863   2.284   1.989  16.011 -0.1201  0.1430  0.6682
 6791TIP3    H141864   2.256   1.973  16.101 -0.3790  1.8290  0.9269
 6791TIP3    H241865   2.204   2.015  15.965  0.4468  2.0774  0.6823
 6792TIP3   OH241866   4.232   3.156  16.718  0.2505 -0.1607  0.4752
 6792TIP3    H141867   4.195   3.222  16.777  1.1768  0.2828  0.5766
 6792TIP3    H241868   4.319   3.189  16.697  0.3187 -0.8332 -0.3272
 6793TIP3   OH241869   1.709   3.401  12.280  0.0483  0.4466  0.5874
 6793TIP3    H141870   1.768   3.472  12.254 -0.4061  0.6144 -0.0057
 6793TIP3    H241871   1.655   3.439  12.350  1.8850 -0.2837  2.5333
 6794TIP3   OH241872   1.629   2.338   5.397 -0.4122 -0.3593  0.3108
 6794TIP3    H141873   1.677   2.380   5.325 -2.0132 -0.3465 -0.8107
 6794TIP3    H241874   1.600   2.254   5.361 -0.5724 -0.7047  1.2190
 6795TIP3   OH241875   3.766   1.918  14.516  0.3075 -0.2280  0.1474
 6795TIP3    H141876   3.714   1.838  14.504  0.2105  0.0281 -1.3582
 6795TIP3    H241877   3.745   1.947  14.604 -0.0169 -1.6122  0.5563
 6796TIP3   OH241878   5.968   1.230  15.892  0.3725  0.1067 -0.1130
 6796TIP3    H141879   5.986   1.155  15.950  1.0808 -0.6994 -1.3267
 6796TIP3    H241880   6.049   1.243  15.844 -0.8427 -0.7544 -2.5762
 6797TIP3   OH241881   0.219   5.786   1.382  0.2224 -0.6920  0.1578
 6797TIP3    H141882   0.200   5.801   1.474  0.1875 -0.8707  0.1790
 6797TIP3    H241883   0.135   5.800   1.338  0.4648  0.4830  0.0230
 6798TIP3   OH241884   4.746   2.642  16.242  0.0762 -0.4126 -0.0607
 6798TIP3    H141885   4.821   2.611  16.191  0.5165  2.9827 -1.7147
 6798TIP3    H241886   4.674   2.644  16.180 -0.5974 -0.6067  0.6922
 6799TIP3   OH241887   0.533   1.917   3.958  0.0506 -0.0551 -0.2837
 6799TIP3    H141888   0.591   1.992   3.973 -0.8165  0.3167  1.3393
 6799TIP3    H241889   0.563   1.881   3.874  1.9616  0.7335 -0.0049
 6800TIP3   OH241890   3.490   4.161  14.342 -0.2812  0.3724  0.2601
 6800TIP3    H141891   3.557   4.217  14.303 -0.7636 -0.1037 -1.2938
 6800TIP3    H241892   3.538   4.084  14.374  0.1936  1.0298  1.1741
 6801TIP3   OH241893   1.752   4.746   4.551 -0.1854  0.1142  0.0546
 6801TIP3    H141894   1.679   4.728   4.610 -1.8578  0.8110 -1.6804
 6801TIP3    H241895   1.776   4.837   4.568  0.3087 -0.1157  0.6268
 6802TIP3   OH241896   4.494   3.208   2.788  0.1252  0.3311 -0.6013
 6802TIP3    H141897   4.556   3.144   2.754 -0.0868 -1.7029  2.4199
 6802TIP3    H241898   4.411   3.187   2.745 -0.5705 -3.3458  2.0154
 6803TIP3   OH241899   2.552   1.899   2.262  0.5193 -0.4946 -0.5712
 6803TIP3    H141900   2.494   1.829   2.292 -0.8244  1.1996  1.0328
 6803TIP3    H241901   2.621   1.854   2.213 -0.9804 -2.7827 -0.7126
 6804TIP3   OH241902   0.750   6.511  13.027  0.6257 -0.8847 -0.1541
 6804TIP3    H141903   0.844   6.519  13.010  0.9547 -1.1495  1.3810
 6804TIP3    H241904   0.731   6.582  13.089 -0.3155 -0.4787 -0.8804
 6805TIP3   OH241905   2.851   4.343  15.088  0.1944 -0.1653 -0.3238
 6805TIP3    H141906   2.777   4.348  15.028  1.3996  2.6510 -1.7917
 6805TIP3    H241907   2.825   4.396  15.163 -0.4935 -1.9536  0.7607
 6806TIP3   OH241908   4.254   1.363  12.476  0.1055  1.1144  0.5399
 6806TIP3    H141909   4.251   1.358  12.380  0.9847  2.7095  0.3903
 6806TIP3    H241910   4.165   1.387  12.501 -0.2762  0.1197  0.1854
 6807TIP3   OH241911   6.412   3.833  14.949 -0.6858  0.5253 -0.0078
 6807TIP3    H141912   6.435   3.797  15.035 -0.8403  0.3834 -0.0247
 6807TIP3    H241913   6.370   3.916  14.967  0.7264  1.2724 -0.0145
 6808TIP3   OH241914   4.849   5.559  11.572 -0.4308 -0.4469 -0.0426
 6808TIP3    H141915   4.774   5.500  11.559 -2.5510  2.0937 -0.1923
 6808TIP3    H241916   4.879   5.580  11.484  0.2739 -1.2165  0.0085
 6809TIP3   OH241917   6.014   3.699  14.561  0.5184  0.0702  0.0948
 6809TIP3    H141918   5.936   3.718  14.613  0.0595 -1.3328 -0.0365
 6809TIP3    H241919   5.984   3.636  14.495  2.2214 -2.4931  1.5776
 6810TIP3   OH241920   0.887   0.905  15.040  0.3160 -0.2894  0.0639
 6810TIP3    H141921   0.957   0.859  14.994 -1.8529 -1.7639 -1.9975
 6810TIP3    H241922   0.896   0.996  15.013  1.8832 -0.2951  0.4867
 6811TIP3   OH241923   5.851   2.822   4.347 -0.6559 -0.8054  0.7093
 6811TIP3    H141924   5.856   2.824   4.251  1.5947  0.0619  0.7756
 6811TIP3    H241925   5.841   2.729   4.368 -2.7225 -0.8856 -0.3565
 6812TIP3   OH241926   4.527   3.056   5.951  0.3851 -0.4257  0.4469
 6812TIP3    H141927   4.528   3.021   6.040  1.3691 -0.1504  0.5512
 6812TIP3    H241928   4.496   3.146   5.961  1.5240 -0.0393  0.6624
 6813TIP3   OH241929   1.720   0.254   6.331  0.2021  0.2879 -0.3299
 6813TIP3    H141930   1.775   0.290   6.262  1.3374  2.7109  1.6938
 6813TIP3    H241931   1.760   0.284   6.413 -2.1405 -0.8453  1.3693
 6814TIP3   OH241932   5.497   1.014   1.227 -0.1339  0.4262 -0.2680
 6814TIP3    H141933   5.506   1.027   1.321  0.3962 -0.3257 -0.2067
 6814TIP3    H241934   5.573   1.058   1.189  0.1420 -0.0647 -0.2780
 6815TIP3   OH241935   6.014   2.244   5.112 -0.0392  0.0792 -0.1316
 6815TIP3    H141936   5.920   2.264   5.113 -0.1348 -0.3859 -0.0278
 6815TIP3    H241937   6.031   2.201   5.196  0.2299 -0.0170 -0.2339
 6816TIP3   OH241938   5.001   1.181  14.949 -0.1680 -0.1810  0.1079
 6816TIP3    H141939   4.920   1.215  14.910  0.1166  0.5499  0.1281
 6816TIP3    H241940   5.037   1.256  14.996  1.7374  0.2309 -1.8401
 6817TIP3   OH241941   4.549   4.382   1.418 -0.4576 -0.5486 -0.1489
 6817TIP3    H141942   4.518   4.433   1.493 -1.6331 -1.6885  0.1637
 6817TIP3    H241943   4.496   4.414   1.344  1.8240  1.7750 -0.9525
 6818TIP3   OH241944   0.895   4.801  13.871 -0.1432 -0.4587  0.4424
 6818TIP3    H141945   0.890   4.784  13.777 -0.1416  0.8605  0.1907
 6818TIP3    H241946   0.986   4.782  13.895  0.3772  1.0476 -0.2234
 6819TIP3   OH241947   1.043   4.890   2.292  0.1751  0.0912 -0.2998
 6819TIP3    H141948   1.138   4.880   2.300  0.0871  0.0293  0.7014
 6819TIP3    H241949   1.028   4.984   2.302  0.1925  0.1959 -1.1890
 6820TIP3   OH241950   5.112   0.425   3.521  0.7259  0.2703  0.0354
 6820TIP3    H141951   5.160   0.421   3.438  0.6260  0.5095 -0.0346
 6820TIP3    H241952   5.069   0.510   3.520  0.5525  0.1866  0.2396
 6821TIP3   OH241953   0.889   3.338  14.951  0.4474 -0.4360  1.0460
 6821TIP3    H141954   0.961   3.275  14.948  0.0101 -0.9292 -1.2352
 6821TIP3    H241955   0.924   3.417  14.910 -0.7695 -1.3498 -2.0931
 6822TIP3   OH241956   2.289   4.150   2.485 -0.3289  0.3543 -1.1468
 6822TIP3    H141957   2.201   4.178   2.460 -1.6765 -2.6186 -0.2037
 6822TIP3    H241958   2.296   4.061   2.450  0.4099 -1.2698  2.6905
 6823TIP3   OH241959   0.136   6.335   3.192 -0.8065  0.3023  0.0651
 6823TIP3    H141960   0.198   6.309   3.123 -0.2039  0.0500  0.6864
 6823TIP3    H241961   0.105   6.421   3.166 -0.9589 -0.0015 -0.7755
 6824TIP3   OH241962   2.334   2.681   1.544  0.1300  0.1690  0.4027
 6824TIP3    H141963   2.407   2.661   1.485  1.1815  0.7830  1.4691
 6824TIP3    H241964   2.311   2.772   1.524 -0.7658 -0.2036 -0.3462
 6825TIP3   OH241965   1.055   3.558  16.006  0.7356  0.4512 -0.3135
 6825TIP3    H141966   1.027   3.474  15.970 -0.4470  1.8963 -3.0933
 6825TIP3    H241967   0.974   3.606  16.020  1.4133  1.2829  0.8951
 6826TIP3   OH241968   0.440   3.329   1.125 -0.5265  0.9580 -0.1510
 6826TIP3    H141969   0.470   3.401   1.069 -0.3628  0.7742 -0.3057
 6826TIP3    H241970   0.515   3.269   1.127 -1.1748  0.0637 -1.2690
 6827TIP3   OH241971   2.097   5.877   0.854  0.6135 -0.1181 -0.2074
 6827TIP3    H141972   2.008   5.872   0.820  0.7009 -1.6709 -0.3034
 6827TIP3    H241973   2.152   5.843   0.783  1.1678 -0.0569  0.1850
 6828TIP3   OH241974   2.131   2.732   5.779  0.5483  0.5676  0.1879
 6828TIP3    H141975   2.097   2.805   5.727 -1.0554 -0.4301 -0.2311
 6828TIP3    H241976   2.054   2.698   5.825  1.5037 -0.0981  1.3404
 6829TIP3   OH241977   2.095   4.392   4.396 -0.0582 -0.1430  0.2212
 6829TIP3    H141978   2.166   4.365   4.455  1.2508  0.4235 -1.0372
 6829TIP3    H241979   2.026   4.423   4.454  1.5019  1.1642  1.4605
 6830TIP3   OH241980   0.608   6.536   2.556  0.3339  0.1147  0.0073
 6830TIP3    H141981   0.669   6.588   2.609  0.7334  0.6945 -1.0068
 6830TIP3    H241982   0.557   6.488   2.621  1.7139 -0.2232  0.8934
 6831TIP3   OH241983   2.634   4.415   1.218 -0.1922  0.1581 -0.2002
 6831TIP3    H141984   2.718   4.435   1.178 -0.5336  0.6584 -0.6719
 6831TIP3    H241985   2.653   4.406   1.312  0.4832 -0.3165 -0.3760
 6832TIP3   OH241986   1.534   5.571   4.699  0.3488 -0.3168 -0.3484
 6832TIP3    H141987   1.547   5.490   4.651  1.0380 -0.1290 -0.5009
 6832TIP3    H241988   1.592   5.634   4.656 -0.3724  0.3249 -0.3980
 6833TIP3   OH241989   0.927   4.330   4.651  0.2809  0.0536 -0.4857
 6833TIP3    H141990   0.855   4.301   4.594  0.0675 -0.0325 -0.1753
 6833TIP3    H241991   0.892   4.323   4.739  0.6126  0.1865 -0.3415
 6834TIP3   OH241992   4.394   3.398  15.200  0.4093 -0.0470 -0.1102
 6834TIP3    H141993   4.465   3.371  15.258  0.6979  0.6233 -0.1434
 6834TIP3    H241994   4.321   3.340  15.222  0.8810 -0.5513  0.1181
 6835TIP3   OH241995   4.008   1.818  16.819  0.2185 -0.4672 -0.0688
 6835TIP3    H141996   4.039   1.844  16.906 -0.0279 -1.1178  0.2208
 6835TIP3    H241997   3.913   1.831  16.823  0.3910  1.2297 -0.8500
 6836TIP3   OH241998   1.963   6.757  12.854  0.0170  0.5399 -0.2752
 6836TIP3    H141999   1.948   6.680  12.800  0.1531  0.8346 -0.7405
 6836TIP3    H242000   1.960   6.724  12.944 -0.2760  0.0560 -0.4546
 6837TIP3   OH242001   6.506   5.309   2.422 -0.4570 -0.2336 -0.3034
 6837TIP3    H142002   6.552   5.304   2.338 -1.4403 -0.6391 -0.8328
 6837TIP3    H242003   6.542   5.237   2.473 -0.5872 -0.6191 -0.7511
 6838TIP3   OH242004   0.084   5.810   3.546 -0.4668  0.3584 -0.3695
 6838TIP3    H142005   0.059   5.782   3.634 -0.5208  0.2741 -0.4116
 6838TIP3    H242006   0.112   5.901   3.557  2.1590 -0.4256  0.2503
 6839TIP3   OH242007   1.756   0.290  14.135 -0.3848 -0.5204  0.1120
 6839TIP3    H142008   1.698   0.282  14.059 -0.8598  0.9297  0.2803
 6839TIP3    H242009   1.697   0.308  14.208  0.2581  1.1852  0.2519
 6840TIP3   OH242010   5.657   3.104  11.405 -0.4215 -0.1333 -0.4635
 6840TIP3    H142011   5.682   3.180  11.352  2.0773 -0.0163  0.7357
 6840TIP3    H242012   5.649   3.138  11.494 -0.7935 -1.0026 -0.1517
 6841TIP3   OH242013   0.097   5.066  11.704  0.1943  0.2490 -0.0158
 6841TIP3    H142014   0.004   5.077  11.724  0.3589  0.7310  0.5168
 6841TIP3    H242015   0.124   5.152  11.670  0.5877  0.3045  0.4318
 6842TIP3   OH242016   1.326   3.576  15.723  0.0321 -0.3981  0.0911
 6842TIP3    H142017   1.344   3.625  15.643 -1.3159  0.5840  0.3407
 6842TIP3    H242018   1.240   3.537  15.709 -0.6914  0.6071  1.3839
 6843TIP3   OH242019   5.475   2.170  16.602 -0.5588 -0.3632  0.2126
 6843TIP3    H142020   5.464   2.126  16.517 -0.2304  0.2562 -0.1573
 6843TIP3    H242021   5.524   2.250  16.582 -0.9705  0.0762  0.9007
 6844TIP3   OH242022   3.828   5.026   2.254 -0.8292 -0.4970 -0.5787
 6844TIP3    H142023   3.790   5.112   2.267 -0.7584 -0.6216  0.5612
 6844TIP3    H242024   3.885   5.013   2.330 -0.8317 -1.5401 -0.7375
 6845TIP3   OH242025   3.450   1.764  15.205 -0.5191  0.3720 -0.3256
 6845TIP3    H142026   3.531   1.722  15.233 -0.6746  1.7534  2.4447
 6845TIP3    H242027   3.458   1.855  15.232 -2.0572  1.1315 -2.1346
 6846TIP3   OH242028   0.257   3.207  13.179 -0.2420  0.7500  0.5446
 6846TIP3    H142029   0.175   3.201  13.131 -0.8107 -0.5050  1.6219
 6846TIP3    H242030   0.245   3.281  13.238 -0.0480  1.4520 -0.2815
 6847TIP3   OH242031   6.426   3.906   5.230 -0.3224  0.0148 -0.3977
 6847TIP3    H142032   6.451   3.999   5.236 -0.5303  0.0796 -0.5202
 6847TIP3    H242033   6.362   3.903   5.159 -1.5257  0.0490  0.6383
 6848TIP3   OH242034   0.552   6.149   4.044  0.6410  1.0936  0.2993
 6848TIP3    H142035   0.603   6.133   4.123  1.9204 -0.0674 -0.7265
 6848TIP3    H242036   0.612   6.133   3.972 -1.2587 -0.8974 -0.9892
 6849TIP3   OH242037   2.384   4.960  13.024 -0.2746 -0.7211 -0.1545
 6849TIP3    H142038   2.294   4.954  12.992 -0.3567  2.3429 -0.7617
 6849TIP3    H242039   2.431   4.889  12.979 -2.0237 -1.3378 -1.0833
 6850TIP3   OH242040   6.477   2.686   4.314  0.7846  0.0745  0.2980
 6850TIP3    H142041   6.386   2.670   4.289  1.0613 -0.0637 -0.6597
 6850TIP3    H242042   6.493   2.777   4.289  1.2478 -0.2495 -0.5863
 6851TIP3   OH242043   4.527   0.881   5.641  0.0380  0.1057 -0.3363
 6851TIP3    H142044   4.517   0.972   5.613 -0.2756 -0.0754 -0.8348
 6851TIP3    H242045   4.581   0.885   5.720 -1.7225  0.8850  0.8740
 6852TIP3   OH242046   2.515   6.590  15.349  0.3605 -0.4439 -0.2058
 6852TIP3    H142047   2.604   6.556  15.356  0.1028 -1.3117 -0.9071
 6852TIP3    H242048   2.459   6.512  15.349 -0.5901  0.1340  2.3108
 6853TIP3   OH242049   0.607   5.455  15.307  0.4849  0.1203 -0.5139
 6853TIP3    H142050   0.521   5.481  15.275  0.3473  1.3825  0.7851
 6853TIP3    H242051   0.653   5.537  15.322  0.9218 -0.4268  1.4196
 6854TIP3   OH242052   2.139   1.585   0.204  0.1692 -0.3949 -0.1347
 6854TIP3    H142053   2.081   1.519   0.166 -1.4576  0.0243  1.4598
 6854TIP3    H242054   2.092   1.615   0.282  1.2451  2.0318 -0.3344
 6855TIP3   OH242055   2.435   6.668   3.882  0.5328  0.0576 -0.6247
 6855TIP3    H142056   2.528   6.669   3.862  0.5697 -0.5232 -0.4879
 6855TIP3    H242057   2.419   6.583   3.923  0.1865  0.6802  0.5601
 6856TIP3   OH242058   3.845   1.355  13.181 -0.4011  0.0695  0.4189
 6856TIP3    H142059   3.900   1.374  13.257 -0.1113  1.9082 -0.1930
 6856TIP3    H242060   3.858   1.262  13.164  0.1415 -0.1966  2.1295
 6857TIP3   OH242061   0.730   0.752  14.372 -0.2720 -0.0623 -0.3759
 6857TIP3    H142062   0.719   0.710  14.287 -1.0721  0.1561 -0.3893
 6857TIP3    H242063   0.724   0.846  14.354  0.2806  0.0186 -0.1737
 6858TIP3   OH242064   2.016   3.669  11.431  1.0396  0.2397  0.4502
 6858TIP3    H142065   1.967   3.732  11.378  1.4576 -0.8918 -1.3627
 6858TIP3    H242066   1.997   3.694  11.522 -1.4520  0.9227 -0.1824
 6859TIP3   OH242067   2.756   5.191  14.353  0.3714 -0.1242  0.0668
 6859TIP3    H142068   2.775   5.262  14.414  0.2950 -0.4514  0.4709
 6859TIP3    H242069   2.772   5.111  14.403 -0.9894 -0.4093  0.0693
 6860TIP3   OH242070   6.245   3.038   4.257 -0.6052  0.1469  0.2988
 6860TIP3    H142071   6.209   2.968   4.312  1.1708 -1.2877 -0.2538
 6860TIP3    H242072   6.202   3.027   4.173 -0.9654  0.2953  0.4594
 6861TIP3   OH242073   6.661   5.662  11.482  0.1365  0.2827 -0.0186
 6861TIP3    H142074   6.744   5.614  11.474  0.0370 -0.0347  0.7346
 6861TIP3    H242075   6.664   5.702  11.569 -1.0857 -0.9009  0.6099
 6862TIP3   OH242076   4.170   0.152   1.973 -0.0172  0.3097  0.4036
 6862TIP3    H142077   4.180   0.178   2.065  0.1315  0.8281  0.2445
 6862TIP3    H242078   4.208   0.224   1.923 -0.8311  0.4025 -0.0942
 6863TIP3   OH242079   5.776   5.801  14.655 -0.3127  0.2591  0.5555
 6863TIP3    H142080   5.775   5.885  14.609 -0.6383 -0.4076 -0.6850
 6863TIP3    H242081   5.688   5.794  14.693 -0.3888  0.3300  0.3931
 6864TIP3   OH242082   0.438   0.426  16.061 -0.9280 -0.1029 -0.4695
 6864TIP3    H142083   0.464   0.349  16.010 -1.0661 -0.7689  0.4467
 6864TIP3    H242084   0.509   0.488  16.046 -0.8510 -0.3679 -1.2857
 6865TIP3   OH242085   5.597   4.371  11.094  0.0661 -0.0228 -0.4423
 6865TIP3    H142086   5.507   4.398  11.114 -0.7314 -1.4973 -1.7669
 6865TIP3    H242087   5.621   4.422  11.017  0.3088  0.2334 -0.2001
 6866TIP3   OH242088   4.263   1.206   3.571 -0.1272  0.3363  0.0741
 6866TIP3    H142089   4.277   1.190   3.664  2.6994 -0.7379 -0.4263
 6866TIP3    H242090   4.347   1.241   3.540 -1.1378  1.1083 -2.0132
 6867TIP3   OH242091   5.494   2.269   4.563  0.0333 -0.1214  0.9012
 6867TIP3    H142092   5.577   2.252   4.607 -1.0402 -2.4920  2.2436
 6867TIP3    H242093   5.438   2.309   4.630  0.0690  1.5596 -0.0172
 6868TIP3   OH242094   5.708   4.987  16.274 -0.0135 -0.0601  0.0592
 6868TIP3    H142095   5.617   4.997  16.249 -0.8398 -1.6724  2.1069
 6868TIP3    H242096   5.723   5.056  16.339  0.9405  1.5780 -1.7857
 6869TIP3   OH242097   3.532   4.370  11.588 -0.2734 -0.0922 -0.2351
 6869TIP3    H142098   3.515   4.353  11.495  0.7923 -0.1622 -0.4273
 6869TIP3    H242099   3.627   4.381  11.594 -0.2854 -0.4567  0.9106
 6870TIP3   OH242100   0.001   1.725  14.058 -0.0357 -0.1752  0.0230
 6870TIP3    H142101  -0.077   1.671  14.047  1.2239 -1.8478 -1.0782
 6870TIP3    H242102   0.028   1.710  14.149 -0.9921  0.4640  0.4295
 6871TIP3   OH242103   0.415   0.964  11.634  0.8063  0.3591 -0.2127
 6871TIP3    H142104   0.440   1.050  11.600  0.3046  0.7348  0.3335
 6871TIP3    H242105   0.471   0.952  11.711 -0.9528  1.4381  1.3275
 6872TIP3   OH242106   0.342   4.155  13.105  0.5038  0.0348  0.0206
 6872TIP3    H142107   0.389   4.075  13.130  2.1776  1.2127  0.8288
 6872TIP3    H242108   0.299   4.184  13.185  0.4151  0.2765 -0.1139
 6873TIP3   OH242109   3.422   4.825   6.144  0.2039  0.2542  0.1710
 6873TIP3    H142110   3.424   4.776   6.227  0.1216  1.6041  0.9908
 6873TIP3    H242111   3.510   4.814   6.107  0.1660 -0.5641  0.2916
 6874TIP3   OH242112   0.560   0.248   1.842 -0.2231  0.2109 -0.3894
 6874TIP3    H142113   0.528   0.214   1.925  1.2307  0.6774  0.4064
 6874TIP3    H242114   0.567   0.342   1.856 -1.8557  0.5806 -1.7422
 6875TIP3   OH242115   1.578   3.452   0.626  0.4425  0.4264 -0.2030
 6875TIP3    H142116   1.646   3.405   0.578 -0.2307 -0.0299 -0.7152
 6875TIP3    H242117   1.525   3.383   0.666 -1.6179  0.6200 -2.3927
 6876TIP3   OH242118   1.995   4.862   4.399 -0.0464 -0.0702 -0.5745
 6876TIP3    H142119   1.942   4.907   4.465 -0.4353  0.7253 -1.4073
 6876TIP3    H242120   1.942   4.787   4.373  0.1193 -0.4036  0.0236
 6877TIP3   OH242121   4.638   1.455   2.413 -0.2120 -0.3775 -0.2757
 6877TIP3    H142122   4.580   1.528   2.436 -0.8569 -0.9996  0.1277
 6877TIP3    H242123   4.627   1.392   2.484  1.1811 -0.4008 -0.0436
 6878TIP3   OH242124   1.036   2.198   0.486 -0.4182  0.2739  0.0452
 6878TIP3    H142125   0.952   2.183   0.442  0.1023  0.3888 -1.0212
 6878TIP3    H242126   1.101   2.160   0.427  0.3807  1.2205  0.2995
 6879TIP3   OH242127   2.941   3.500   0.055  0.0010 -0.1599  0.5271
 6879TIP3    H142128   2.867   3.474   0.110  0.3504 -0.1841  0.9907
 6879TIP3    H242129   2.971   3.418   0.014 -0.7370 -0.0326 -0.3151
 6880TIP3   OH242130   0.911   6.248   1.025 -0.0133 -0.3754 -0.1440
 6880TIP3    H142131   0.937   6.175   1.081 -3.5848 -1.6716  0.0808
 6880TIP3    H242132   0.917   6.325   1.082 -0.0990 -1.1257  0.9179
 6881TIP3   OH242133   6.428   1.239  14.269 -0.6076 -0.5612 -0.1918
 6881TIP3    H142134   6.365   1.199  14.328 -0.2136 -0.2791  0.4377
 6881TIP3    H242135   6.383   1.316  14.233  0.0445  0.9118  1.9169
 6882TIP3   OH242136   6.005   1.753   3.155 -0.8875 -0.3099  0.2835
 6882TIP3    H142137   6.038   1.783   3.070 -2.4679 -0.8158 -0.5610
 6882TIP3    H242138   6.077   1.704   3.193  0.6498  1.7714  0.2640
 6883TIP3   OH242139   2.963   4.753   3.255 -0.8255 -0.1974 -0.0303
 6883TIP3    H142140   3.020   4.802   3.315 -1.9591 -0.6013  1.4185
 6883TIP3    H242141   2.920   4.820   3.202  0.3481  0.1500 -0.5800
 6884TIP3   OH242142   2.018   4.591  11.740 -0.5233 -0.6753  0.2742
 6884TIP3    H142143   2.096   4.642  11.720 -1.0340 -0.5130 -1.4223
 6884TIP3    H242144   1.946   4.644  11.708 -1.2835 -1.1818  1.1083
 6885TIP3   OH242145   6.530   6.255  11.716  0.1401  0.1300  0.4191
 6885TIP3    H142146   6.484   6.334  11.744 -0.9169 -0.7320  1.2037
 6885TIP3    H242147   6.496   6.237  11.629  2.1081  1.8088 -0.7782
 6886TIP3   OH242148   5.976   0.598  15.292  0.2992 -0.4881  0.6342
 6886TIP3    H142149   6.038   0.585  15.221  0.1522 -1.2402  0.6318
 6886TIP3    H242150   5.993   0.525  15.352 -1.5044 -1.5469 -0.0578
 6887TIP3   OH242151   3.406   2.766   1.207 -0.5424  0.0648  0.2232
 6887TIP3    H142152   3.472   2.762   1.276 -0.0561  1.3305 -0.1413
 6887TIP3    H242153   3.356   2.845   1.225 -1.1282 -0.1838 -0.2529
 6888TIP3   OH242154   1.598   4.667  15.492 -0.4009  0.6082 -0.7044
 6888TIP3    H142155   1.682   4.687  15.533 -0.3704 -0.5723 -0.1573
 6888TIP3    H242156   1.573   4.582  15.528 -1.2017  0.3323 -1.8589
 6889TIP3   OH242157   2.998   4.134   5.448  0.2116 -0.1609 -0.3698
 6889TIP3    H142158   3.011   4.096   5.361 -0.6174  1.3647 -1.2113
 6889TIP3    H242159   2.947   4.214   5.431 -2.2968 -1.1941  1.7677
 6890TIP3   OH242160   6.717   0.770   4.857 -0.2111  0.2645 -0.3139
 6890TIP3    H142161   6.691   0.753   4.948  1.1107 -1.6218 -0.2495
 6890TIP3    H242162   6.697   0.863   4.844 -0.2676  0.6287  1.9581
 6891TIP3   OH242163   3.913   2.852   4.467 -0.4785  0.2860 -0.4526
 6891TIP3    H142164   3.867   2.886   4.390 -1.6022 -1.0801 -0.4175
 6891TIP3    H242165   3.845   2.846   4.535 -0.1735 -1.3375 -0.2599
 6892TIP3   OH242166   1.313   4.985   2.344  0.2793 -0.0776  0.6263
 6892TIP3    H142167   1.371   5.037   2.401  1.2508 -0.0830 -0.3226
 6892TIP3    H242168   1.352   4.993   2.257 -0.4795 -1.0912  0.1761
 6893TIP3   OH242169   0.626   4.244  11.476 -0.3216 -0.2544  0.0543
 6893TIP3    H142170   0.531   4.253  11.475 -0.3055 -0.0246 -1.4989
 6893TIP3    H242171   0.657   4.319  11.526 -0.9508 -0.4080  0.6974
 6894TIP3   OH242172   4.429   1.689   2.837 -0.4900 -0.1265 -0.0086
 6894TIP3    H142173   4.373   1.729   2.904  1.4125 -0.5647  1.9865
 6894TIP3    H242174   4.371   1.629   2.791 -1.5466 -1.2052  2.5028
 6895TIP3   OH242175   0.608   3.495  16.941  0.2764 -0.2597  0.0197
 6895TIP3    H142176   0.568   3.567  16.988  0.8628  0.3117 -0.3408
 6895TIP3    H242177   0.556   3.418  16.965 -0.3822  0.2884  0.3586
 6896TIP3   OH242178   3.020   0.543   2.064  0.7403  0.2319  0.1509
 6896TIP3    H142179   3.095   0.554   2.006  0.5838 -0.5729 -0.2204
 6896TIP3    H242180   3.034   0.458   2.105 -0.0120  0.0414  0.0175
 6897TIP3   OH242181   5.395   2.327   2.432  0.1301  0.3367  0.1258
 6897TIP3    H142182   5.425   2.333   2.523  0.9265 -0.9901 -0.0164
 6897TIP3    H242183   5.309   2.370   2.432  0.0924  0.3124  1.5099
 6898TIP3   OH242184   3.612   1.873  11.810  0.2679 -0.0142 -0.3767
 6898TIP3    H142185   3.667   1.837  11.740  0.8526 -1.3697  0.7277
 6898TIP3    H242186   3.641   1.827  11.889 -1.1478  0.6534  0.5662
 6899TIP3   OH242187   1.692   5.835   0.120 -0.2008 -0.4255 -0.1774
 6899TIP3    H142188   1.644   5.900   0.172 -0.8744 -0.8244 -0.2845
 6899TIP3    H242189   1.743   5.786   0.184  0.2966  0.1809 -0.0919
 6900TIP3   OH242190   1.798   2.563   5.667  0.0882 -0.0681 -0.2839
 6900TIP3    H142191   1.834   2.623   5.602 -0.9497 -0.3808 -1.1855
 6900TIP3    H242192   1.712   2.599   5.689  0.5642  0.2250  1.2032
 6901TIP3   OH242193   5.855   1.039   3.790  0.2058 -0.0098 -0.2263
 6901TIP3    H142194   5.913   1.064   3.862  1.0528 -1.2170 -0.4448
 6901TIP3    H242195   5.905   0.973   3.742 -0.7544  0.0392 -1.3358
 6902TIP3   OH242196   0.526   5.554   5.027  0.2655  0.4715  0.0876
 6902TIP3    H142197   0.483   5.554   4.942  0.2671  2.5105  0.0380
 6902TIP3    H242198   0.489   5.630   5.073  1.0970  0.0865  1.4634
 6903TIP3   OH242199   1.816   2.401   1.482  0.6074 -0.5266  0.5403
 6903TIP3    H142200   1.800   2.330   1.420 -0.3542 -0.0637  0.2296
 6903TIP3    H242201   1.733   2.451   1.483  1.7905  1.6276 -0.6179
 6904TIP3   OH242202   1.742   6.421   0.950 -0.0235 -0.2253  0.0477
 6904TIP3    H142203   1.660   6.469   0.959 -1.0240 -2.0556  1.3677
 6904TIP3    H242204   1.775   6.445   0.864 -1.9756  0.5107 -0.5360
 6905TIP3   OH242205   1.250   3.867  14.057  0.3276 -0.2400  0.1613
 6905TIP3    H142206   1.227   3.909  13.974 -0.9705 -1.4385 -0.1132
 6905TIP3    H242207   1.294   3.936  14.107  2.0142  0.2589 -1.8541
 6906TIP3   OH242208   5.909   1.012  14.321  0.6213 -0.2746  0.1189
 6906TIP3    H142209   5.882   0.982  14.234  0.0322  0.8864 -0.1127
 6906TIP3    H242210   5.917   0.931  14.372 -1.5148 -0.8284 -0.3099
 6907TIP3   OH242211   6.555   6.483  13.531  0.4877 -0.5627 -0.1226
 6907TIP3    H142212   6.567   6.545  13.602  2.6885 -1.3053  0.2201
 6907TIP3    H242213   6.593   6.526  13.454 -1.3688  0.0052 -0.7663
 6908TIP3   OH242214   2.793   1.844  16.533  0.0206  0.1829  0.0701
 6908TIP3    H142215   2.880   1.829  16.495 -0.4810 -1.8162 -0.4306
 6908TIP3    H242216   2.759   1.920  16.486  1.4298  0.9194  0.1877
 6909TIP3   OH242217   5.441   0.152   3.121 -0.1881  0.0166  0.2659
 6909TIP3    H142218   5.482   0.066   3.117 -0.2583  0.0048 -0.2923
 6909TIP3    H242219   5.439   0.182   3.030  2.0870  1.6831  0.6939
 6910TIP3   OH242220   4.222   6.526   0.543  0.2757  0.3983  0.9745
 6910TIP3    H142221   4.317   6.536   0.537  0.1878  0.8890  0.1614
 6910TIP3    H242222   4.187   6.602   0.496 -0.4892 -0.6860 -0.3099
 6911TIP3   OH242223   2.110   1.376   2.025 -0.3499 -0.4753  0.0677
 6911TIP3    H142224   2.022   1.344   2.003  0.0342 -1.4511 -0.0855
 6911TIP3    H242225   2.126   1.344   2.113 -0.8405  1.2209  0.8156
 6912TIP3   OH242226   2.753   1.330  14.571  0.2721 -0.3666  0.1726
 6912TIP3    H142227   2.831   1.277  14.585  1.3449 -0.4077 -4.2288
 6912TIP3    H242228   2.787   1.416  14.546 -1.2015  0.3861  0.6282
 6913TIP3   OH242229   2.746   5.869   5.051  0.3383 -0.1367 -0.3868
 6913TIP3    H142230   2.802   5.812   5.104  0.3989  0.0854 -0.2119
 6913TIP3    H242231   2.735   5.821   4.969  0.8864 -0.1274 -0.4699
 6914TIP3   OH242232   1.438   5.584   3.638 -0.0971 -0.0396 -0.2388
 6914TIP3    H142233   1.496   5.537   3.698  1.4857  1.5268 -0.4785
 6914TIP3    H242234   1.355   5.536   3.643  0.9135 -1.7886  0.8299
 6915TIP3   OH242235   3.669   2.669   1.936  0.1724 -0.6373 -0.2341
 6915TIP3    H142236   3.722   2.643   2.011  0.3597  1.2864  0.3502
 6915TIP3    H242237   3.701   2.614   1.864  0.7281 -1.7513  0.8320
 6916TIP3   OH242238   1.973   0.860   1.935  0.0286 -0.3443  0.1350
 6916TIP3    H142239   2.013   0.927   1.880  0.3271 -0.1382  0.5982
 6916TIP3    H242240   1.939   0.795   1.873  0.2737 -0.0692 -0.2932
 6917TIP3   OH242241   3.498   6.699  12.430  0.1100 -0.4691  0.2966
 6917TIP3    H142242   3.575   6.748  12.403 -1.5513  1.9316 -0.3940
 6917TIP3    H242243   3.484   6.725  12.521 -1.3715  1.3350 -0.3710
 6918TIP3   OH242244   1.600   0.091  16.009 -0.4858  0.1522 -0.3932
 6918TIP3    H142245   1.538   0.026  16.042  0.2347  0.2291  1.1644
 6918TIP3    H242246   1.605   0.158  16.077  1.2887  0.1485 -0.4654
 6919TIP3   OH242247   2.912   5.703   5.175 -0.0512 -0.0355 -0.6329
 6919TIP3    H142248   2.897   5.676   5.266 -1.4637 -0.2645 -0.8978
 6919TIP3    H242249   2.993   5.659   5.150  0.0171 -0.4898  0.3284
 6920TIP3   OH242250   4.674   1.119   1.905  0.0084  0.4720 -0.1050
 6920TIP3    H142251   4.624   1.131   1.986  0.6195  0.4486  0.2839
 6920TIP3    H242252   4.731   1.196   1.900  0.5242  0.0982 -0.0976
 6921TIP3   OH242253   4.460   6.474   5.068 -0.5217 -0.0427  0.5179
 6921TIP3    H142254   4.463   6.491   5.162 -0.8344  1.3141  0.3101
 6921TIP3    H242255   4.551   6.458   5.043 -0.1973  1.2583  0.7874
 6922TIP3   OH242256   5.956   4.272   0.563  0.6091  0.0241 -0.1298
 6922TIP3    H142257   5.887   4.215   0.596  0.9924 -0.2725  0.1806
 6922TIP3    H242258   5.967   4.246   0.471  0.1121  0.2722 -0.2577
 6923TIP3   OH242259   4.089   1.236  11.577 -0.1257 -0.4352 -0.1321
 6923TIP3    H142260   4.070   1.242  11.671 -1.8468 -0.5484 -0.4354
 6923TIP3    H242261   4.004   1.251  11.535  0.6519 -0.2035 -1.6821
 6924TIP3   OH242262   0.833   3.406  11.527  0.3982  0.7769 -0.4754
 6924TIP3    H142263   0.775   3.437  11.458  0.7922 -1.4465 -1.9202
 6924TIP3    H242264   0.896   3.350  11.482  1.0902 -0.2202  1.5936
 6925TIP3   OH242265   3.308   1.429  15.016 -0.5415 -0.2343 -0.4253
 6925TIP3    H142266   3.239   1.450  14.953 -1.3218  0.3775  0.6054
 6925TIP3    H242267   3.388   1.430  14.964 -1.2350 -0.4183 -1.5422
 6926TIP3   OH242268   0.200   2.606  14.560  0.2915  0.2698 -0.2725
 6926TIP3    H142269   0.188   2.656  14.480 -1.0867 -0.5738 -0.6292
 6926TIP3    H242270   0.205   2.515  14.531 -0.0011 -0.0322  0.5843
 6927TIP3   OH242271   6.079   4.745  15.254 -0.0170  0.2777 -0.5365
 6927TIP3    H142272   6.131   4.737  15.174 -0.8188 -1.4077 -0.9325
 6927TIP3    H242273   5.998   4.788  15.226 -0.4966 -0.7458 -0.7364
 6928TIP3   OH242274   2.946   3.401  16.066 -0.1190 -0.0039 -0.1653
 6928TIP3    H142275   3.015   3.334  16.069 -1.0495 -1.0351 -0.9733
 6928TIP3    H242276   2.991   3.483  16.084  1.1892 -0.7459  0.0625
 6929TIP3   OH242277   2.826   6.244   0.728  0.0068 -0.0765  0.0905
 6929TIP3    H142278   2.855   6.153   0.717  0.5253  0.0105  0.6504
 6929TIP3    H242279   2.882   6.278   0.798 -1.4100  0.1352  1.1553
 6930TIP3   OH242280   5.001   6.243  14.403 -0.3550 -0.3950 -0.4584
 6930TIP3    H142281   5.094   6.246  14.381 -0.0604 -0.1925  0.7403
 6930TIP3    H242282   4.991   6.163  14.455 -1.1051 -1.0708 -1.5932
 6931TIP3   OH242283   5.631   4.819   4.883  0.1239 -0.0402 -0.0629
 6931TIP3    H142284   5.561   4.878   4.856  0.3234  0.1114 -0.2563
 6931TIP3    H242285   5.684   4.871   4.944  2.0665  1.0791 -2.5129
 6932TIP3   OH242286   3.918   3.992  15.561 -0.1005 -0.3916 -0.0537
 6932TIP3    H142287   3.921   3.951  15.647  1.8761 -0.1667  0.0430
 6932TIP3    H242288   3.858   4.067  15.572 -0.8578 -1.0955  0.7559
 6933TIP3   OH242289   6.524   3.052  17.024 -0.2379  0.1980  0.8835
 6933TIP3    H142290   6.465   3.116  17.064  0.4617  0.6637  1.1659
 6933TIP3    H242291   6.491   2.968  17.054 -1.1992  0.4037  0.4648
 6934TIP3   OH242292   5.982   0.026  13.110  0.0532 -0.0989 -0.0709
 6934TIP3    H142293   5.985   0.110  13.156 -1.4677 -0.0005 -0.1053
 6934TIP3    H242294   5.961  -0.038  13.178 -0.6982 -0.1687 -0.3586
 6935TIP3   OH242295   3.788   1.485  12.955 -0.0572  0.2320  0.6545
 6935TIP3    H142296   3.816   1.435  13.031 -0.7361 -1.9073 -0.4140
 6935TIP3    H242297   3.840   1.450  12.883 -3.1457 -1.8262 -0.8431
 6936TIP3   OH242298   4.225   0.849   1.954 -0.5868 -0.0483 -0.2877
 6936TIP3    H142299   4.145   0.837   2.006 -0.2929 -0.8319 -0.0045
 6936TIP3    H242300   4.193   0.868   1.866 -1.0977 -1.0516 -0.3389
 6937TIP3   OH242301   4.181   3.728   4.177  0.1627  0.2120 -0.2883
 6937TIP3    H142302   4.091   3.701   4.198  0.3630  1.1927  2.0428
 6937TIP3    H242303   4.172   3.815   4.139  0.0599 -0.2928 -1.4891
 6938TIP3   OH242304   0.506   4.898   5.060 -0.0295  0.3088 -0.1205
 6938TIP3    H142305   0.444   4.887   5.132 -1.1737 -1.4056 -1.2897
 6938TIP3    H242306   0.451   4.911   4.983  1.1358  0.7543 -0.9088
 6939TIP3   OH242307   4.805   0.949  11.636  0.2694  0.0373  0.1158
 6939TIP3    H142308   4.730   0.996  11.671  0.1951  2.2022 -2.6367
 6939TIP3    H242309   4.781   0.857  11.643 -2.1641  0.6157  0.2999
 6940TIP3   OH242310   1.014   0.779   0.950  0.4638 -0.0139  0.6169
 6940TIP3    H142311   0.925   0.745   0.947  0.9069 -1.3426 -3.4353
 6940TIP3    H242312   1.004   0.874   0.951 -0.9260 -0.1465  1.7631
 6941TIP3   OH242313   6.324   1.682  14.831  0.1519 -0.4726  1.0892
 6941TIP3    H142314   6.278   1.717  14.755 -1.7480 -1.4537  1.6921
 6941TIP3    H242315   6.340   1.758  14.887 -1.9954 -0.2138  1.4368
 6942TIP3   OH242316   4.565   2.702   4.216 -0.0773 -0.4705 -0.2636
 6942TIP3    H142317   4.610   2.638   4.271  1.5863  0.8415 -0.0226
 6942TIP3    H242318   4.631   2.729   4.152 -1.1457  0.0785 -1.1644
 6943TIP3   OH242319   0.739   3.732   3.367  0.3154  0.1489  0.6332
 6943TIP3    H142320   0.704   3.788   3.437 -0.0913  0.2164  0.3781
 6943TIP3    H242321   0.821   3.698   3.403  0.0110  0.0206  1.2253
 6944TIP3   OH242322   2.942   6.520   1.500 -0.0313 -0.5056  0.2751
 6944TIP3    H142323   2.986   6.530   1.585  1.3685 -1.0248 -0.3519
 6944TIP3    H242324   2.859   6.477   1.521 -0.0623  0.0944  1.4593
 6945TIP3   OH242325   3.753   2.214   0.460 -0.0413  0.4623 -0.3205
 6945TIP3    H142326   3.717   2.159   0.530 -1.8008  0.1467 -1.4113
 6945TIP3    H242327   3.728   2.303   0.484 -0.6002  0.3593 -0.5054
 6946TIP3   OH242328   6.391   1.018  15.959 -0.1989 -0.2033  0.3328
 6946TIP3    H142329   6.385   1.042  15.867 -0.5804  1.0172  0.6681
 6946TIP3    H242330   6.329   0.945  15.968 -0.5742  0.0338 -0.2543
 6947TIP3   OH242331   2.116   4.382  11.398 -0.4064 -0.4205  0.0601
 6947TIP3    H142332   2.039   4.347  11.354 -0.0426  0.5234 -1.4076
 6947TIP3    H242333   2.190   4.342  11.353 -0.0268  0.0070  0.2983
 6948TIP3   OH242334   3.664   1.995  16.339 -0.3008  0.2588 -0.1418
 6948TIP3    H142335   3.582   1.969  16.381 -0.2780  3.5482  2.3372
 6948TIP3    H242336   3.650   2.086  16.313  2.3559  0.7136 -0.2417
 6949TIP3   OH242337   3.289   5.965   4.520 -0.2737  0.3524 -0.1220
 6949TIP3    H142338   3.379   5.970   4.552 -0.4225 -0.0008  0.3569
 6949TIP3    H242339   3.288   5.889   4.463  0.0379  1.0912 -1.1338
 6950TIP3   OH242340   5.906   0.177  13.421  0.0807 -0.4829 -0.0805
 6950TIP3    H142341   5.832   0.163  13.480  0.2862  4.6228  1.9027
 6950TIP3    H242342   5.981   0.139  13.467 -0.3205  0.3742  1.3405
 6951TIP3   OH242343   4.548   5.278   3.226  0.3572 -0.6819 -0.1866
 6951TIP3    H142344   4.580   5.305   3.312  1.4563 -2.4403 -0.0048
 6951TIP3    H242345   4.508   5.357   3.190  0.3593  0.2406  1.6985
 6952TIP3   OH242346   2.745   1.999   5.247  0.0479  0.3992 -0.3665
 6952TIP3    H142347   2.792   1.920   5.276 -0.3901  0.3260  0.1639
 6952TIP3    H242348   2.777   2.068   5.306  0.6030  0.6735 -0.9783
 6953TIP3   OH242349   4.621   3.914   5.039 -0.2260  0.1114 -0.1723
 6953TIP3    H142350   4.642   3.868   4.957 -0.0718 -0.0419 -0.0470
 6953TIP3    H242351   4.672   3.868   5.106 -0.5091  0.1077  0.0415
 6954TIP3   OH242352   2.402   0.688  15.671  0.3834  0.1302 -0.2678
 6954TIP3    H142353   2.443   0.649  15.748  2.2114  0.5077 -1.0071
 6954TIP3    H242354   2.309   0.690  15.692  0.4492 -2.6024  0.6914
 6955TIP3   OH242355   2.698   3.030   4.753 -0.3942 -0.4370 -0.8135
 6955TIP3    H142356   2.741   2.961   4.704  0.0992 -0.5727 -0.1996
 6955TIP3    H242357   2.709   3.005   4.845 -0.5719  0.2385 -0.6016
 6956TIP3   OH242358   0.792   4.883   1.028  0.0142 -0.0301 -0.1120
 6956TIP3    H142359   0.813   4.825   0.955 -1.2839 -0.6517 -0.0289
 6956TIP3    H242360   0.775   4.968   0.987 -0.3434 -0.2855 -0.5030
 6957TIP3   OH242361   4.130   1.723   4.924 -0.6425 -0.0654 -0.3104
 6957TIP3    H142362   4.171   1.650   4.971  0.1764 -0.0065 -0.9224
 6957TIP3    H242363   4.045   1.688   4.897 -0.6986 -0.4376  0.3211
 6958TIP3   OH242364   1.297   1.096  13.571  0.6059 -0.2136  0.3615
 6958TIP3    H142365   1.271   1.065  13.658  0.4497  0.6652  0.6399
 6958TIP3    H242366   1.328   1.185  13.586  1.4359 -0.3663 -0.3518
 6959TIP3   OH242367   1.756   2.255   5.942 -0.1945 -0.3426 -0.1873
 6959TIP3    H142368   1.676   2.229   5.897 -0.3180  1.9287 -1.4217
 6959TIP3    H242369   1.728   2.281   6.029 -0.0601 -3.9975  1.1538
 6960TIP3   OH242370   6.590   5.907   6.095  0.1183 -0.3890 -0.0653
 6960TIP3    H142371   6.623   5.909   6.184  0.2242 -0.5932 -0.1013
 6960TIP3    H242372   6.651   5.962   6.046 -1.8865  2.7437  0.6487
 6961TIP3   OH242373   0.472   5.537  13.582  0.3396 -0.2314  0.7315
 6961TIP3    H142374   0.530   5.483  13.527 -2.0540 -1.3827 -0.8511
 6961TIP3    H242375   0.451   5.612  13.527 -1.9670 -1.3242 -0.0259
 6962TIP3   OH242376   1.576   4.208  14.440 -0.0434 -0.0233 -0.2552
 6962TIP3    H142377   1.483   4.211  14.463  0.3042 -1.1170  1.5348
 6962TIP3    H242378   1.591   4.117  14.415  0.5409  0.1497 -0.5487
 6963TIP3   OH242379   4.723   6.400  13.729  0.3968  0.4205 -0.0704
 6963TIP3    H142380   4.725   6.361  13.817  0.5371  0.0633 -0.2291
 6963TIP3    H242381   4.634   6.433  13.719  0.7553  1.7018  0.7389
 6964TIP3   OH242382   0.364   5.573   4.807  0.0739  0.4441 -0.6420
 6964TIP3    H142383   0.357   5.505   4.741 -1.9660  0.4295 -0.4733
 6964TIP3    H242384   0.273   5.593   4.831  0.6277  2.7374 -0.1936
 6965TIP3   OH242385   2.973   1.386  11.192  0.5379 -0.9878  0.3947
 6965TIP3    H142386   3.049   1.402  11.248  1.4613  0.4829 -1.1893
 6965TIP3    H242387   3.003   1.321  11.129  0.5686 -0.2821 -0.3375
 6966TIP3   OH242388   4.506   3.379   0.007 -0.5211  0.6102 -0.1591
 6966TIP3    H142389   4.600   3.385   0.022 -0.0939 -2.4187 -0.9543
 6966TIP3    H242390   4.466   3.426   0.080  1.5874  0.3631  1.2086
 6967TIP3   OH242391   4.121   1.423  15.599 -0.0718  0.0452  0.4239
 6967TIP3    H142392   4.211   1.454  15.612 -0.2633 -0.1766  2.7142
 6967TIP3    H242393   4.122   1.333  15.629 -0.7933 -0.4006 -0.8190
 6968TIP3   OH242394   3.095   4.837   3.824 -0.1920  0.5888  0.4610
 6968TIP3    H142395   3.120   4.746   3.840  1.1352  0.7183 -0.6996
 6968TIP3    H242396   3.076   4.873   3.911 -0.6032 -0.7421  0.9410
 6969TIP3   OH242397   5.748   4.071   1.834 -0.1751 -0.3358 -0.5758
 6969TIP3    H142398   5.662   4.103   1.862  0.5915  1.2753  0.0667
 6969TIP3    H242399   5.786   4.035   1.914  0.9624  1.8489 -0.0518
 6970TIP3   OH242400   2.988   5.123  11.067  0.2752  0.5719  0.1953
 6970TIP3    H142401   2.921   5.188  11.046  1.1378  1.1137 -1.0198
 6970TIP3    H242402   3.021   5.094  10.982 -0.0875 -1.5000  0.6959
 6971TIP3   OH242403   4.279   3.023   3.310 -0.0743  0.3032 -0.1522
 6971TIP3    H142404   4.351   3.063   3.360  2.8396 -0.9596 -2.9366
 6971TIP3    H242405   4.251   3.092   3.250  0.5901  0.0893 -0.7253
 6972TIP3   OH242406   0.445   2.538   3.303 -0.1624 -0.0334  0.0528
 6972TIP3    H142407   0.401   2.472   3.357  1.3687 -0.3982  0.9011
 6972TIP3    H242408   0.484   2.488   3.231 -2.2733  0.4619 -1.5319
 6973TIP3   OH242409   6.573   5.790  16.195 -0.1129  0.1908  0.5150
 6973TIP3    H142410   6.626   5.727  16.146  1.1212  1.3821  0.2583
 6973TIP3    H242411   6.569   5.867  16.139  0.2396  1.1248  1.7304
 6974TIP3   OH242412   0.185   6.154   1.990 -0.0181  0.5174  0.4785
 6974TIP3    H142413   0.227   6.087   1.936 -2.4106  0.3617 -1.4099
 6974TIP3    H242414   0.141   6.105   2.059  0.3674  0.3950  0.6387
 6975TIP3   OH242415   4.108   1.631   2.355 -0.1381  0.7181  0.4405
 6975TIP3    H142416   4.019   1.664   2.367  0.0110  1.9205 -1.4080
 6975TIP3    H242417   4.095   1.541   2.324 -0.6230  0.1340  2.2126
 6976TIP3   OH242418   5.036   6.243   5.774  0.0335  0.0905  0.2267
 6976TIP3    H142419   5.018   6.149   5.768  0.6076  0.0520 -1.7637
 6976TIP3    H242420   4.994   6.271   5.855 -0.4108 -1.8227  0.7040
 6977TIP3   OH242421   1.099   4.878   4.640  0.8004  0.1778 -1.2435
 6977TIP3    H142422   1.139   4.795   4.666  0.1277  0.3903  0.5832
 6977TIP3    H242423   1.105   4.933   4.718  1.4747  1.9699 -2.5009
 6978TIP3   OH242424   4.807   1.711   3.408 -0.6097  0.2529  0.0987
 6978TIP3    H142425   4.897   1.744   3.409 -1.2032  2.0830 -1.5595
 6978TIP3    H242426   4.764   1.755   3.481  0.0116 -1.3871  1.5396
 6979TIP3   OH242427   5.654   3.340  16.161  0.0017 -0.7428  0.1366
 6979TIP3    H142428   5.621   3.259  16.123 -0.2536 -0.0557 -1.1569
 6979TIP3    H242429   5.585   3.369  16.220 -0.6518 -0.5990 -0.6867
 6980TIP3   OH242430   3.203   0.631  11.271  0.3229  0.1406 -0.4327
 6980TIP3    H142431   3.160   0.596  11.193 -0.8694  0.1477  0.2062
 6980TIP3    H242432   3.132   0.655  11.329  1.1928  0.4050  0.5514
 6981TIP3   OH242433   3.485   1.392   0.374  0.0073  0.0283  0.3638
 6981TIP3    H142434   3.539   1.369   0.449  0.4121  1.5068  0.5597
 6981TIP3    H242435   3.547   1.425   0.309 -0.5218  0.5249  0.0984
 6982TIP3   OH242436   5.514   5.593   1.975  0.6852 -0.3174  0.4234
 6982TIP3    H142437   5.425   5.599   2.010  0.6086 -0.7137  0.2994
 6982TIP3    H242438   5.531   5.499   1.968  0.8447 -0.2398 -0.2475
 6983TIP3   OH242439   6.661   3.134  11.734 -0.1815 -0.0033 -0.2997
 6983TIP3    H142440   6.728   3.186  11.689  0.6399 -0.3897  0.4482
 6983TIP3    H242441   6.700   3.112  11.819 -1.6630  0.6428  0.5894
 6984TIP3   OH242442   2.606   3.304   6.044 -0.6000 -0.1382 -0.2561
 6984TIP3    H142443   2.517   3.282   6.016 -0.0968 -2.3090 -0.2855
 6984TIP3    H242444   2.657   3.305   5.963  0.0440 -2.3804  0.0525
 6985TIP3   OH242445   2.510   1.728  15.086 -0.7664 -0.7532  0.2059
 6985TIP3    H142446   2.460   1.781  15.149 -0.2192 -0.9995  0.8599
 6985TIP3    H242447   2.487   1.637  15.108 -1.2922 -0.8102 -0.5646
 6986TIP3   OH242448   4.839   5.971  11.303 -0.3157  0.0104 -0.0200
 6986TIP3    H142449   4.854   5.878  11.284 -0.4587  0.8086 -5.4213
 6986TIP3    H242450   4.895   6.018  11.242 -0.9519  3.5793  1.8532
 6987TIP3   OH242451   6.181   3.481  10.853 -1.0167 -0.0157  1.2165
 6987TIP3    H142452   6.241   3.447  10.919  1.6723  1.0682 -0.5276
 6987TIP3    H242453   6.177   3.413  10.786 -2.2603 -0.3253  1.5791
 6988TIP3   OH242454   3.937   6.570  12.086  0.3865 -0.5020  0.0986
 6988TIP3    H142455   3.970   6.657  12.108 -0.2132 -0.1108 -0.5198
 6988TIP3    H242456   3.855   6.562  12.136  0.5173 -0.7720  0.2718
 6989TIP3   OH242457   3.610   6.297  15.753 -0.1055 -0.5599 -0.0628
 6989TIP3    H142458   3.671   6.335  15.816 -0.3066  0.5292 -0.5156
 6989TIP3    H242459   3.568   6.372  15.711  0.1741 -1.2494 -1.6427
 6990TIP3   OH242460   6.710   1.147  13.276 -0.1768  0.4325 -0.0468
 6990TIP3    H142461   6.683   1.219  13.333 -0.8606 -1.0860  1.6373
 6990TIP3    H242462   6.649   1.149  13.202  1.8375  3.5703 -1.8464
 6991TIP3   OH242463   6.410   1.777   4.793  0.0305  0.0947 -0.1214
 6991TIP3    H142464   6.479   1.811   4.736  0.0742  1.0901  0.4958
 6991TIP3    H242465   6.329   1.789   4.742  0.2413 -0.4772 -0.5908
 6992TIP3   OH242466   0.620   3.172   3.109  0.5858 -0.4894 -0.1070
 6992TIP3    H142467   0.650   3.262   3.124  0.4056  0.2845 -3.6282
 6992TIP3    H242468   0.525   3.175   3.121  0.4960 -0.0369 -0.9383
 6993TIP3   OH242469   5.163   0.894  16.007  0.0724  0.3006 -0.1803
 6993TIP3    H142470   5.225   0.822  16.014 -1.5399 -1.3755 -1.9752
 6993TIP3    H242471   5.102   0.880  16.079  1.0103  1.2401  0.8382
 6994TIP3   OH242472   5.161   3.994   2.372  0.1527 -0.3794  0.8545
 6994TIP3    H142473   5.075   3.963   2.345 -0.4008  0.5453  1.4737
 6994TIP3    H242474   5.145   4.038   2.456  0.9410  1.1903  0.2267
 6995TIP3   OH242475   1.810   1.910  10.877 -0.2042 -0.2750 -0.0979
 6995TIP3    H142476   1.714   1.913  10.872 -0.1849 -0.4282 -0.6458
 6995TIP3    H242477   1.828   1.876  10.964 -0.6640 -0.7201 -0.1671
 6996TIP3   OH242478   5.621   3.099  14.407  0.0801  0.5446  0.6942
 6996TIP3    H142479   5.706   3.065  14.378  0.0708  1.8501 -1.0244
 6996TIP3    H242480   5.570   3.021  14.426  1.5374 -0.2766  1.3933
 6997TIP3   OH242481   2.621   6.161  11.919  0.1406  0.5740  0.3307
 6997TIP3    H142482   2.636   6.192  11.830 -2.0273  1.8944  0.3476
 6997TIP3    H242483   2.702   6.181  11.966  1.0352  0.5543 -1.1498
 6998TIP3   OH242484   1.789   5.897   3.742  0.3064  0.1614 -0.5155
 6998TIP3    H142485   1.860   5.949   3.705 -0.8839  0.7816 -2.0231
 6998TIP3    H242486   1.828   5.811   3.759  1.5562  0.6638 -0.7197
 6999TIP3   OH242487   5.520   0.925  15.111  0.3357  0.1423  0.7556
 6999TIP3    H142488   5.442   0.889  15.069  2.6280 -2.2918 -1.8340
 6999TIP3    H242489   5.528   0.877  15.193 -0.1549 -0.5829  0.3834
 7000TIP3   OH242490   1.461   0.681  13.346 -0.6706  0.5381  0.0123
 7000TIP3    H142491   1.465   0.679  13.441 -3.5289 -0.1407  0.1988
 7000TIP3    H242492   1.448   0.590  13.320  2.9921  0.2294 -1.3470
 7001TIP3   OH242493   0.017   2.256   5.334 -0.1379 -0.0807  0.5764
 7001TIP3    H142494   0.073   2.232   5.408 -1.3004  1.6295  2.0975
 7001TIP3    H242495  -0.000   2.350   5.347  0.3571  0.5259 -2.3945
 7002TIP3   OH242496   3.171   5.356  12.010 -0.0433  0.4069 -0.3543
 7002TIP3    H142497   3.190   5.397  11.925  0.8769 -1.9102 -1.3588
 7002TIP3    H242498   3.076   5.362  12.019 -0.0525  1.6057 -1.0371
 7003TIP3   OH242499   1.452   3.417   1.970 -0.2250  0.3609  0.0576
 7003TIP3    H142500   1.418   3.408   1.881  0.0631  1.3917 -0.1703
 7003TIP3    H242501   1.536   3.461   1.960  1.6081 -2.7829  0.5551
 7004TIP3   OH242502   4.788   5.815  11.676  0.0661  0.0833  0.4310
 7004TIP3    H142503   4.731   5.824  11.600  1.5309  1.4531 -0.5758
 7004TIP3    H242504   4.832   5.731  11.664 -0.2000 -0.0100  0.1123
 7005TIP3   OH242505   4.329   1.944  15.970  0.3843 -1.2953 -0.4808
 7005TIP3    H142506   4.407   1.898  16.001 -0.1376 -1.9486 -0.1052
 7005TIP3    H242507   4.294   1.888  15.901 -0.1855 -1.4160 -0.1047
 7006TIP3   OH242508   3.236   4.476  15.739 -0.6295 -0.8226  0.3399
 7006TIP3    H142509   3.289   4.471  15.819  0.1342  1.2369  0.0136
 7006TIP3    H242510   3.268   4.404  15.685 -0.4163 -1.5798  1.4418
 7007TIP3   OH242511   3.851   6.340  16.523 -0.2828 -0.3490  0.1890
 7007TIP3    H142512   3.771   6.388  16.502 -1.0327 -1.9108 -0.7708
 7007TIP3    H242513   3.829   6.291  16.602  0.3973  0.6630  1.0284
 7008TIP3   OH242514   5.518   3.050   4.016 -0.3644 -0.1521  0.3363
 7008TIP3    H142515   5.610   3.054   3.989 -0.3981  0.7533  0.3207
 7008TIP3    H242516   5.515   2.979   4.080 -0.0933 -1.7157 -1.2768
 7009TIP3   OH242517   4.482   2.177  14.338 -0.2480 -0.2974  1.0543
 7009TIP3    H142518   4.567   2.134  14.335  0.0404  0.0464  3.2502
 7009TIP3    H242519   4.441   2.154  14.254  1.8764 -0.6567  0.0518
 7010TIP3   OH242520   6.020   0.171   2.460  0.2585  0.3851 -0.1165
 7010TIP3    H142521   5.980   0.257   2.475  1.9194  1.2262 -0.2682
 7010TIP3    H242522   5.947   0.109   2.463 -0.9341  1.7695  0.2797
 7011TIP3   OH242523   6.563   3.751  12.496  0.7693  0.3747 -0.2098
 7011TIP3    H142524   6.613   3.771  12.417  0.0965  0.9687 -0.4896
 7011TIP3    H242525   6.503   3.824  12.506  0.0439 -0.2601  0.2012
 7012TIP3   OH242526   3.450   3.170  11.789  0.7164 -0.0169  0.4644
 7012TIP3    H142527   3.535   3.200  11.756  0.0615  0.9696 -0.3523
 7012TIP3    H242528   3.386   3.201  11.725 -0.2446 -1.0293  0.9004
 7013TIP3   OH242529   3.123   5.785  10.616 -0.1462 -1.2782  0.1988
 7013TIP3    H142530   3.139   5.874  10.646 -2.7365 -0.7092  0.0743
 7013TIP3    H242531   3.193   5.768  10.552  0.3437  0.6592  0.1725
 7014TIP3   OH242532   4.173   2.451   3.346  0.1787  0.1898 -0.1566
 7014TIP3    H142533   4.155   2.365   3.384  0.8258 -0.2154 -0.7476
 7014TIP3    H242534   4.268   2.453   3.335  0.2133  1.1375  0.2030
 7015TIP3   OH242535   4.751   6.525  13.491 -0.3807  0.6047  0.2637
 7015TIP3    H142536   4.782   6.473  13.564  2.3242  1.2512 -0.3038
 7015TIP3    H242537   4.725   6.609  13.530  0.4596  0.7280  0.5828
 7016TIP3   OH242538   3.887   0.477  16.760 -0.8930 -0.1966  0.1741
 7016TIP3    H142539   3.825   0.519  16.820  0.1373 -0.3791  1.3943
 7016TIP3    H242540   3.889   0.386  16.788  0.9350  0.0838  1.0599
 7017TIP3   OH242541   2.073   6.117   2.342 -0.5334  0.2507 -0.0307
 7017TIP3    H142542   2.151   6.161   2.310 -0.7279  1.2145  0.7743
 7017TIP3    H242543   2.009   6.126   2.271  0.2926 -1.1986 -1.0003
 7018TIP3   OH242544   1.938   1.773  12.403  0.1000  0.2143  0.0242
 7018TIP3    H142545   1.853   1.810  12.381  0.8399  0.9451 -1.7480
 7018TIP3    H242546   1.918   1.684  12.433 -1.2436  0.1973 -0.8272
 7019TIP3   OH242547   5.266   5.017   3.271  0.6551  0.3559  0.4916
 7019TIP3    H142548   5.325   4.976   3.207  0.8481 -0.5040  1.2026
 7019TIP3    H242549   5.210   5.075   3.219 -0.9409 -2.2328 -0.8701
 7020TIP3   OH242550   3.751   2.255   2.660  0.6022 -0.1732  0.0809
 7020TIP3    H142551   3.815   2.265   2.730 -0.7290  1.6294  1.1269
 7020TIP3    H242552   3.702   2.176   2.682  1.0554 -0.3572  0.4354
 7021TIP3   OH242553   3.858   6.696  11.761  0.1071  0.3624 -0.0929
 7021TIP3    H142554   3.896   6.781  11.784  0.1768  0.5751 -0.9682
 7021TIP3    H242555   3.898   6.674  11.677 -0.5125 -0.1593 -0.2561
 7022TIP3   OH242556   5.470   6.270  12.515  0.0956  0.3942  0.0258
 7022TIP3    H142557   5.539   6.307  12.460  0.4166 -0.7921 -0.4076
 7022TIP3    H242558   5.395   6.259  12.455  0.2805 -0.4253 -0.0686
 7023TIP3   OH242559   6.618   0.344   1.295 -0.4088  0.3577  0.3438
 7023TIP3    H142560   6.707   0.324   1.267 -0.4331 -0.8785  1.0486
 7023TIP3    H242561   6.624   0.346   1.391 -1.2036 -0.1794  0.4158
 7024TIP3   OH242562   1.253   6.111   6.102  0.0314  0.6765  0.5242
 7024TIP3    H142563   1.174   6.058   6.093 -0.1517  1.1359 -0.8879
 7024TIP3    H242564   1.321   6.050   6.128 -0.4184 -0.0476  0.0266
 7025TIP3   OH242565   0.825   1.984   3.408  0.0953 -0.5097 -0.0248
 7025TIP3    H142566   0.786   1.909   3.364  0.0317  0.6691 -2.1276
 7025TIP3    H242567   0.786   2.060   3.365  0.6308  0.7573  1.5898
 7026TIP3   OH242568   6.242   2.518   4.966  1.2586  0.0305 -0.0171
 7026TIP3    H142569   6.200   2.603   4.969 -1.5967 -1.2785  0.3296
 7026TIP3    H242570   6.226   2.485   4.878 -0.7157 -1.4610  0.8086
 7027TIP3   OH242571   1.268   2.412   2.149 -0.3508  0.1783  0.7246
 7027TIP3    H142572   1.357   2.383   2.169 -0.1520  0.1221 -0.2327
 7027TIP3    H242573   1.276   2.459   2.066 -1.1157  0.6844  0.9307
 7028TIP3   OH242574   0.197   5.519  10.690 -0.3330  0.5492 -0.7274
 7028TIP3    H142575   0.285   5.556  10.690 -0.2631  0.5940  1.7203
 7028TIP3    H242576   0.203   5.441  10.746 -1.6206 -0.0490 -1.3827
 7029TIP3   OH242577   6.770   2.498  14.958  0.4646  0.7266  0.0831
 7029TIP3    H142578   6.770   2.521  14.865  0.5843  0.9477  0.1372
 7029TIP3    H242579   6.677   2.492  14.981  0.3660 -2.1225 -0.7264
 7030TIP3   OH242580   3.416   2.774  16.432  0.3126 -0.5690 -0.5097
 7030TIP3    H142581   3.382   2.754  16.519 -0.4107 -0.4999 -0.7694
 7030TIP3    H242582   3.492   2.830  16.448 -1.3799  1.7156  0.0113
 7031TIP3   OH242583   2.361   5.586   3.167 -0.0712  0.3867 -0.1715
 7031TIP3    H142584   2.322   5.668   3.135 -1.5598  0.1664  0.9926
 7031TIP3    H242585   2.352   5.590   3.262 -0.4721 -1.2734 -0.1053
 7032TIP3   OH242586   5.213   5.264   2.437  0.0042  0.0451 -0.0454
 7032TIP3    H142587   5.207   5.169   2.439 -2.0143  0.1270  2.0663
 7032TIP3    H242588   5.213   5.287   2.344 -2.1568 -1.9354 -0.6251
 7033TIP3   OH242589   0.170   6.701  16.438 -0.0150 -0.4356 -0.0013
 7033TIP3    H142590   0.206   6.614  16.453  0.4874 -0.4879 -1.3128
 7033TIP3    H242591   0.093   6.706  16.494  0.5337 -1.3315  0.8606
 7034TIP3   OH242592   1.060   0.510  15.795 -0.0373 -0.1899 -0.5068
 7034TIP3    H142593   1.029   0.600  15.800 -0.2870 -0.3298  0.6784
 7034TIP3    H242594   1.085   0.499  15.703  2.5175  1.8883 -0.1660
 7035TIP3   OH242595   2.315   3.274   3.684 -0.4339  0.2094 -0.1088
 7035TIP3    H142596   2.339   3.229   3.603 -0.4806 -0.1122  0.0550
 7035TIP3    H242597   2.261   3.348   3.655 -3.4350 -1.8180 -0.2333
 7036TIP3   OH242598   2.343   1.179   2.464 -0.1681  0.8848 -0.0002
 7036TIP3    H142599   2.437   1.193   2.478 -0.2327 -0.7406  2.5406
 7036TIP3    H242600   2.301   1.245   2.519 -0.6105  1.8769 -1.4368
 7037TIP3   OH242601   3.287   4.076  15.335 -0.7709 -0.4031 -0.2413
 7037TIP3    H142602   3.195   4.052  15.346 -0.6170 -0.5650  0.8284
 7037TIP3    H242603   3.327   4.000  15.294 -1.0631 -0.4289 -0.4804
 7038TIP3   OH242604   2.778   3.998  13.020  0.0104  0.1377 -0.8604
 7038TIP3    H142605   2.842   3.975  12.953  0.8920 -0.5440  0.1797
 7038TIP3    H242606   2.827   3.997  13.102 -1.3335 -0.4293 -0.0234
 7039TIP3   OH242607   3.895   0.415  11.124  0.5643  0.6719 -0.0558
 7039TIP3    H142608   3.948   0.385  11.051  0.1176  3.1702 -1.5098
 7039TIP3    H242609   3.811   0.371  11.112 -0.1030  2.3362 -2.1722
 7040TIP3   OH242610   1.489   4.692  13.647  0.0214  0.4757 -0.2189
 7040TIP3    H142611   1.560   4.731  13.698 -0.3097 -0.8711  1.3527
 7040TIP3    H242612   1.499   4.730  13.559  1.8513  1.3277  0.3052
 7041TIP3   OH242613   2.544   0.472   5.479 -0.0300  0.2601  0.1539
 7041TIP3    H142614   2.532   0.427   5.563  0.7262 -1.9530 -0.8549
 7041TIP3    H242615   2.471   0.533   5.474  0.1641  0.7961  2.6108
 7042TIP3   OH242616   1.506   5.811  16.140  0.0269 -0.1286 -0.2114
 7042TIP3    H142617   1.450   5.846  16.071  1.3338  0.4283 -1.0243
 7042TIP3    H242618   1.524   5.721  16.113  0.1856 -0.0491 -0.3728
 7043TIP3   OH242619   0.765   1.678  13.403 -0.0508  0.1389  0.0253
 7043TIP3    H142620   0.751   1.584  13.393  2.4593 -0.1989 -1.1199
 7043TIP3    H242621   0.706   1.704  13.473  0.0395 -2.5399  1.2143
 7044TIP3   OH242622   0.883   1.991   5.524  0.4331  0.3737  0.3959
 7044TIP3    H142623   0.931   1.975   5.442  3.3961 -0.8016  2.1712
 7044TIP3    H242624   0.813   1.926   5.524  0.5100  0.2607 -1.0821
 7045TIP3   OH242625   0.720   1.694  15.885  0.1762  0.2164  0.4256
 7045TIP3    H142626   0.782   1.750  15.933  0.8617  0.1823 -0.4045
 7045TIP3    H242627   0.687   1.750  15.815  0.7514 -0.3584 -0.3188
 7046TIP3   OH242628   3.512   4.494  16.720 -0.2811  0.0836 -0.0574
 7046TIP3    H142629   3.600   4.472  16.750 -1.0822 -0.0464  2.4377
 7046TIP3    H242630   3.474   4.411  16.693  0.0269 -0.0112 -0.2061
 7047TIP3   OH242631   6.656   5.118   5.908  0.6477  0.3909  0.4084
 7047TIP3    H142632   6.731   5.058   5.898  0.1541 -0.1666 -0.0527
 7047TIP3    H242633   6.661   5.175   5.831 -0.1368 -0.4953 -0.3259
 7048TIP3   OH242634   3.712   5.083   5.143  0.3360  0.1550  0.2101
 7048TIP3    H142635   3.792   5.052   5.186 -0.7513 -0.8516  1.5841
 7048TIP3    H242636   3.742   5.153   5.085  2.1152  0.3373  1.2748
 7049TIP3   OH242637   0.819   4.654  15.196  0.8408 -0.6745  0.4883
 7049TIP3    H142638   0.868   4.734  15.213 -0.3270  0.1409  0.2140
 7049TIP3    H242639   0.833   4.637  15.103 -0.9239  0.7128 -0.1059
 7050TIP3   OH242640   6.810   3.667  15.317 -0.1412 -0.8064 -0.3748
 7050TIP3    H142641   6.842   3.597  15.260  1.6113 -0.3904  0.0210
 7050TIP3    H242642   6.847   3.645  15.403  0.3561  0.5402 -0.2279
 7051TIP3   OH242643   4.023   4.976   2.442 -0.4241  0.5276  0.2372
 7051TIP3    H142644   4.044   4.982   2.535 -1.6943 -1.5584  0.7233
 7051TIP3    H242645   4.076   4.904   2.409  1.3565  2.3470 -1.1541
 7052TIP3   OH242646   0.508   3.047   4.935  0.1456  0.0202 -0.2291
 7052TIP3    H142647   0.483   3.048   5.027  0.2829  0.5129 -0.1962
 7052TIP3    H242648   0.429   3.078   4.889  0.1021 -0.1536 -0.2742
 7053TIP3   OH242649   1.968   5.507  12.520  0.3117  0.3099  0.1482
 7053TIP3    H142650   2.013   5.451  12.583 -0.2101  1.2399  1.4074
 7053TIP3    H242651   1.897   5.453  12.485  0.0456  0.0378  1.0633
 7054TIP3   OH242652   2.451   1.219  11.224  0.1088 -0.1280  0.5512
 7054TIP3    H142653   2.411   1.265  11.298 -1.2366 -1.0398  0.4407
 7054TIP3    H242654   2.377   1.197  11.167  1.1310  0.6256 -1.1273
 7055TIP3   OH242655   5.860   3.009  16.126 -0.6624  0.2601 -0.4928
 7055TIP3    H142656   5.833   2.924  16.092 -0.7191 -0.1972  0.6306
 7055TIP3    H242657   5.908   2.989  16.206 -0.5955  1.2836 -0.2524
 7056TIP3   OH242658   2.242   1.776   5.606 -0.2031 -0.1736 -0.1454
 7056TIP3    H142659   2.152   1.746   5.614 -0.4668  0.6480  0.0182
 7056TIP3    H242660   2.235   1.864   5.568  0.5510 -0.2860 -0.5675
 7057TIP3   OH242661   4.821   0.438  11.517  0.1331  0.1047  0.4674
 7057TIP3    H142662   4.876   0.414  11.442  0.4738  0.8456  0.4703
 7057TIP3    H242663   4.732   0.418  11.488  0.4658 -2.1809  0.8810
 7058TIP3   OH242664   4.192   4.524  15.053  0.6875 -0.4823 -0.7949
 7058TIP3    H142665   4.103   4.519  15.088  1.9592  0.2102  3.0956
 7058TIP3    H242666   4.215   4.617  15.060  1.3435 -0.4499 -2.9072
 7059TIP3   OH242667   0.142   3.671  16.279 -0.4798 -0.1480 -0.5297
 7059TIP3    H142668   0.236   3.679  16.268 -0.1201  3.6773  2.6676
 7059TIP3    H242669   0.104   3.724  16.209  0.1682  2.1123  0.7139
 7060TIP3   OH242670   2.731   2.719  13.366  0.4056 -0.3022  0.0611
 7060TIP3    H142671   2.805   2.722  13.427 -1.8481  0.6092  3.0147
 7060TIP3    H242672   2.742   2.637  13.319  2.6548 -0.7489  1.2006
 7061TIP3   OH242673   4.707   1.487   0.559 -0.2282  0.5751 -0.9884
 7061TIP3    H142674   4.791   1.491   0.604 -0.5698 -2.2790  0.0594
 7061TIP3    H242675   4.643   1.472   0.628 -1.0186 -1.7917 -2.1535
 7062TIP3   OH242676   5.795   4.467  16.930 -0.0051  0.4042 -0.4555
 7062TIP3    H142677   5.807   4.397  16.866 -1.3447 -0.1649 -0.1198
 7062TIP3    H242678   5.792   4.547  16.878  1.6927  0.2530 -0.8282
 7063TIP3   OH242679   4.571   5.176   6.105  0.4335  0.1940  0.2303
 7063TIP3    H142680   4.543   5.086   6.086  0.7320  0.5175 -1.9875
 7063TIP3    H242681   4.662   5.179   6.075  0.9357  0.8244  1.7443
 7064TIP3   OH242682   4.878   5.398   0.437  0.3326 -1.0634  0.5758
 7064TIP3    H142683   4.808   5.365   0.380  0.2709  0.2747 -0.1764
 7064TIP3    H242684   4.951   5.338   0.423 -0.1377 -1.5310  0.0981
 7065TIP3   OH242685   2.986   3.536  15.501  0.2808 -0.2741  0.2329
 7065TIP3    H142686   3.068   3.568  15.539  0.6667 -1.0248  0.0590
 7065TIP3    H242687   3.014   3.486  15.424 -0.4714  1.1132 -0.9948
 7066TIP3   OH242688   5.283   1.733   4.922 -0.3359  0.7600 -0.1112
 7066TIP3    H142689   5.376   1.740   4.900 -0.1633  0.4067  0.4726
 7066TIP3    H242690   5.241   1.701   4.842  0.1700  0.1711 -0.1511
 7067TIP3   OH242691   2.957   0.077  16.298 -0.0290 -0.0816 -0.1567
 7067TIP3    H142692   2.964   0.084  16.203  1.3008 -0.0866 -0.0714
 7067TIP3    H242693   2.954   0.168  16.328  4.2979  0.1700  0.0668
 7068TIP3   OH242694   2.279   1.962  12.474 -0.4564 -0.4119 -0.1373
 7068TIP3    H142695   2.215   1.994  12.411 -1.0205 -0.4694  0.3949
 7068TIP3    H242696   2.232   1.895  12.524 -0.8810  1.3584  2.0305
 7069TIP3   OH242697   1.140   4.860  13.175  0.6827 -0.1442 -0.6407
 7069TIP3    H142698   1.090   4.824  13.248 -0.6680  0.4330 -1.2580
 7069TIP3    H242699   1.224   4.886  13.214  0.0179  0.0902  0.6811
 7070TIP3   OH242700   0.138   6.618   4.622 -0.2673  0.1498  0.3756
 7070TIP3    H142701   0.064   6.608   4.562 -0.8440  2.1903  0.6999
 7070TIP3    H242702   0.215   6.612   4.566 -0.7206 -0.3091 -0.2125
 7071TIP3   OH242703   6.671   2.757   0.251 -0.2413 -0.3552  0.2099
 7071TIP3    H142704   6.714   2.823   0.305 -0.7412 -0.1371  0.3441
 7071TIP3    H242705   6.736   2.688   0.242 -0.0792 -0.3030  0.9219
 7072TIP3   OH242706   0.930   0.257   5.781 -0.6101  0.5164  0.0571
 7072TIP3    H142707   0.864   0.323   5.801 -1.5608 -0.1605 -0.7066
 7072TIP3    H242708   0.981   0.248   5.861 -1.3751  1.1501  0.6269
 7073TIP3   OH242709   2.630   3.554   0.168  0.7737  0.4178 -0.0623
 7073TIP3    H142710   2.576   3.569   0.245 -0.0596  0.8569 -0.7083
 7073TIP3    H242711   2.642   3.641   0.130  0.5744  0.1375 -0.8026
 7074TIP3   OH242712   2.132   3.020  11.845  0.2836 -0.5091 -0.2312
 7074TIP3    H142713   2.082   2.943  11.818  1.6870 -1.4655 -0.2359
 7074TIP3    H242714   2.208   3.020  11.786 -0.6236  1.9966 -1.5214
 7075TIP3   OH242715   0.353   1.589  10.430  0.5560  0.2463 -0.1226
 7075TIP3    H142716   0.311   1.596  10.516  1.0403  1.0073  0.0588
 7075TIP3    H242717   0.283   1.559  10.371 -0.2569  1.5347  0.1564
 7076TIP3   OH242718   2.481   0.816  12.082 -0.2051  0.8012 -0.4032
 7076TIP3    H142719   2.426   0.773  12.148 -0.3429 -0.9026 -1.5515
 7076TIP3    H242720   2.566   0.774  12.090  0.4815  2.2467  0.2295
 7077TIP3   OH242721   6.006   4.582   1.058  0.5334 -0.0840 -1.0311
 7077TIP3    H142722   5.921   4.618   1.083  0.4291  0.2142 -1.7874
 7077TIP3    H242723   5.994   4.555   0.966  0.3066 -2.8806 -0.2897
 7078TIP3   OH242724   6.259   4.509  16.240 -0.2130 -0.1523 -0.3321
 7078TIP3    H142725   6.333   4.454  16.215 -0.0613 -0.3462  0.4857
 7078TIP3    H242726   6.252   4.496  16.335 -0.4658  0.8870 -0.1980
 7079TIP3   OH242727   2.858   0.695  15.395 -0.2440  0.0178 -0.0530
 7079TIP3    H142728   2.845   0.688  15.301 -0.6582  0.7547 -0.0553
 7079TIP3    H242729   2.770   0.681  15.432 -0.3196  1.0034  0.1518
 7080TIP3   OH242730   6.236   5.859   1.899  0.1590 -0.0560 -0.1471
 7080TIP3    H142731   6.213   5.945   1.866 -3.2971 -1.3834 -1.6611
 7080TIP3    H242732   6.171   5.841   1.968  0.7410 -1.4975  0.0752
 7081TIP3   OH242733   2.886   3.732   0.734  1.2977  0.0103 -1.2833
 7081TIP3    H142734   2.925   3.665   0.789  1.0066  0.6645 -0.2567
 7081TIP3    H242735   2.908   3.705   0.645  1.4207 -1.2881 -0.8860
 7082TIP3   OH242736   2.176   5.571   2.844 -0.0497  0.1129  0.1125
 7082TIP3    H142737   2.207   5.480   2.834  1.4886  0.5647  0.4104
 7082TIP3    H242738   2.184   5.609   2.756 -1.9309 -0.3600 -0.3091
 7083TIP3   OH242739   0.979   3.112   0.198 -0.3036  0.3184 -0.0768
 7083TIP3    H142740   0.891   3.138   0.171 -0.8006 -1.6610 -0.5438
 7083TIP3    H242741   1.033   3.190   0.184 -2.0549  1.7619  0.7404
 7084TIP3   OH242742   1.691   3.918  14.416  0.0008  0.5427  0.2371
 7084TIP3    H142743   1.702   3.888  14.325  1.4755 -0.7433  0.7925
 7084TIP3    H242744   1.599   3.902  14.436 -0.2305  0.3948 -0.8757
 7085TIP3   OH242745   0.003   0.182  11.099  0.0312 -0.1102  0.2834
 7085TIP3    H142746  -0.063   0.242  11.134 -0.6480 -0.7480  0.0960
 7085TIP3    H242747  -0.017   0.098  11.139  2.2951  0.1861  2.2726
 7086TIP3   OH242748   6.414   3.049  11.280 -0.2095  0.1727 -0.8628
 7086TIP3    H142749   6.333   3.053  11.229 -0.4814 -0.3462 -0.4796
 7086TIP3    H242750   6.387   3.066  11.370  0.3059  1.3422 -0.9081
 7087TIP3   OH242751   0.596   4.740  14.366  0.0618 -0.1104 -0.5892
 7087TIP3    H142752   0.558   4.665  14.321  1.0116 -0.2492 -1.1855
 7087TIP3    H242753   0.522   4.797  14.385 -0.6413 -1.0902 -0.3235
 7088TIP3   OH242754   1.019   6.570  12.634  0.5048  0.7042  0.0787
 7088TIP3    H142755   1.090   6.513  12.662 -0.4574 -1.2996 -1.3147
 7088TIP3    H242756   0.954   6.565  12.704 -0.2382 -1.2246 -0.6879
 7089TIP3   OH242757   6.116   2.757   2.826  0.7294  0.5887 -0.0291
 7089TIP3    H142758   6.168   2.677   2.830 -0.9822 -0.5515  0.6554
 7089TIP3    H242759   6.026   2.728   2.842  0.2643  2.8845  2.1079
 7090TIP3   OH242760   6.274   1.337   1.895  0.5442 -0.7861 -0.2705
 7090TIP3    H142761   6.293   1.411   1.953  0.2610 -0.4641 -0.5841
 7090TIP3    H242762   6.293   1.260   1.948  3.8266 -0.5376 -0.8815
 7091TIP3   OH242763   0.995   2.164  12.932  0.0138  0.4051  0.0745
 7091TIP3    H142764   0.920   2.152  12.990 -0.5797 -0.6094 -0.8663
 7091TIP3    H242765   1.064   2.198  12.989 -1.3325  2.0054  0.8251
 7092TIP3   OH242766   2.241   2.115   3.895  0.0064 -0.0690 -0.1771
 7092TIP3    H142767   2.234   2.023   3.919 -0.2710  0.2032  0.8493
 7092TIP3    H242768   2.214   2.162   3.974  0.7278  0.9003 -0.4896
 7093TIP3   OH242769   4.490   1.056  10.938  0.2784 -0.2103  0.1945
 7093TIP3    H142770   4.559   0.995  10.965  0.2974 -0.4670 -0.4272
 7093TIP3    H242771   4.453   1.017  10.859 -1.5822 -0.8699  1.3063
 7094TIP3   OH242772   5.758   5.151   5.530 -0.6229 -0.2209  0.0675
 7094TIP3    H142773   5.699   5.187   5.596  0.1954 -0.7947  1.1540
 7094TIP3    H242774   5.766   5.058   5.552 -1.3949 -0.7443 -1.6865
 7095TIP3   OH242775   4.770   0.821  12.657 -0.0604 -0.3153 -0.1150
 7095TIP3    H142776   4.836   0.761  12.622 -0.5425 -0.6096 -0.5242
 7095TIP3    H242777   4.725   0.855  12.580  0.3309  0.7317  0.0937
 7096TIP3   OH242778   2.899   0.785   1.215 -0.5692 -0.2479 -0.4793
 7096TIP3    H142779   2.992   0.770   1.200 -0.3912  1.2728 -1.0282
 7096TIP3    H242780   2.890   0.783   1.310  0.7319  3.1534 -0.1672
 7097TIP3   OH242781   3.562   6.652   2.873  0.5441 -0.8146  0.1285
 7097TIP3    H142782   3.469   6.633   2.875  0.0691  1.3184  1.1986
 7097TIP3    H242783   3.580   6.692   2.958  2.4939 -1.3426  0.0165
 7098TIP3   OH242784   0.152   5.796  16.216  0.2113  0.3569 -0.4095
 7098TIP3    H142785   0.228   5.739  16.234 -1.0608 -2.6854 -3.6020
 7098TIP3    H242786   0.191   5.878  16.185  2.4198 -1.6176 -3.4600
 7099TIP3   OH242787   5.933   4.754  16.957 -0.5611 -0.1663  0.3198
 7099TIP3    H142788   5.949   4.667  16.992 -0.1284 -0.4076 -0.4547
 7099TIP3    H242789   5.912   4.740  16.864 -0.3207  0.5618  0.1443
 7100TIP3   OH242790   3.153   4.882   5.921 -0.1282  0.3444  0.0177
 7100TIP3    H142791   3.122   4.963   5.879 -0.1898  0.3285  0.0332
 7100TIP3    H242792   3.208   4.912   5.993 -1.3994  0.3905  0.9956
 7101TIP3   OH242793   3.552   0.072  15.947 -0.0647  0.1075  0.3252
 7101TIP3    H142794   3.559   0.160  15.984  1.8923  1.0026 -1.9666
 7101TIP3    H242795   3.626   0.024  15.984  1.1430  0.6264 -1.3177
 7102TIP3   OH242796   4.845   2.924  15.147  0.1711 -0.5446 -0.3252
 7102TIP3    H142797   4.842   2.881  15.232  1.0192  0.2127  0.1039
 7102TIP3    H242798   4.918   2.882  15.101  0.5998 -0.0156 -0.1426
 7103TIP3   OH242799   0.214   1.490  12.648  0.4273 -0.4669 -0.3574
 7103TIP3    H142800   0.281   1.533  12.596  0.2327  0.8958  0.4616
 7103TIP3    H242801   0.203   1.546  12.725  0.5031 -2.2551  1.0251
 7104TIP3   OH242802   6.239   1.030  17.057 -0.2946 -0.0948 -0.2990
 7104TIP3    H142803   6.188   0.963  17.011 -1.7858  0.5729  0.3036
 7104TIP3    H242804   6.323   1.032  17.012 -1.4230  0.0430 -2.5340
 7105TIP3   OH242805   1.188   5.769   5.243  0.2944  0.5615 -0.2729
 7105TIP3    H142806   1.235   5.778   5.327  0.5705 -1.5963 -0.1427
 7105TIP3    H242807   1.100   5.802   5.262  0.6208  0.9822  0.5981
 7106TIP3   OH242808   5.114   6.630   0.598 -0.4168 -0.0753 -0.3330
 7106TIP3    H142809   5.073   6.557   0.552 -2.7599 -0.2795  1.8950
 7106TIP3    H242810   5.179   6.589   0.655  0.9278 -0.0046 -1.7356
 7107TIP3   OH242811   4.019   3.453   3.631  0.2135  0.3708 -0.1073
 7107TIP3    H142812   4.042   3.522   3.569 -1.0563  0.6818 -0.2588
 7107TIP3    H242813   4.092   3.453   3.694  1.3681  0.2593 -1.3844
 7108TIP3   OH242814   3.880   6.360  14.313 -0.0756  0.0832  0.4168
 7108TIP3    H142815   3.936   6.283  14.305 -0.5902 -0.4476  1.6530
 7108TIP3    H242816   3.821   6.354  14.238  0.7256  0.0064 -0.2282
 7109TIP3   OH242817   2.135   4.884  16.520  0.0102  0.0820 -0.0994
 7109TIP3    H142818   2.178   4.960  16.559  1.0095 -0.2436 -0.5197
 7109TIP3    H242819   2.198   4.851  16.456 -1.7164  0.8147 -2.2964
 7110TIP3   OH242820   2.645   6.723   2.363  0.2728 -0.1696  0.2010
 7110TIP3    H142821   2.619   6.710   2.454  0.5575  0.2431  0.3399
 7110TIP3    H242822   2.629   6.638   2.322 -1.8628  0.1913  0.1460
 7111TIP3   OH242823   4.421   5.612  11.321 -0.6193 -0.2082 -0.3464
 7111TIP3    H142824   4.376   5.583  11.401 -0.5559 -1.1854 -0.6573
 7111TIP3    H242825   4.366   5.579  11.250  0.1193 -0.6437 -0.7199
 7112TIP3   OH242826   2.661   3.188  15.186 -0.2385  0.0238  0.2691
 7112TIP3    H142827   2.640   3.260  15.245 -0.0032 -0.9729  1.6074
 7112TIP3    H242828   2.584   3.131  15.191 -0.4828  0.2255 -0.8919
 7113TIP3   OH242829   4.550   6.485  12.961  0.3746 -0.0847 -0.4706
 7113TIP3    H142830   4.578   6.575  12.976 -0.3187  0.0397  0.0790
 7113TIP3    H242831   4.490   6.465  13.033  1.9713 -1.6235  0.5366
 7114TIP3   OH242832   2.582   2.347  13.593  0.2676  0.5141 -0.3501
 7114TIP3    H142833   2.677   2.341  13.591  0.4465  1.2021  2.3578
 7114TIP3    H242834   2.554   2.319  13.506  2.8663 -0.5979 -0.9044
 7115TIP3   OH242835   0.732   6.326  13.456  0.3364  0.2613  0.2246
 7115TIP3    H142836   0.748   6.251  13.514  4.0999 -0.3148 -1.2999
 7115TIP3    H242837   0.753   6.402  13.509 -1.1565  0.1418  1.0464
 7116TIP3   OH242838   4.032   1.917  11.269  0.7496  0.0423 -0.3267
 7116TIP3    H142839   4.098   1.853  11.241 -0.0583 -1.0764  0.2322
 7116TIP3    H242840   4.049   1.928  11.363 -0.5489 -1.1284  0.0705
 7117TIP3   OH242841   0.576   6.310  12.956  0.0957 -0.7460  0.3454
 7117TIP3    H142842   0.627   6.380  12.997 -0.7918 -0.4666  1.0146
 7117TIP3    H242843   0.487   6.346  12.951  0.1950 -0.6764 -2.0597
 7118TIP3   OH242844   6.587   2.683  17.084  0.5243  0.4870  0.8400
 7118TIP3    H142845   6.534   2.732  17.023  0.2472  0.6681  1.2222
 7118TIP3    H242846   6.665   2.737  17.098  0.2163  0.8282  1.2657
 7119TIP3   OH242847   2.589   3.316   3.288  0.2189 -0.6228  0.2333
 7119TIP3    H142848   2.512   3.288   3.338 -0.5294 -0.2643 -0.6896
 7119TIP3    H242849   2.584   3.264   3.207 -0.2834  0.9595 -0.7865
 7120TIP3   OH242850   2.435   5.142  11.508 -0.0367  0.0167  0.1812
 7120TIP3    H142851   2.529   5.121  11.511 -0.3031 -2.0025 -2.0924
 7120TIP3    H242852   2.394   5.061  11.477 -2.5479  0.8826  1.0295
 7121TIP3   OH242853   4.953   1.652  12.215 -0.2560  0.0436 -0.5480
 7121TIP3    H142854   4.973   1.690  12.129 -1.3197  1.6195 -0.1242
 7121TIP3    H242855   4.904   1.572  12.194 -0.2383  0.2511 -1.4281
 7122TIP3   OH242856   3.385   4.131   4.656  0.3677 -0.2180 -0.4423
 7122TIP3    H142857   3.321   4.147   4.726 -0.3974  1.2225 -1.4180
 7122TIP3    H242858   3.447   4.069   4.694 -1.4149 -1.4294  0.6533
 7123TIP3   OH242859   2.617   2.770  12.333  0.2289 -0.5988  0.5069
 7123TIP3    H142860   2.592   2.679  12.312  0.2932 -0.4123 -0.4258
 7123TIP3    H242861   2.572   2.823  12.267 -0.8532  0.1770  1.8197
 7124TIP3   OH242862   3.116   4.775  13.916  0.1574  0.3432 -0.0313
 7124TIP3    H142863   3.209   4.793  13.905 -0.0260  1.4083  0.0519
 7124TIP3    H242864   3.075   4.861  13.922 -0.8456 -0.1059 -0.1400
 7125TIP3   OH242865   2.494   0.157  12.504 -0.1717  0.5646  0.3190
 7125TIP3    H142866   2.430   0.222  12.475 -0.0209  0.8208  0.5497
 7125TIP3    H242867   2.577   0.190  12.470 -0.0645  0.6056  0.6147
 7126TIP3   OH242868   2.415   2.577   3.760 -0.1772 -0.2010 -0.3739
 7126TIP3    H142869   2.428   2.541   3.673  1.5850 -1.8871  0.5158
 7126TIP3    H242870   2.426   2.502   3.819  1.7990  1.4171  1.4662
 7127TIP3   OH242871   0.268   3.682  12.459 -0.2649 -0.1183  0.3791
 7127TIP3    H142872   0.326   3.613  12.426 -1.0351 -1.4301  1.6010
 7127TIP3    H242873   0.187   3.636  12.481 -0.2561  0.8548  2.7560
 7128TIP3   OH242874   5.163   0.091   5.178 -0.2248  0.4837 -0.1106
 7128TIP3    H142875   5.102   0.017   5.180  0.9722 -0.6428 -1.9946
 7128TIP3    H242876   5.119   0.158   5.125 -0.4030  0.2091 -0.3109
 7129TIP3   OH242877   2.933   5.656  11.832  0.2370  0.2346 -0.1376
 7129TIP3    H142878   2.994   5.702  11.889  0.9209 -1.3900  0.5022
 7129TIP3    H242879   2.846   5.682  11.863  0.5639 -1.1242  2.1791
 7130TIP3   OH242880   4.499   0.481   0.490  0.1678  0.2440 -0.1475
 7130TIP3    H142881   4.591   0.461   0.473 -0.0961 -0.4490 -0.8760
 7130TIP3    H242882   4.455   0.396   0.484 -0.7226  0.7536 -1.2957
 7131TIP3   OH242883   5.017   5.634  12.929 -0.2287  0.1242 -0.2529
 7131TIP3    H142884   4.936   5.590  12.904 -0.6045  1.1928 -1.0048
 7131TIP3    H242885   5.071   5.565  12.968 -1.9212 -0.3943  1.3234
 7132TIP3   OH242886   5.707   6.664   3.381  0.1538  0.0951 -0.7508
 7132TIP3    H142887   5.750   6.648   3.465 -1.5561 -2.1370 -0.1974
 7132TIP3    H242888   5.725   6.756   3.362  1.9712  0.2288  1.2276
 7133TIP3   OH242889   0.021   6.854   0.799  0.1162  0.1730  0.0659
 7133TIP3    H142890   0.115   6.841   0.807  0.1632  0.2201 -0.4131
 7133TIP3    H242891  -0.006   6.884   0.886  0.5806  0.4110  0.1337
 7134TIP3   OH242892   2.718   5.779  14.147  0.3069  0.5713 -0.7539
 7134TIP3    H142893   2.808   5.804  14.126  0.3738  1.1817  0.2031
 7134TIP3    H242894   2.686   5.735  14.068  0.6420  2.4845 -2.0241
 7135TIP3   OH242895   1.146   6.479   0.988 -0.8118  0.1996  0.3216
 7135TIP3    H142896   1.094   6.481   1.068 -1.9992 -1.4639 -0.3520
 7135TIP3    H242897   1.214   6.414   1.005 -0.7045  0.2747  0.1831
 7136TIP3   OH242898   1.799   6.623   1.837  0.4412 -0.7177 -0.4538
 7136TIP3    H142899   1.802   6.718   1.825 -0.9862 -0.3030  1.9984
 7136TIP3    H242900   1.858   6.606   1.910 -0.9872 -1.3861  0.5908
 7137TIP3   OH242901   3.354   4.568   4.313  0.6289  1.0239 -0.1263
 7137TIP3    H142902   3.409   4.506   4.361  0.5264  0.6337 -0.4996
 7137TIP3    H242903   3.382   4.559   4.222 -1.4520 -0.7832 -0.6980
 7138TIP3   OH242904   2.859   2.259  14.335  0.5922  0.3918  0.3964
 7138TIP3    H142905   2.800   2.184  14.332 -0.5952  1.1743  2.0941
 7138TIP3    H242906   2.882   2.276  14.244 -0.9020 -0.6340 -0.2076
 7139TIP3   OH242907   3.015   2.575  11.364  0.0438  0.0626 -0.2213
 7139TIP3    H142908   2.964   2.649  11.397  0.1184  0.3339 -0.7060
 7139TIP3    H242909   3.103   2.611  11.349  0.0638 -0.1133 -0.5194
 7140TIP3   OH242910   6.271   2.139   5.076  0.6455  0.7586 -0.1265
 7140TIP3    H142911   6.259   2.110   5.167  0.4271 -1.8771 -0.8997
 7140TIP3    H242912   6.195   2.194   5.058 -1.7021 -2.1833  0.0648
 7141TIP3   OH242913   3.500   1.058  11.491  0.6310  0.1024  0.0077
 7141TIP3    H142914   3.507   1.122  11.420  1.6912 -0.4212 -0.3760
 7141TIP3    H242915   3.432   0.997  11.462  0.5578  0.2989 -0.2381
 7142TIP3   OH242916   4.122   5.295   0.825  0.2846 -0.4161 -0.0501
 7142TIP3    H142917   4.096   5.340   0.906 -0.7427  1.9367 -1.5743
 7142TIP3    H242918   4.217   5.284   0.834  0.6983  2.5068  0.3126
 7143TIP3   OH242919   3.341   3.581   4.276  0.4385  0.1429  0.2792
 7143TIP3    H142920   3.383   3.496   4.276  0.6073  0.2128 -1.0439
 7143TIP3    H242921   3.287   3.581   4.356  0.0414 -1.3837  0.0456
 7144TIP3   OH242922   5.267   3.456   2.920  0.0728  0.5228 -1.3133
 7144TIP3    H142923   5.201   3.405   2.872  0.5780  0.7337 -2.2581
 7144TIP3    H242924   5.261   3.424   3.010  0.3984 -1.2315 -1.8855
 7145TIP3   OH242925   6.204   1.457   4.788  0.2296 -0.1401 -0.2011
 7145TIP3    H142926   6.205   1.499   4.874  0.3182  0.5928 -0.5542
 7145TIP3    H242927   6.118   1.479   4.752  0.5199  0.2716 -0.6477
 7146TIP3   OH242928   1.625   1.074   4.885 -0.7402 -0.0205  0.1111
 7146TIP3    H142929   1.613   1.024   4.804  0.6461 -0.0186 -0.1237
 7146TIP3    H242930   1.651   1.010   4.950  0.0922  0.2324  0.0473
 7147TIP3   OH242931   3.106   6.362   0.759 -0.5393  0.1062 -0.2666
 7147TIP3    H142932   3.104   6.284   0.814  1.6231 -1.1051 -1.7540
 7147TIP3    H242933   3.166   6.422   0.804  1.3780 -0.9569 -1.2837
 7148TIP3   OH242934   2.511   5.577  16.637 -0.5311 -0.6083 -0.2230
 7148TIP3    H142935   2.542   5.556  16.548 -1.0994 -0.8967 -0.3605
 7148TIP3    H242936   2.425   5.617  16.623 -0.5539 -0.5149  0.1908
 7149TIP3   OH242937   0.475   0.358   2.157  0.5309  0.4396 -0.0254
 7149TIP3    H142938   0.481   0.350   2.252  0.9783 -0.0910 -0.0959
 7149TIP3    H242939   0.510   0.275   2.123 -0.7213  0.1290 -0.6215
 7150TIP3   OH242940   4.211   1.344   4.512  0.0150  0.2899  0.4446
 7150TIP3    H142941   4.151   1.391   4.571 -0.4133  0.0834  0.1818
 7150TIP3    H242942   4.296   1.351   4.554 -0.1780  0.6655  0.7849
 7151TIP3   OH242943   2.473   3.170  11.456  0.2287  0.3760 -0.0013
 7151TIP3    H142944   2.547   3.109  11.451  1.2128  1.5846 -4.1751
 7151TIP3    H242945   2.411   3.138  11.390  0.8711  3.7904 -2.5037
 7152TIP3   OH242946   2.842   3.789  12.019 -0.2444 -0.3746 -0.0756
 7152TIP3    H142947   2.820   3.698  12.040 -0.4632 -0.3147 -0.0488
 7152TIP3    H242948   2.869   3.787  11.927 -0.9335 -0.3432 -0.2765
 7153TIP3   OH242949   3.629   4.494  12.334  0.6200 -0.1139  0.2956
 7153TIP3    H142950   3.663   4.515  12.247  2.1313  0.6531  1.0413
 7153TIP3    H242951   3.659   4.566  12.390 -0.8539 -0.2683  1.3466
 7154TIP3   OH242952   6.339   6.743   0.694 -0.5570  0.7583  0.3078
 7154TIP3    H142953   6.352   6.805   0.622 -1.3042 -0.1486 -0.6312
 7154TIP3    H242954   6.427   6.725   0.727  0.1078 -0.9192 -2.1873
 7155TIP3   OH242955   0.788   2.863  13.680  0.5815  0.2734 -0.2874
 7155TIP3    H142956   0.762   2.783  13.727 -0.0720  1.0462  0.7020
 7155TIP3    H242957   0.786   2.837  13.588 -1.0325 -0.4803 -0.0808
 7156TIP3   OH242958   4.601   1.275   3.157  0.4685  0.1311 -0.3737
 7156TIP3    H142959   4.622   1.350   3.214  1.2943 -1.0721  0.9823
 7156TIP3    H242960   4.685   1.251   3.118  0.2262 -0.1543 -0.7226
 7157TIP3   OH242961   2.408   6.581  11.612 -0.1964 -0.3565  0.2558
 7157TIP3    H142962   2.494   6.544  11.588  0.7304  0.9055  1.4499
 7157TIP3    H242963   2.426   6.674  11.629 -1.9473  0.0874 -0.1192
 7158TIP3   OH242964   3.267   6.200  14.011  0.1876  0.1449  0.4033
 7158TIP3    H142965   3.280   6.108  13.991 -0.6361  0.3886 -1.4890
 7158TIP3    H242966   3.216   6.233  13.937  0.8916  2.2331  0.7934
 7159TIP3   OH242967   1.982   1.594   0.469  0.4124  0.3167  0.1300
 7159TIP3    H142968   1.893   1.617   0.495 -0.5420 -2.0643 -0.7178
 7159TIP3    H242969   1.978   1.500   0.449  2.6442  0.5394 -1.8560
 7160TIP3   OH242970   3.540   2.492  16.025  0.3892  0.5261 -0.4009
 7160TIP3    H142971   3.522   2.527  15.937  0.0649  0.9255 -0.1770
 7160TIP3    H242972   3.517   2.563  16.084 -0.9316 -0.3039  0.0993
 7161TIP3   OH242973   5.504   5.137  14.704 -0.5703 -0.3439  0.3866
 7161TIP3    H142974   5.420   5.097  14.724 -0.8644  0.1018  0.0517
 7161TIP3    H242975   5.555   5.128  14.785 -1.4303  0.6105  1.0617
 7162TIP3   OH242976   6.301   4.078   0.453  0.0855  0.0433  0.8314
 7162TIP3    H142977   6.358   4.051   0.381 -0.2548  1.4444 -0.0055
 7162TIP3    H242978   6.230   4.127   0.411 -0.3046  0.6098  2.0805
 7163TIP3   OH242979   0.826   4.500  13.984  0.0799 -0.2756  0.1301
 7163TIP3    H142980   0.875   4.581  13.975 -1.8150  0.9830  0.5444
 7163TIP3    H242981   0.747   4.524  14.033  0.2036 -2.6919  1.7137
 7164TIP3   OH242982   5.951   1.851   2.325 -0.3371  0.0969 -0.0224
 7164TIP3    H142983   5.915   1.892   2.404 -1.9417 -0.8165 -0.2284
 7164TIP3    H242984   6.046   1.852   2.338 -0.5978 -1.2361  2.5526
 7165TIP3   OH242985   5.772   0.792   0.411  0.0917 -0.2404 -0.2725
 7165TIP3    H142986   5.826   0.855   0.365  0.2122 -1.1363 -1.4257
 7165TIP3    H242987   5.788   0.808   0.504  2.0688 -0.2519 -0.5746
 7166TIP3   OH242988   0.904   5.407  15.603 -0.2858  0.3159  0.2327
 7166TIP3    H142989   0.984   5.355  15.598 -0.4422 -0.0154  0.9640
 7166TIP3    H242990   0.880   5.404  15.696 -0.0269  2.1164  0.4022
 7167TIP3   OH242991   5.006   4.803   6.720 -0.0419 -0.1542  0.1283
 7167TIP3    H142992   4.933   4.743   6.734 -2.4115  2.1461 -1.4299
 7167TIP3    H242993   4.983   4.881   6.771  1.2147  0.6934 -0.5661
 7168TIP3   OH242994   6.244   2.893  11.916  0.2516 -0.5145 -0.7092
 7168TIP3    H142995   6.315   2.900  11.980  0.2386 -0.4674 -0.7002
 7168TIP3    H242996   6.216   2.801  11.922 -0.8191 -0.1565  0.5245
 7169TIP3   OH242997   5.794   1.441   5.486 -0.0951 -0.0467 -0.2519
 7169TIP3    H142998   5.763   1.530   5.472  0.9698  0.2512 -0.8022
 7169TIP3    H242999   5.855   1.425   5.415  1.6322 -0.3102  1.2080
 7170TIP3   OH243000   2.216   1.157  17.044  0.0530  0.2075 -0.0434
 7170TIP3    H143001   2.290   1.097  17.034 -0.4159 -0.3721 -0.0713
 7170TIP3    H243002   2.255   1.245  17.039  0.7811 -0.0934  0.2938
 7171TIP3   OH243003   0.515   4.515  16.881  0.5611  0.2699  0.1370
 7171TIP3    H143004   0.517   4.578  16.809  1.5203  0.3475  0.2262
 7171TIP3    H243005   0.563   4.439  16.848 -1.2840 -0.7895 -0.2773
 7172TIP3   OH243006   1.466   3.670   4.054 -0.0611  0.5146 -0.2506
 7172TIP3    H143007   1.495   3.725   3.981  0.1989 -0.3527 -0.8071
 7172TIP3    H243008   1.543   3.620   4.080 -0.7942 -1.1925 -1.1988
 7173TIP3   OH243009   6.354   3.155   5.527 -0.3197  0.4101 -0.2929
 7173TIP3    H143010   6.269   3.131   5.492 -0.9998  1.4080  0.6017
 7173TIP3    H243011   6.336   3.228   5.587  0.9186 -0.4948  1.2683
 7174TIP3   OH243012   6.266   4.205   1.050  0.0820  0.7623 -0.3309
 7174TIP3    H143013   6.190   4.257   1.026 -0.7091 -0.1491  0.1159
 7174TIP3    H243014   6.306   4.181   0.966  0.1592  1.6419 -0.5505
 7175TIP3   OH243015   0.429   6.560   3.576 -0.1585  0.2353  0.3185
 7175TIP3    H143016   0.478   6.639   3.555  0.4075  0.1302  1.1935
 7175TIP3    H243017   0.486   6.488   3.548 -1.1064  0.1101 -1.4457
 7176TIP3   OH243018   4.089   2.796   0.428  0.1958  0.1948 -0.2196
 7176TIP3    H143019   4.167   2.839   0.392  0.2631  0.7673  0.5909
 7176TIP3    H243020   4.108   2.786   0.521 -0.2395 -0.6981 -0.2204
 7177TIP3   OH243021   5.967   6.103  14.400 -0.0460  0.3671 -0.9272
 7177TIP3    H143022   5.954   6.089  14.494  1.9517  1.6776 -0.3876
 7177TIP3    H243023   6.018   6.027  14.371  0.6475  0.6876 -0.5854
 7178TIP3   OH243024   5.342   5.990   0.980  0.1262 -0.3965  0.0021
 7178TIP3    H143025   5.320   6.042   1.057 -0.6655 -1.9492  0.8730
 7178TIP3    H243026   5.430   5.957   0.998  1.1359  1.5105 -1.0870
 7179TIP3   OH243027   0.653   2.551   2.898  0.3323  0.5366  0.4002
 7179TIP3    H143028   0.655   2.597   2.814  0.7868  1.0497  0.6847
 7179TIP3    H243029   0.745   2.540   2.922  0.4738 -3.3811 -1.1703
 7180TIP3   OH243030   3.516   3.237  16.192 -0.0161  0.1328 -0.4390
 7180TIP3    H143031   3.582   3.250  16.124  1.0046  0.1245  0.5182
 7180TIP3    H243032   3.563   3.190  16.261 -1.1205 -0.1644  0.1269
 7181TIP3   OH243033   0.013   3.398   0.857  0.6050  0.4715  0.1015
 7181TIP3    H143034   0.057   3.442   0.929  1.1899 -1.5544  1.0445
 7181TIP3    H243035   0.063   3.318   0.842 -1.2335 -0.6465 -0.5242
 7182TIP3   OH243036   5.597   3.989   5.245 -0.1801  0.1523 -0.2196
 7182TIP3    H143037   5.504   3.964   5.251 -0.3615  1.0532  1.1049
 7182TIP3    H243038   5.597   4.066   5.188 -0.2394  0.1474 -0.2268
 7183TIP3   OH243039   4.243   0.443  12.777 -0.0794  0.7235  0.7573
 7183TIP3    H143040   4.176   0.511  12.771 -0.4177  0.2806 -0.7151
 7183TIP3    H243041   4.209   0.380  12.841 -0.9126  0.6690  0.2633
 7184TIP3   OH243042   3.468   4.529   2.860  0.0508 -0.7322 -0.3928
 7184TIP3    H143043   3.405   4.545   2.931  0.2075  0.8516 -0.5590
 7184TIP3    H243044   3.475   4.434   2.855 -1.7998 -0.9471  0.0996
 7185TIP3   OH243045   3.189   2.599  15.161  0.2958  0.2471 -0.0507
 7185TIP3    H143046   3.269   2.638  15.197  0.8815 -0.4884 -0.5376
 7185TIP3    H243047   3.214   2.510  15.138 -1.1240 -0.5840  1.4318
 7186TIP3   OH243048   2.062   6.122   1.600 -0.0020 -0.3147 -0.7858
 7186TIP3    H143049   2.080   6.106   1.507 -0.8718 -0.0233 -1.0150
 7186TIP3    H243050   2.025   6.040   1.632  3.7026 -1.8015  0.2931
 7187TIP3   OH243051   0.470   6.364   5.500  0.4296 -0.1209 -0.4565
 7187TIP3    H143052   0.510   6.443   5.466  0.3428  0.6967  1.2714
 7187TIP3    H243053   0.377   6.373   5.478 -0.1298  1.7245  2.2487
 7188TIP3   OH243054   5.957   2.749   1.687  0.3387  0.0285  0.2430
 7188TIP3    H143055   5.912   2.675   1.727 -2.1367 -0.9337 -3.7565
 7188TIP3    H243056   5.916   2.826   1.726 -1.8654 -0.8420 -0.2445
 7189TIP3   OH243057   5.347   1.277   0.989  0.4654 -0.0896  0.9470
 7189TIP3    H143058   5.292   1.204   1.018  1.9175 -0.9964  1.5693
 7189TIP3    H243059   5.304   1.355   1.024 -0.4493 -0.7561  1.3492
 7190TIP3   OH243060   5.843   6.006   3.830  0.4900  0.1555 -0.4767
 7190TIP3    H143061   5.808   5.994   3.918 -1.7407 -1.2166 -1.4697
 7190TIP3    H243062   5.818   6.095   3.805 -0.3893 -0.0611 -0.3662
 7191TIP3   OH243063   5.665   6.808  15.782 -0.7628 -0.2328  0.7524
 7191TIP3    H143064   5.609   6.886  15.776 -1.3463 -0.5791  1.4791
 7191TIP3    H243065   5.671   6.791  15.876 -0.2550 -0.7978  0.6217
 7192TIP3   OH243066   1.734   1.688   1.703  0.1618 -0.3123 -0.5405
 7192TIP3    H143067   1.733   1.653   1.614 -4.0705  0.8684 -1.1719
 7192TIP3    H243068   1.779   1.772   1.694  0.7061 -0.6674 -1.3159
 7193TIP3   OH243069   5.944   0.392   0.344 -0.1800 -0.1213 -0.4185
 7193TIP3    H143070   6.033   0.360   0.326 -0.4789 -1.9253  0.9638
 7193TIP3    H243071   5.956   0.467   0.402  0.4547 -0.0938 -0.5812
 7194TIP3   OH243072   5.607   1.305  11.646 -0.0473 -0.1687 -0.4542
 7194TIP3    H143073   5.665   1.377  11.671  0.4469 -1.0531  1.0683
 7194TIP3    H243074   5.519   1.338  11.668  0.0155  0.5282 -1.1904
 7195TIP3   OH243075   3.468   5.843   3.425 -0.7654 -0.0343  0.3757
 7195TIP3    H143076   3.440   5.906   3.491 -1.5018  1.2033 -1.0800
 7195TIP3    H243077   3.543   5.884   3.383 -0.0176 -1.0171  0.7141
 7196TIP3   OH243078   1.264   4.245   0.333 -0.1061  0.6502 -0.4245
 7196TIP3    H143079   1.293   4.253   0.424 -0.0535  0.0545 -0.3852
 7196TIP3    H243080   1.230   4.331   0.311  0.4475  0.9716 -0.0339
 7197TIP3   OH243081   2.246   0.938  10.581 -0.1633 -0.5767 -0.1939
 7197TIP3    H143082   2.249   0.844  10.602 -0.1080 -0.4553  0.3349
 7197TIP3    H243083   2.337   0.966  10.585 -0.3275 -0.1868  1.0749
 7198TIP3   OH243084   6.439   4.075   0.207 -0.5313 -0.0853  0.0359
 7198TIP3    H143085   6.457   4.167   0.227  1.1635 -0.2604 -0.5611
 7198TIP3    H243086   6.465   4.065   0.116  0.7290 -1.5110  0.5246
 7199TIP3   OH243087   0.782   0.688   5.695  0.2980 -0.0947 -0.7653
 7199TIP3    H143088   0.773   0.746   5.771 -0.4974 -1.2807  0.0819
 7199TIP3    H243089   0.871   0.651   5.704  0.4090  0.1821 -0.7145
 7200TIP3   OH243090   1.279   3.589  13.311  0.3541  0.3434 -0.0977
 7200TIP3    H143091   1.348   3.651  13.331 -0.5746  1.4760 -0.2938
 7200TIP3    H243092   1.300   3.511  13.363  2.6977 -0.0259 -1.4833
 7201TIP3   OH243093   6.396   4.766  15.774  0.1347 -0.3148 -0.0830
 7201TIP3    H143094   6.484   4.728  15.770  0.1592 -0.3024  0.3109
 7201TIP3    H243095   6.408   4.850  15.818 -0.1139 -0.4320  0.2106
 7202TIP3   OH243096   1.965   0.870  12.656 -0.0723 -0.3270  0.4953
 7202TIP3    H143097   2.005   0.865  12.569  2.2405  1.0921  1.3894
 7202TIP3    H243098   1.877   0.835  12.644  0.7674 -1.8328 -2.0179
 7203TIP3   OH243099   2.348   2.630   4.625 -0.0198 -1.0093  0.1961
 7203TIP3    H143100   2.298   2.708   4.599  1.2988 -0.4562 -0.8039
 7203TIP3    H243101   2.350   2.576   4.546  0.9868 -0.9989  0.2096
 7204TIP3   OH243102   0.205   2.547  11.598  0.1967 -0.6303  0.0384
 7204TIP3    H143103   0.153   2.596  11.662  0.2861 -1.0929  0.4745
 7204TIP3    H243104   0.147   2.475  11.572  0.1002 -0.3476 -0.5225
 7205TIP3   OH243105   6.848   4.076  12.692 -0.1636  0.1782  0.2491
 7205TIP3    H143106   6.895   4.049  12.770 -1.8444  0.5133  1.4320
 7205TIP3    H243107   6.889   4.026  12.621  1.9495  0.4996  1.1802
 7206TIP3   OH243108   1.300   1.666  12.431  0.4778 -0.2958  0.0204
 7206TIP3    H143109   1.211   1.690  12.403  0.7110  1.7450  0.8543
 7206TIP3    H243110   1.323   1.733  12.496  2.2487 -1.3821  0.5613
 7207TIP3   OH243111   6.803   5.821  15.374 -0.0643  0.4631  0.4575
 7207TIP3    H143112   6.831   5.735  15.405 -1.6660 -0.2165  0.1157
 7207TIP3    H243113   6.734   5.847  15.435 -2.0189 -0.1010 -1.3615
 7208TIP3   OH243114   4.564   3.494  11.011  0.5050 -0.0523  0.7834
 7208TIP3    H143115   4.474   3.466  10.994  0.7870 -0.5873  0.1790
 7208TIP3    H243116   4.560   3.590  11.005 -0.3758  0.0733  2.4762
 7209TIP3   OH243117   4.739   5.064   2.843 -0.3589 -0.0274  0.1433
 7209TIP3    H143118   4.785   5.143   2.815 -3.2600  1.1524 -1.7252
 7209TIP3    H243119   4.708   5.024   2.762 -0.3560 -2.2302  1.1701
 7210TIP3   OH243120   1.718   0.632   1.533  0.2201  0.5149 -0.3794
 7210TIP3    H143121   1.798   0.583   1.515  1.0164  1.0910  1.4145
 7210TIP3    H243122   1.740   0.723   1.517 -0.5310  0.5633 -1.2682
 7211TIP3   OH243123   4.600   1.386   4.106 -1.1416  0.2519 -0.3134
 7211TIP3    H143124   4.654   1.462   4.083  1.5202 -0.7543  2.0497
 7211TIP3    H243125   4.632   1.359   4.192 -2.8852 -2.8113 -0.4918
 7212TIP3   OH243126   5.244   3.288  16.248 -0.0105 -0.4266 -0.3423
 7212TIP3    H143127   5.182   3.232  16.295 -0.2271 -1.2473 -1.5539
 7212TIP3    H243128   5.192   3.363  16.221 -0.6227 -1.3157 -1.7303
 7213TIP3   OH243129   1.440   0.872  10.564 -0.3306 -0.1989  0.5693
 7213TIP3    H143130   1.360   0.918  10.538 -0.1566 -0.6718 -0.8504
 7213TIP3    H243131   1.506   0.942  10.574 -0.8201  0.1615  1.4755
 7214TIP3   OH243132   3.369   3.507   0.564 -0.4937  0.4417  0.4860
 7214TIP3    H143133   3.419   3.585   0.588 -1.4261  0.7428  1.5375
 7214TIP3    H243134   3.435   3.440   0.549  0.4030  1.7133 -1.6331
 7215TIP3   OH243135   6.003   4.282  16.238 -0.0485  0.4097 -0.1741
 7215TIP3    H143136   6.044   4.357  16.283 -0.6011  0.8778 -0.4297
 7215TIP3    H243137   5.910   4.306  16.233 -0.1086  0.0267 -0.9042
 7216TIP3   OH243138   2.486   3.583   3.122  0.0818  0.3014  0.4223
 7216TIP3    H143139   2.448   3.531   3.193 -1.2042 -0.1913 -0.5966
 7216TIP3    H243140   2.524   3.517   3.064  2.4798  0.7649  1.3425
 7217TIP3   OH243141   1.636   4.371  14.702 -0.2705  0.2199  0.1718
 7217TIP3    H143142   1.664   4.319  14.778 -2.7762 -0.2175  0.9176
 7217TIP3    H243143   1.642   4.310  14.629  0.2546  0.0133  0.3804
 7218TIP3   OH243144   3.504   1.654  14.857 -0.4940  0.1151 -0.5169
 7218TIP3    H143145   3.561   1.713  14.907  2.4744 -1.6484 -1.5819
 7218TIP3    H243146   3.532   1.566  14.882 -2.0145 -0.8274 -1.9524
 7219TIP3   OH243147   5.306   6.625  15.882 -0.6793  0.4502 -0.1473
 7219TIP3    H143148   5.312   6.612  15.787 -1.7252 -0.8774 -0.0485
 7219TIP3    H243149   5.220   6.665  15.895 -0.7363  0.1829  0.2903
 7220TIP3   OH243150   0.053   5.029  12.312  0.2642  0.2300  0.3188
 7220TIP3    H143151   0.113   5.056  12.242  0.2503  0.5498  0.4308
 7220TIP3    H243152   0.020   4.944  12.283  0.3913  0.2821  0.0164
 7221TIP3   OH243153   2.396   4.240   0.051 -0.3320 -0.1735  0.2801
 7221TIP3    H143154   2.400   4.262  -0.042 -1.0084 -1.9261 -0.2055
 7221TIP3    H243155   2.486   4.248   0.082 -0.0733  0.2470 -0.5574
 7222TIP3   OH243156   0.267   0.924  15.403  0.5369  0.9415  0.0737
 7222TIP3    H143157   0.328   0.896  15.335  1.1050  1.5712  0.3102
 7222TIP3    H243158   0.260   1.019  15.391 -2.8274  0.6103 -1.9527
 7223TIP3   OH243159   5.560   1.821   4.802  0.5058 -0.1989 -0.1355
 7223TIP3    H143160   5.637   1.877   4.814  0.7481 -0.7666  0.9779
 7223TIP3    H243161   5.493   1.881   4.769  1.6437  0.1392 -1.9835
 7224TIP3   OH243162   5.507   2.706   1.264  0.2359  0.4100  0.3116
 7224TIP3    H143163   5.537   2.756   1.340 -0.6296  2.7353 -0.7775
 7224TIP3    H243164   5.578   2.716   1.200  0.1433  0.0767  0.1593
 7225TIP3   OH243165   4.539   0.501   5.490  0.2326  0.5445  0.7931
 7225TIP3    H143166   4.606   0.484   5.555 -0.1140 -0.4036  0.9148
 7225TIP3    H243167   4.546   0.427   5.428 -0.6406  0.4723  0.7695
 7226TIP3   OH243168   1.007   3.699  15.537 -0.6284 -0.2526  0.0993
 7226TIP3    H143169   0.921   3.726  15.569 -0.1713 -0.4538  1.5826
 7226TIP3    H243170   1.065   3.708  15.613  0.4368 -1.1540 -0.5689
 7227TIP3   OH243171   1.013   4.469  12.080 -0.5415  0.0261  0.0290
 7227TIP3    H143172   0.954   4.505  12.015  1.2198  3.0781 -0.0631
 7227TIP3    H243173   1.009   4.530  12.154  1.6258 -0.2437  0.4453
 7228TIP3   OH243174   1.663   3.777  14.175 -0.4425 -0.0017 -0.0637
 7228TIP3    H143175   1.618   3.710  14.226  0.1390 -0.1368  0.2900
 7228TIP3    H243176   1.599   3.847  14.165 -1.3749 -0.9972 -1.2615
 7229TIP3   OH243177   0.991   4.219  14.264 -0.4910  0.4666  0.6569
 7229TIP3    H143178   0.970   4.220  14.357 -0.1824  1.4035  0.7267
 7229TIP3    H243179   0.936   4.149  14.228 -0.7315  0.2041  1.5080
 7230TIP3   OH243180   0.570   5.446   0.731  0.0470  0.0413 -0.0982
 7230TIP3    H143181   0.515   5.516   0.695 -1.2711 -0.8560  0.0978
 7230TIP3    H243182   0.516   5.405   0.798  1.9746  0.8424  2.0813
 7231TIP3   OH243183   0.371   2.926  11.514 -0.0320  0.4411  0.0814
 7231TIP3    H143184   0.285   2.949  11.478 -0.1801 -2.1630 -1.4031
 7231TIP3    H243185   0.351   2.871  11.590  0.3399  0.4607  0.1930
 7232TIP3   OH243186   0.715   0.075   5.700  0.0678  0.1859 -0.5318
 7232TIP3    H143187   0.773   0.151   5.707 -0.3526  0.3868  1.4488
 7232TIP3    H243188   0.637   0.099   5.751  0.2244 -1.8108  0.7716
 7233TIP3   OH243189   1.790   0.890  16.470  0.1404  0.2962 -0.2808
 7233TIP3    H143190   1.718   0.944  16.440  0.0469 -0.2393 -1.0318
 7233TIP3    H243191   1.765   0.865  16.560 -0.8452 -0.2813 -0.6990
 7234TIP3   OH243192   3.821   5.358   6.009 -0.0116  0.4503  0.7486
 7234TIP3    H143193   3.863   5.335   6.092 -0.3681  2.5130  1.5694
 7234TIP3    H243194   3.728   5.368   6.031  0.0242  1.9536  0.3617
 7235TIP3   OH243195   3.467   2.909   3.849 -0.4986  0.5336 -0.3372
 7235TIP3    H143196   3.410   2.838   3.878  1.2422  0.2913  2.8492
 7235TIP3    H243197   3.472   2.898   3.754 -1.0432 -3.0223 -0.0779
 7236TIP3   OH243198   2.403   5.630   5.878  0.2647  0.1064 -0.4319
 7236TIP3    H143199   2.490   5.618   5.840  0.0746 -1.9211 -0.3327
 7236TIP3    H243200   2.399   5.565   5.947 -1.4800 -0.1117 -0.7121
 7237TIP3   OH243201   1.506   4.751   4.731  0.1899 -0.7882  0.5142
 7237TIP3    H143202   1.415   4.723   4.724 -0.0395 -0.2309  1.1219
 7237TIP3    H243203   1.504   4.823   4.794  0.6401  1.0621 -1.4671
 7238TIP3   OH243204   3.065   2.235  13.251  0.5593  0.5228  0.1840
 7238TIP3    H143205   2.982   2.252  13.296 -0.9110  0.1858 -2.2348
 7238TIP3    H243206   3.090   2.320  13.215  1.2146  0.5972  0.8087
 7239TIP3   OH243207   0.553   0.727   3.369 -0.3042 -0.0687  0.0193
 7239TIP3    H143208   0.607   0.721   3.448 -1.1279  0.5232  0.6505
 7239TIP3    H243209   0.491   0.798   3.388 -0.7106 -0.1228 -1.0441
 7240TIP3   OH243210   0.187   4.288  16.927  0.2888  0.1555 -0.8961
 7240TIP3    H143211   0.209   4.249  16.843 -0.1504 -0.4381 -0.7443
 7240TIP3    H243212   0.105   4.245  16.953  1.8749 -1.9034  1.2203
 7241TIP3   OH243213   3.594   1.306   4.924 -0.1867 -0.2311  0.1556
 7241TIP3    H143214   3.626   1.368   4.858  1.1923 -2.6224 -1.5396
 7241TIP3    H243215   3.511   1.274   4.888 -0.8143  0.4370  0.9551
 7242TIP3   OH243216   1.125   1.366   4.500 -0.0611  0.1885  0.2494
 7242TIP3    H143217   1.196   1.391   4.559 -0.9212  0.9799  0.9850
 7242TIP3    H243218   1.064   1.318   4.556 -0.6378  0.4986 -0.1103
 7243TIP3   OH243219   3.933   4.499  15.137  0.5909 -0.3818  0.2732
 7243TIP3    H143220   3.901   4.505  15.227 -0.6838  0.2525 -0.2038
 7243TIP3    H243221   3.856   4.513  15.083  1.6702  1.3492 -0.9331
 7244TIP3   OH243222   3.650   2.400   1.390  0.0393  0.1763 -0.0270
 7244TIP3    H143223   3.567   2.447   1.390 -0.3746 -0.4895 -1.4650
 7244TIP3    H243224   3.706   2.449   1.451 -1.5404  0.3540  1.3334
 7245TIP3   OH243225   0.296   6.003  11.322  0.1949  0.1755 -0.1571
 7245TIP3    H143226   0.216   6.055  11.321  0.8109  1.1437 -1.0010
 7245TIP3    H243227   0.365   6.065  11.299  1.3379 -0.4240  1.4324
 7246TIP3   OH243228   5.687   4.361   2.657 -0.0708 -0.8701  0.4587
 7246TIP3    H143229   5.616   4.315   2.701 -1.6402  1.2569  0.3341
 7246TIP3    H243230   5.743   4.392   2.729 -1.2552  0.4448  0.8656
 7247TIP3   OH243231   4.442   3.648   1.515  0.3829  0.1974  0.4064
 7247TIP3    H143232   4.512   3.583   1.514  0.4050  0.2153  0.8211
 7247TIP3    H243233   4.482   3.725   1.556  0.6944  0.8569 -1.0468
 7248TIP3   OH243234   2.607   0.768   4.798 -0.1871 -0.1286 -0.6649
 7248TIP3    H143235   2.561   0.692   4.761 -0.4596 -0.5489  0.5111
 7248TIP3    H243236   2.678   0.730   4.850  0.6176  0.4779 -1.2856
 7249TIP3   OH243237   0.858   6.623  10.752 -0.3705 -0.1522 -0.0692
 7249TIP3    H143238   0.810   6.640  10.672  2.1009  2.6082 -1.1685
 7249TIP3    H243239   0.882   6.710  10.785  1.1092 -1.2725  2.0885
 7250TIP3   OH243240   6.194   5.941  14.343 -0.2963  0.2525 -0.4314
 7250TIP3    H143241   6.285   5.947  14.315 -0.2386 -0.6551 -0.4659
 7250TIP3    H243242   6.190   5.862  14.396 -1.0225  0.3956 -0.2586
 7251TIP3   OH243243   1.760   4.606  13.756  0.1660 -0.5221  0.4318
 7251TIP3    H143244   1.805   4.650  13.685 -2.4495  1.6801 -0.0522
 7251TIP3    H243245   1.794   4.647  13.836 -1.4762  1.8691  0.0288
 7252TIP3   OH243246   5.009   6.152  15.627 -0.3134  0.6148  0.3585
 7252TIP3    H143247   4.959   6.127  15.549 -1.2483  1.8247  0.5367
 7252TIP3    H243248   5.056   6.231  15.601 -2.1592  2.1907  1.5394
 7253TIP3   OH243249   4.651   2.326   5.772 -0.1418  0.1606 -0.1468
 7253TIP3    H143250   4.667   2.334   5.866 -0.3353  1.4234 -0.1987
 7253TIP3    H243251   4.560   2.355   5.761  0.1495  0.8733 -0.8165
 7254TIP3   OH243252   1.196   3.037   3.604  0.6223  0.2478  0.1019
 7254TIP3    H143253   1.160   2.995   3.682 -1.1480  0.8217 -0.3582
 7254TIP3    H243254   1.149   3.120   3.597  1.9003  0.9406 -0.6922
 7255TIP3   OH243255   6.045   6.745  14.620 -0.1156 -0.1095 -0.4466
 7255TIP3    H143256   6.075   6.741  14.711 -0.6711 -1.6806 -0.2982
 7255TIP3    H243257   5.959   6.704  14.622 -1.0144  1.6266 -1.3681
 7256TIP3   OH243258   5.645   0.783   6.212  0.6798  0.4450 -0.5931
 7256TIP3    H143259   5.651   0.879   6.206 -0.7259  0.5381 -0.8651
 7256TIP3    H243260   5.713   0.759   6.274 -0.0899  1.8085  0.8476
 7257TIP3   OH243261   1.172   4.073   0.654  0.3465 -0.2471 -0.6024
 7257TIP3    H143262   1.167   4.030   0.568 -0.9646  1.2535 -1.3192
 7257TIP3    H243263   1.266   4.074   0.674  0.5376 -2.1993 -1.1583
 7258TIP3   OH243264   2.523   1.495  15.587 -0.3051  0.2445 -0.1511
 7258TIP3    H143265   2.586   1.448  15.532  0.2861  0.4399  0.3483
 7258TIP3    H243266   2.459   1.429  15.613 -0.8136  0.2238 -1.3758
 7259TIP3   OH243267   0.469   5.834  13.154 -0.3663  0.4569 -0.7870
 7259TIP3    H143268   0.485   5.753  13.106 -1.4366  0.5708 -1.3743
 7259TIP3    H243269   0.533   5.896  13.118 -0.4445  0.2453 -1.3096
 7260TIP3   OH243270   5.536   4.300  10.666 -0.2465 -0.0375 -0.1590
 7260TIP3    H143271   5.631   4.305  10.659 -0.2030  1.2651  0.8894
 7260TIP3    H243272   5.514   4.360  10.738 -1.8767 -0.1199 -0.5451
 7261TIP3   OH243273   2.689   0.932  14.165 -0.2266  0.2040 -0.6576
 7261TIP3    H143274   2.738   0.875  14.106 -1.3479 -2.6741  1.0150
 7261TIP3    H243275   2.598   0.920  14.140 -0.5542  0.5361  0.3283
 7262TIP3   OH243276   6.163   5.343   3.874  0.5541 -0.1375  0.3856
 7262TIP3    H143277   6.178   5.324   3.781 -1.0186  0.3301  0.0048
 7262TIP3    H243278   6.140   5.436   3.876 -1.0571 -0.5242  1.0154
 7263TIP3   OH243279   2.482   4.768   1.432 -0.3610 -0.0013  0.1250
 7263TIP3    H143280   2.570   4.741   1.460 -0.9766 -1.2768  0.9060
 7263TIP3    H243281   2.433   4.687   1.424 -1.3018  0.6473 -0.9795
 7264TIP3   OH243282   3.076   5.155   2.433 -0.8144 -0.2813 -0.4349
 7264TIP3    H143283   3.009   5.086   2.426 -2.4839  1.2572 -0.5731
 7264TIP3    H243284   3.090   5.165   2.527 -2.1818  0.5865 -0.2830
 7265TIP3   OH243285   2.169   1.431   0.587 -0.0997  0.1341 -0.0472
 7265TIP3    H143286   2.115   1.479   0.524  0.6642  0.6886 -0.2829
 7265TIP3    H243287   2.255   1.425   0.547  0.0364 -0.7391  0.3351
 7266TIP3   OH243288   2.940   0.366   5.447  0.3598  0.4176  0.0445
 7266TIP3    H143289   2.996   0.419   5.503  1.4262 -0.8109  0.2115
 7266TIP3    H243290   2.869   0.337   5.504  1.1222 -0.3459  0.6366
 7267TIP3   OH243291   4.037   2.992   0.801 -0.1903 -0.3750 -0.3811
 7267TIP3    H143292   4.088   3.041   0.737  0.2889  0.6323  0.7240
 7267TIP3    H243293   4.092   2.919   0.826  0.1621 -0.0469 -0.1842
 7268TIP3   OH243294   1.504   0.268   1.449 -0.6592  0.6474  0.0924
 7268TIP3    H143295   1.451   0.303   1.377  0.1411  0.8923 -0.3822
 7268TIP3    H243296   1.445   0.206   1.494 -1.3398  0.9017 -0.4311
 7269TIP3   OH243297   0.091   6.546   1.749 -0.2790  0.1344  0.7015
 7269TIP3    H143298   0.160   6.604   1.784 -2.5509  3.9402 -0.5522
 7269TIP3    H243299   0.032   6.533   1.823  1.2379 -2.6206  1.5956
 7270TIP3   OH243300   5.666   1.025  10.957 -0.2669 -0.1317 -0.4117
 7270TIP3    H143301   5.746   1.047  10.908  0.0311 -1.8767 -0.7582
 7270TIP3    H243302   5.596   1.029  10.892  0.1242 -2.4127 -1.0519
 7271TIP3   OH243303   1.328   1.704   4.413 -0.4336 -0.5780 -0.3692
 7271TIP3    H143304   1.312   1.614   4.385  2.2850 -1.9233  1.8503
 7271TIP3    H243305   1.422   1.717   4.399  0.2580  0.1059  3.6100
 7272TIP3   OH243306   5.275   0.051  10.748 -0.3712 -0.1795  0.4113
 7272TIP3    H143307   5.227  -0.022  10.710  0.0004 -0.1578 -0.1136
 7272TIP3    H243308   5.349   0.010  10.793  0.9047 -0.0626 -1.4410
 7273TIP3   OH243309   5.601   5.915   3.332  0.1510  0.4044 -0.2227
 7273TIP3    H143310   5.636   5.972   3.263 -0.3364  1.6954  0.5693
 7273TIP3    H243311   5.607   5.967   3.412 -2.6342  0.3412  0.1339
 7274TIP3   OH243312   1.568   1.881  16.265 -0.9731 -0.0222  0.3928
 7274TIP3    H143313   1.538   1.880  16.174  0.5097 -1.3435 -0.1388
 7274TIP3    H243314   1.613   1.965  16.274 -0.5524 -0.1520 -0.3296
 7275TIP3   OH243315   4.413   4.662  12.337  0.3731  0.1187  0.1549
 7275TIP3    H143316   4.496   4.624  12.308  1.5143  2.9832 -0.7328
 7275TIP3    H243317   4.419   4.663  12.432  1.7526  1.0117  0.0894
 7276TIP3   OH243318   1.643   2.705  13.433  0.5865 -0.3826  1.0027
 7276TIP3    H143319   1.666   2.796  13.449 -1.7668  0.1022  2.0172
 7276TIP3    H243320   1.635   2.697  13.338 -0.6014  0.8736  0.9746
 7277TIP3   OH243321   0.347   4.185   5.065  0.2274 -0.3773 -0.3383
 7277TIP3    H143322   0.366   4.253   5.000  1.3931  0.0830  0.4550
 7277TIP3    H243323   0.421   4.188   5.125  0.8859 -3.1156 -0.8720
 7278TIP3   OH243324   6.015   3.111   5.129  0.2011  0.4947  0.2838
 7278TIP3    H143325   6.032   3.081   5.040 -1.2837 -1.8611  0.6935
 7278TIP3    H243326   5.962   3.190   5.119  0.5419  0.5800 -0.9147
 7279TIP3   OH243327   6.531   5.733   1.201  0.1077 -0.1018 -0.1249
 7279TIP3    H143328   6.592   5.670   1.163  1.1228  0.4878  0.4711
 7279TIP3    H243329   6.585   5.809   1.221 -1.0493  0.8960 -0.6398
 7280TIP3   OH243330   1.164   2.554   3.314  0.1666  0.4789 -0.2657
 7280TIP3    H143331   1.162   2.487   3.382  1.7129 -0.4867 -1.1154
 7280TIP3    H243332   1.170   2.637   3.361  0.3424 -0.1209  0.7869
 7281TIP3   OH243333   0.584   2.462  12.338 -0.0942  0.0927 -0.2057
 7281TIP3    H143334   0.635   2.410  12.276  0.0894  1.1904 -1.0047
 7281TIP3    H243335   0.563   2.542  12.291 -4.0077 -0.9171 -0.5188
 7282TIP3   OH243336   5.440   4.207   3.921  0.3360  0.6540 -0.1559
 7282TIP3    H143337   5.395   4.125   3.943 -1.3791  1.9774  1.7364
 7282TIP3    H243338   5.526   4.199   3.963  0.1969 -0.1772  0.0005
 7283TIP3   OH243339   0.120   1.808  13.622  0.4239 -0.1375  0.6401
 7283TIP3    H143340   0.179   1.737  13.596  1.3576  1.1021 -0.7885
 7283TIP3    H243341   0.047   1.764  13.666  0.8114 -1.9986 -0.4909
 7284TIP3   OH243342   4.679   5.534   4.859  0.1582 -0.1300  0.5012
 7284TIP3    H143343   4.713   5.622   4.875 -0.0632  0.0808 -0.1489
 7284TIP3    H243344   4.616   5.519   4.929  0.8142 -0.1114  1.1104
 7285TIP3   OH243345   6.026   4.623   4.747 -0.0467  0.6039 -0.5032
 7285TIP3    H143346   5.932   4.637   4.739 -0.0747  0.1388 -1.1133
 7285TIP3    H243347   6.060   4.636   4.658  0.0071 -2.3686 -1.0311
 7286TIP3   OH243348   3.540   1.310   4.184  0.4626 -0.2478 -0.4067
 7286TIP3    H143349   3.458   1.321   4.232  0.4791 -0.3850 -0.3461
 7286TIP3    H243350   3.606   1.295   4.253  0.6701  0.6290 -0.4057
 7287TIP3   OH243351   4.004   1.714  14.995  0.0592 -0.0129  0.4688
 7287TIP3    H143352   4.032   1.685  14.908  0.3953  0.6207  0.3586
 7287TIP3    H243353   4.049   1.798  15.007  0.1993 -0.2091  1.3483
 7288TIP3   OH243354   4.403   5.671  14.908  0.4729 -0.4436  0.5059
 7288TIP3    H143355   4.431   5.734  14.842 -0.3705  0.2058  0.7547
 7288TIP3    H243356   4.333   5.621  14.866 -0.1991  0.0985  0.9495
 7289TIP3   OH243357   3.654   3.250   2.782  0.2443  0.3057 -0.0421
 7289TIP3    H143358   3.573   3.201   2.768  0.5554  0.0497 -1.0216
 7289TIP3    H243359   3.715   3.186   2.819  0.1954  0.3272  0.0741
 7290TIP3   OH243360   3.615   5.859   1.877  0.0290 -0.1108  0.2510
 7290TIP3    H143361   3.587   5.895   1.793  3.7056 -0.2775 -1.2487
 7290TIP3    H243362   3.557   5.785   1.892 -1.2138  0.3767 -1.7324
 7291TIP3   OH243363   3.951   6.413   0.335  0.2394 -0.2099  0.4272
 7291TIP3    H143364   3.886   6.445   0.397  1.2390  0.8882  0.9478
 7291TIP3    H243365   3.937   6.466   0.256  0.6330  0.1752  0.6136
 7292TIP3   OH243366   5.333   5.073   5.258  0.4792  0.4341  0.1535
 7292TIP3    H143367   5.362   4.983   5.251  2.0343  0.7352  1.9944
 7292TIP3    H243368   5.312   5.085   5.351 -1.0132  1.6095 -0.2906
 7293TIP3   OH243369   4.797   3.329   3.672  0.3513 -0.1387  0.2502
 7293TIP3    H143370   4.889   3.335   3.646  0.9073 -0.8331  1.9126
 7293TIP3    H243371   4.765   3.419   3.666  0.6696 -0.1038 -1.8174
 7294TIP3   OH243372   5.212   3.420  14.720  0.2602 -0.4269 -0.1194
 7294TIP3    H143373   5.217   3.491  14.656 -0.6550 -1.6606 -1.6442
 7294TIP3    H243374   5.140   3.443  14.778  0.2464  0.0838 -0.3424
 7295TIP3   OH243375   6.215   0.188  16.076 -0.2957  0.5692  0.1075
 7295TIP3    H143376   6.228   0.281  16.055 -0.0727  0.6022  0.3830
 7295TIP3    H243377   6.133   0.186  16.126  0.7586  0.8966  1.9233
 7296TIP3   OH243378   0.396   0.982  13.981  0.5550 -0.1890 -0.3128
 7296TIP3    H143379   0.395   1.014  14.072 -1.8987 -1.1131  0.0694
 7296TIP3    H243380   0.385   1.061  13.928 -2.3380  0.0498  0.4790
 7297TIP3   OH243381   2.688   2.801   1.659  0.1464  0.2257  0.5367
 7297TIP3    H143382   2.618   2.797   1.724 -1.1405  1.9360 -0.6665
 7297TIP3    H243383   2.699   2.894   1.642  2.3520 -0.0301  0.2588
 7298TIP3   OH243384   3.374   5.778  17.088  0.2557 -0.3982 -0.0460
 7298TIP3    H143385   3.338   5.747  17.171  1.1508 -2.2744 -0.3193
 7298TIP3    H243386   3.312   5.746  17.022  0.6156 -0.6873 -0.2482
 7299TIP3   OH243387   6.681   4.038  13.894  0.6030  0.0124 -0.3964
 7299TIP3    H143388   6.771   4.049  13.862  0.1733 -0.6036 -1.9234
 7299TIP3    H243389   6.638   3.987  13.826 -1.0892  0.8261  0.0175
 7300TIP3   OH243390   2.963   0.352  14.789  0.3029 -0.0416 -0.0067
 7300TIP3    H143391   3.030   0.284  14.774  1.8286  1.6247 -1.1981
 7300TIP3    H243392   2.881   0.310  14.762  0.8799 -2.0086  1.0726
 7301TIP3   OH243393   2.538   5.210  11.836 -0.2934 -0.6244  0.0873
 7301TIP3    H143394   2.615   5.218  11.780 -1.6709  1.4233 -1.6766
 7301TIP3    H243395   2.518   5.116  11.836  0.8641 -0.9026 -1.3276
 7302TIP3   OH243396   2.776   5.604  16.904 -0.6707 -0.2431  0.2194
 7302TIP3    H143397   2.859   5.652  16.905 -0.8224  0.0499 -0.6830
 7302TIP3    H243398   2.721   5.652  16.966 -0.1465 -0.4978  0.9027
 7303TIP3   OH243399   4.713   2.177  11.476  0.4377  0.7398  0.2772
 7303TIP3    H143400   4.793   2.150  11.521  0.2431  0.9771  0.7732
 7303TIP3    H243401   4.717   2.132  11.391  0.0943 -0.9055  1.0823
 7304TIP3   OH243402   5.180   0.256  16.476 -0.2562  0.5639 -0.4119
 7304TIP3    H143403   5.222   0.340  16.463  1.3358 -0.0668  0.3723
 7304TIP3    H243404   5.218   0.222  16.557 -0.7300 -0.9746 -0.7875
 7305TIP3   OH243405   5.117   2.581  16.446 -1.2095  0.8433  0.0546
 7305TIP3    H143406   5.211   2.574  16.428 -1.0099  1.1579  0.9155
 7305TIP3    H243407   5.075   2.574  16.360 -0.5000 -0.9310 -0.1987
 7306TIP3   OH243408   0.192   2.877   4.122  0.8835  0.3455 -0.2683
 7306TIP3    H143409   0.259   2.829   4.171  1.6232 -0.1460 -1.7187
 7306TIP3    H243410   0.178   2.825   4.043 -0.2449  1.1515 -0.6188
 7307TIP3   OH243411   6.283   1.094  11.726  1.4173  0.6812 -0.6803
 7307TIP3    H143412   6.207   1.150  11.741  1.7026  1.1707 -0.9967
 7307TIP3    H243413   6.328   1.091  11.811 -0.6245 -2.2519  0.4339
 7308TIP3   OH243414   2.438   5.133   4.860  0.0781 -0.6415 -0.2845
 7308TIP3    H143415   2.468   5.042   4.854  0.9238 -0.3035 -1.3548
 7308TIP3    H243416   2.506   5.177   4.911  0.9168 -0.1037 -1.8146
 7309TIP3   OH243417   6.601   2.776   4.534  0.4150 -0.1551 -0.1723
 7309TIP3    H143418   6.598   2.702   4.595  0.0416 -0.2616 -0.3179
 7309TIP3    H243419   6.552   2.746   4.458  1.9964 -0.5263 -1.0920
 7310TIP3   OH243420   4.698   3.323  13.994 -0.1451  0.4986 -0.0521
 7310TIP3    H143421   4.677   3.264  13.921  0.0216 -0.2522  0.4976
 7310TIP3    H243422   4.777   3.286  14.032 -1.1465 -0.1095  1.5442
 7311TIP3   OH243423   5.778   3.329   1.986  0.2952  0.1168  0.3660
 7311TIP3    H143424   5.707   3.389   1.966 -2.1461 -1.7552  2.6450
 7311TIP3    H243425   5.798   3.346   2.078  1.9944 -0.2426  0.0965
 7312TIP3   OH243426   5.052   4.574   5.357 -0.4123  0.3367  0.3737
 7312TIP3    H143427   5.066   4.633   5.282  1.8420 -0.7520 -0.1641
 7312TIP3    H243428   5.112   4.501   5.341  0.4112  0.2199  3.4359
 7313TIP3   OH243429   4.950   4.184   2.105  0.5064 -0.1794  0.0759
 7313TIP3    H143430   4.901   4.221   2.178  0.0448  2.1019 -1.2802
 7313TIP3    H243431   5.014   4.252   2.082  1.0521 -1.0958 -1.2323
 7314TIP3   OH243432   0.820   0.886   2.107 -0.7832  0.4437 -0.5469
 7314TIP3    H143433   0.834   0.981   2.109 -0.4260  0.4615 -2.0777
 7314TIP3    H243434   0.847   0.855   2.193  2.0729  1.3624 -1.0222
 7315TIP3   OH243435   2.264   0.560   5.413 -0.2267  0.6039 -0.7856
 7315TIP3    H143436   2.234   0.480   5.457  2.1254 -0.3036 -0.6736
 7315TIP3    H243437   2.203   0.572   5.340  0.8219 -2.8443 -2.4284
 7316TIP3   OH243438   6.056   6.444  11.913  0.0144  0.1571 -0.2583
 7316TIP3    H143439   6.079   6.531  11.946 -0.6647  0.1893  0.1630
 7316TIP3    H243440   5.990   6.461  11.846 -2.2394 -0.1380  1.7507
 7317TIP3   OH243441   1.519   3.362   3.530  0.4918  0.0637  0.2646
 7317TIP3    H143442   1.537   3.385   3.439  0.8502 -0.5172  0.1839
 7317TIP3    H243443   1.578   3.289   3.548 -0.9320 -1.0981  0.3726
 7318TIP3   OH243444   1.550   2.737  15.873  0.0544 -0.1859  0.2828
 7318TIP3    H143445   1.497   2.817  15.863  1.1590  0.4548 -0.6401
 7318TIP3    H243446   1.603   2.753  15.951  0.6748  0.2425 -0.2116
 7319TIP3   OH243447   0.429   0.335  12.690  0.2628  0.2681 -0.2479
 7319TIP3    H143448   0.422   0.396  12.764 -1.4836 -0.5993  0.3422
 7319TIP3    H243449   0.474   0.258  12.726 -2.0279 -0.8292  0.4223
 7320TIP3   OH243450   3.028   4.515  14.505 -0.8869  0.2130  0.1099
 7320TIP3    H143451   3.120   4.498  14.521 -0.9217 -0.3398 -0.2469
 7320TIP3    H243452   3.017   4.503  14.410 -1.5056 -0.6575  0.2737
 7321TIP3   OH243453   4.631   1.606  14.958 -0.2583 -0.3712 -0.6619
 7321TIP3    H143454   4.567   1.677  14.953 -0.9767 -0.7790  1.5280
 7321TIP3    H243455   4.696   1.636  15.022  0.3346 -1.0269 -0.9376
 7322TIP3   OH243456   4.874   3.359  14.695 -0.0667 -0.0905  0.1949
 7322TIP3    H143457   4.931   3.293  14.734  0.1860 -0.4172 -0.6875
 7322TIP3    H243458   4.848   3.416  14.768  0.5551 -0.5521  0.7831
 7323TIP3   OH243459   1.936   6.359   2.968  0.4571 -0.5966 -0.4203
 7323TIP3    H143460   2.001   6.428   2.958  0.7716 -0.8468 -0.1190
 7323TIP3    H243461   1.987   6.282   2.994 -0.0161 -0.6744  0.2990
 7324TIP3   OH243462   1.719   6.772   0.825 -0.4830  0.1165 -0.3538
 7324TIP3    H143463   1.757   6.845   0.875 -2.9104  0.0864  1.7658
 7324TIP3    H243464   1.794   6.716   0.805  0.9647  1.3342  1.2606
 7325TIP3   OH243465   6.356   1.188  13.443  0.5905  0.4905  0.4471
 7325TIP3    H143466   6.278   1.172  13.495  0.1585  0.4177 -0.2157
 7325TIP3    H243467   6.383   1.277  13.465 -0.3418  0.9376 -0.1657
 7326TIP3   OH243468   0.656   3.855  11.041  0.8382  0.3068  0.6011
 7326TIP3    H143469   0.665   3.909  10.962  0.2208 -0.5264 -0.0479
 7326TIP3    H243470   0.745   3.852  11.077  1.7150 -1.4565 -1.4972
 7327TIP3   OH243471   4.611   1.030  12.158  0.0069  0.2459 -0.0512
 7327TIP3    H143472   4.626   1.082  12.237  0.6341  0.1644 -0.1170
 7327TIP3    H243473   4.698   1.012  12.124 -0.2687  0.4062 -0.8508
 7328TIP3   OH243474   0.519   0.668   0.041 -0.1263 -0.2673 -0.5167
 7328TIP3    H143475   0.575   0.644   0.115 -2.1239 -0.6094  0.9687
 7328TIP3    H243476   0.532   0.762   0.031 -0.6408  0.0020  1.0276
 7329TIP3   OH243477   4.758   4.364   4.758  0.7036 -0.1698 -0.3262
 7329TIP3    H143478   4.837   4.335   4.713  2.1383  1.5008  1.0061
 7329TIP3    H243479   4.726   4.286   4.803  0.7491 -1.2007 -1.9961
 7330TIP3   OH243480   6.675   2.255   1.331 -0.5227 -0.0372 -0.0572
 7330TIP3    H143481   6.653   2.170   1.294  1.6580  0.4467 -2.7894
 7330TIP3    H243482   6.623   2.318   1.279  1.2815  0.5372 -1.2622
 7331TIP3   OH243483   3.425   4.605  15.502 -0.2690 -0.4628 -0.2159
 7331TIP3    H143484   3.377   4.674  15.457  1.0511  1.9996  1.9403
 7331TIP3    H243485   3.359   4.561  15.556 -0.7289  0.7649  0.2521
 7332TIP3   OH243486   4.724   3.490   1.961  0.1156  0.7857 -0.5093
 7332TIP3    H143487   4.723   3.553   1.889 -0.1330 -0.7796 -1.9575
 7332TIP3    H243488   4.809   3.445   1.952  0.7458  1.5797  1.1409
 7333TIP3   OH243489   3.909   4.137  14.307 -0.2531 -0.8753  0.1962
 7333TIP3    H143490   3.953   4.066  14.260 -0.3785 -0.1955 -0.9871
 7333TIP3    H243491   3.837   4.163  14.250 -1.8980 -1.5854  1.8415
 7334TIP3   OH243492   0.789   5.503   0.146  0.0344  0.5230  0.1426
 7334TIP3    H143493   0.838   5.584   0.159  0.1759  0.4250  0.2221
 7334TIP3    H243494   0.702   5.521   0.182 -0.1580  0.8750 -0.4827
 7335TIP3   OH243495   4.616   0.648  15.035 -0.5938 -0.1108 -0.3951
 7335TIP3    H143496   4.611   0.733  14.992 -1.2263 -1.3413 -2.9088
 7335TIP3    H243497   4.639   0.586  14.966 -1.3291 -2.1755  1.0841
 7336TIP3   OH243498   0.247   0.959   4.324 -0.0678  0.3077 -0.2106
 7336TIP3    H143499   0.185   1.012   4.374  0.4453  0.5234  0.2028
 7336TIP3    H243500   0.195   0.883   4.295 -1.1963  1.6916 -2.0112
 7337TIP3   OH243501   0.506   5.610  12.983  0.4275 -0.4599  0.0553
 7337TIP3    H143502   0.538   5.665  12.911  0.2869  0.1314  0.4381
 7337TIP3    H243503   0.429   5.567  12.947  1.4853 -1.7127 -0.7965
 7338TIP3   OH243504   5.193   4.351   6.503  0.6321 -0.1765 -0.3134
 7338TIP3    H143505   5.259   4.414   6.532 -0.6554  1.1306 -0.1491
 7338TIP3    H243506   5.206   4.345   6.408  2.5920 -1.8609 -0.0147
 7339TIP3   OH243507   5.098   3.116  16.383  0.5356 -0.1666 -0.1022
 7339TIP3    H143508   5.171   3.074  16.430  0.2967  1.0439  1.3904
 7339TIP3    H243509   5.031   3.048  16.379  0.9374 -0.6097  0.4236
 7340TIP3   OH243510   1.348   1.485   0.021 -0.4318 -0.1982  0.3665
 7340TIP3    H143511   1.401   1.552   0.064 -1.2792  0.5799  0.2382
 7340TIP3    H243512   1.288   1.534  -0.035 -1.3219 -1.0487  0.5431
 7341TIP3   OH243513   5.183   6.570  14.768  0.2733  0.6741  0.4130
 7341TIP3    H143514   5.243   6.511  14.723 -0.6977 -0.0044 -0.0270
 7341TIP3    H243515   5.187   6.544  14.860 -1.0848 -0.9601  0.0481
 7342TIP3   OH243516   2.465   1.646   1.816 -0.1944  0.7330 -0.0967
 7342TIP3    H143517   2.483   1.740   1.820 -1.5063  1.3227 -3.5788
 7342TIP3    H243518   2.411   1.628   1.893  0.5695  2.6842  0.9579
 7343TIP3   OH243519   6.276   0.459   0.492 -0.1214 -0.3498 -0.6226
 7343TIP3    H143520   6.264   0.444   0.399  0.6523  0.6804 -0.9025
 7343TIP3    H243521   6.241   0.380   0.534  0.3456 -1.2130 -1.8170
 7344TIP3   OH243522   5.551   3.014  15.789  0.0505  0.0625 -0.4105
 7344TIP3    H143523   5.511   2.929  15.805 -0.4618  0.4419  0.3721
 7344TIP3    H243524   5.483   3.063  15.741 -0.1903  0.4831  0.3412
 7345TIP3   OH243525   6.308   4.341   3.090  0.5113  0.6056  0.3563
 7345TIP3    H143526   6.218   4.342   3.121 -0.6816  0.1438 -2.6857
 7345TIP3    H243527   6.339   4.252   3.110 -0.7447 -0.1871 -0.9915
 7346TIP3   OH243528   5.865   6.620  12.464 -0.3679 -0.0147 -0.6816
 7346TIP3    H143529   5.801   6.679  12.426 -1.0766 -1.1652 -1.3309
 7346TIP3    H243530   5.936   6.617  12.400 -0.6505 -0.4077 -0.9771
 7347TIP3   OH243531   1.241   2.709  11.821 -0.4231 -0.0798 -0.0500
 7347TIP3    H143532   1.172   2.676  11.764 -1.0270  0.4918  0.3343
 7347TIP3    H243533   1.307   2.743  11.761 -0.4245 -0.7244 -0.4250
 7348TIP3   OH243534   2.979   6.137  15.969 -0.1262  0.1599 -0.5282
 7348TIP3    H143535   3.027   6.057  15.993  0.2650  1.1769  2.5275
 7348TIP3    H243536   3.045   6.206  15.974 -1.3924  1.3017  1.7248
 7349TIP3   OH243537   2.360   1.195   0.560  0.4363  0.4642 -0.6002
 7349TIP3    H143538   2.452   1.179   0.583  0.3165  1.9736  1.1736
 7349TIP3    H243539   2.364   1.265   0.496  0.5163  0.9208 -0.1035
 7350TIP3   OH243540   0.817   2.920   1.452 -0.0785 -0.4642  0.1844
 7350TIP3    H143541   0.740   2.898   1.400  0.2861 -2.2297  0.3146
 7350TIP3    H243542   0.848   2.836   1.485  1.6295  0.2625  0.5381
 7351TIP3   OH243543   4.138   3.889   2.480 -0.5170 -1.0942  0.4738
 7351TIP3    H143544   4.058   3.848   2.449 -2.7381  2.6177  0.6892
 7351TIP3    H243545   4.109   3.950   2.548  2.3619  1.0311 -0.0038
 7352TIP3   OH243546   5.808   1.041   2.835  0.6296 -0.1752  0.2823
 7352TIP3    H143547   5.730   1.072   2.789 -1.3689 -1.2597  2.7160
 7352TIP3    H243548   5.825   0.954   2.796  0.0149 -0.3544  0.4020
 7353TIP3   OH243549   1.123   0.770   4.343 -0.0567 -0.9581  0.1723
 7353TIP3    H143550   1.140   0.861   4.318 -3.4855 -0.5767 -1.4350
 7353TIP3    H243551   1.111   0.773   4.438 -1.6896  0.6927 -0.0185
 7354TIP3   OH243552   3.588   5.521   6.154  0.1654 -0.5032 -0.1559
 7354TIP3    H143553   3.497   5.500   6.137 -0.1828  0.6990  0.1409
 7354TIP3    H243554   3.588   5.554   6.244  0.6172  1.0201 -0.6878
 7355TIP3   OH243555   4.912   5.376  13.322 -0.0689  0.2996 -0.2410
 7355TIP3    H143556   4.854   5.303  13.296 -2.2472  2.4274 -1.8341
 7355TIP3    H243557   4.853   5.440  13.361  1.5617  1.7876 -0.1226
 7356TIP3   OH243558   6.654   3.916   1.756 -0.6047 -0.1955 -0.3427
 7356TIP3    H143559   6.744   3.892   1.734 -0.6042 -2.4346  1.6636
 7356TIP3    H243560   6.658   4.009   1.777  0.8899  0.1094 -1.7779
 7357TIP3   OH243561   0.111   1.474   3.405  0.3524 -0.4018 -0.3711
 7357TIP3    H143562   0.050   1.403   3.387  0.3003 -0.2156 -0.9405
 7357TIP3    H243563   0.077   1.548   3.355  1.6993 -0.6093 -1.6479
 7358TIP3   OH243564   3.940   0.184  15.888  0.0449  0.2790  0.2796
 7358TIP3    H143565   3.996   0.151  15.959 -2.1750 -0.5221  1.7562
 7358TIP3    H243566   3.911   0.106  15.842  1.2691  0.7868 -1.4389
 7359TIP3   OH243567   2.549   4.009  14.616 -1.1546  0.3624  0.1492
 7359TIP3    H143568   2.498   3.971  14.687  0.5347  0.8390  1.6625
 7359TIP3    H243569   2.622   4.053  14.658  1.0181 -0.9728 -1.9505
 7360TIP3   OH243570   1.932   6.851  11.374  0.2959 -0.2074  0.0993
 7360TIP3    H143571   1.940   6.886  11.285  1.2762  0.4436  0.4304
 7360TIP3    H243572   1.877   6.914  11.420  1.1116  0.3112  0.3817
 7361TIP3   OH243573   5.476   5.363  11.934  0.3663  0.1752  0.6733
 7361TIP3    H143574   5.570   5.372  11.923  0.4471 -0.4785  0.8155
 7361TIP3    H243575   5.451   5.290  11.878 -0.1117  0.5552  0.3768
 7362TIP3   OH243576   4.247   2.416  16.541  0.0957  0.5783  0.1800
 7362TIP3    H143577   4.217   2.485  16.601  0.2963  0.8802 -0.0640
 7362TIP3    H243578   4.318   2.373  16.589 -0.5180  0.0537  0.6363
 7363TIP3   OH243579   0.327   4.701  11.638  0.1806  0.5391  0.7439
 7363TIP3    H143580   0.375   4.665  11.564 -0.8543  0.8426 -0.0892
 7363TIP3    H243581   0.302   4.624  11.689  1.5511  0.3752  1.2239
 7364TIP3   OH243582   3.281   5.141  10.989 -0.2307 -1.2536 -0.1523
 7364TIP3    H143583   3.306   5.230  10.965 -1.1269 -0.5593  1.3378
 7364TIP3    H243584   3.239   5.106  10.910  1.0163 -0.7305 -1.0768
 7365TIP3   OH243585   4.448   6.522  17.047  0.4999  0.1302  0.3159
 7365TIP3    H143586   4.419   6.436  17.017  1.2435 -0.6680  1.7514
 7365TIP3    H243587   4.436   6.579  16.972 -0.6751 -1.0708 -0.4538
 7366TIP3   OH243588   0.800   0.578   2.752  0.1703 -0.0952  0.1574
 7366TIP3    H143589   0.717   0.559   2.707  1.0423 -2.1498 -0.6837
 7366TIP3    H243590   0.867   0.567   2.684  1.4646 -2.5668  1.6935
 7367TIP3   OH243591   2.357   3.080  14.230  0.1824 -0.0916 -0.2584
 7367TIP3    H143592   2.306   3.006  14.263 -0.0551  0.1979  0.0425
 7367TIP3    H243593   2.447   3.061  14.257  0.0268  0.0296  0.3730
 7368TIP3   OH243594   5.489   3.346  11.843  0.0584 -0.1890  0.3644
 7368TIP3    H143595   5.563   3.321  11.899 -0.2630  0.3032  1.0324
 7368TIP3    H243596   5.463   3.433  11.875 -0.9831 -0.4733  0.3428
 7369TIP3   OH243597   4.172   2.068   5.917  0.9082  0.3466  0.5462
 7369TIP3    H143598   4.197   2.005   5.850  1.0440  1.5661 -0.5945
 7369TIP3    H243599   4.243   2.132   5.919  0.9544  0.2934  1.9439
 7370TIP3   OH243600   0.757   3.050  14.933 -0.0632 -0.1249 -0.2944
 7370TIP3    H143601   0.843   3.018  14.906  0.2928  1.6624 -1.3955
 7370TIP3    H243602   0.750   3.136  14.893 -1.2374  0.9332  2.0172
 7371TIP3   OH243603   3.020   2.277  14.712 -0.5863 -0.1223 -0.4782
 7371TIP3    H143604   3.083   2.312  14.774  0.1458  0.1508 -1.3439
 7371TIP3    H243605   3.070   2.266  14.631 -1.0330 -2.2510 -0.5243
 7372TIP3   OH243606   4.754   2.071   5.047 -0.2525 -0.6607 -0.0018
 7372TIP3    H143607   4.759   1.988   5.096 -0.4119  0.1075  1.3909
 7372TIP3    H243608   4.686   2.056   4.982 -0.0545 -1.7298  0.0151
 7373TIP3   OH243609   3.987   3.913   3.620 -0.2418  0.1608 -0.4418
 7373TIP3    H143610   3.991   3.952   3.708 -0.7726  2.2763 -1.3028
 7373TIP3    H243611   3.901   3.872   3.616 -0.2561  0.1422 -0.0067
 7374TIP3   OH243612   0.554   0.553   1.893 -0.5473 -0.1624  0.0407
 7374TIP3    H143613   0.496   0.615   1.848  0.0825  1.2665  1.0905
 7374TIP3    H243614   0.516   0.545   1.981 -0.1838 -0.6545  0.1549
 7375TIP3   OH243615   6.105   2.496   5.664 -0.2950  0.2585  0.0808
 7375TIP3    H143616   6.105   2.553   5.741 -1.8014  0.4886 -0.0402
 7375TIP3    H243617   6.022   2.516   5.620  0.2871 -0.2569 -1.3127
 7376TIP3   OH243618   6.607   3.070  14.392  0.0812 -0.1558 -0.0054
 7376TIP3    H143619   6.659   2.997  14.424  0.9076 -0.8845 -2.7390
 7376TIP3    H243620   6.531   3.030  14.350 -1.3720  0.7789  1.6141
 7377TIP3   OH243621   3.995   3.170   1.360 -0.4062  0.0534 -0.3182
 7377TIP3    H143622   3.912   3.189   1.316 -1.8144  0.3176  2.2348
 7377TIP3    H243623   3.991   3.076   1.377 -0.2181  0.0802 -0.1348
 7378TIP3   OH243624   0.131   1.888  12.566  0.7659  0.0825  0.0715
 7378TIP3    H143625   0.221   1.913  12.584  0.9207 -0.6312  0.3212
 7378TIP3    H243626   0.084   1.909  12.647  0.5823  0.9984 -0.2596
 7379TIP3   OH243627   0.149   2.174  13.861  0.1416 -0.0834  0.7963
 7379TIP3    H143628   0.096   2.187  13.782  1.4337 -0.4354 -0.1781
 7379TIP3    H243629   0.219   2.115  13.833 -0.0313 -1.1633  2.5363
 7380TIP3   OH243630   0.971   4.766  12.137 -0.0127  0.2762  0.3205
 7380TIP3    H143631   0.915   4.715  12.078  0.7435  0.3600 -0.4914
 7380TIP3    H243632   0.911   4.831  12.175 -1.1574 -1.6121  1.9452
 7381TIP3   OH243633   2.517   1.678   1.208 -0.4100 -0.6329 -0.0943
 7381TIP3    H143634   2.425   1.654   1.196 -0.8225  0.6071  0.4012
 7381TIP3    H243635   2.516   1.739   1.282  0.9128 -1.2226  0.4334
 7382TIP3   OH243636   3.487   1.351  11.070  0.1325 -0.0139 -0.1624
 7382TIP3    H143637   3.417   1.287  11.084 -0.4287  0.7621  0.6309
 7382TIP3    H243638   3.504   1.348  10.976 -0.5539 -0.6369 -0.2729
 7383TIP3   OH243639   6.560   4.483  12.580  0.4194  0.4538  0.2549
 7383TIP3    H143640   6.501   4.520  12.514  0.4701  0.4699  0.2189
 7383TIP3    H243641   6.529   4.393  12.592  0.9844  0.1522 -0.4655
 7384TIP3   OH243642   2.999   6.431   6.333  0.5270 -0.8226 -0.3365
 7384TIP3    H143643   2.928   6.494   6.350  0.9404 -0.4830  0.1778
 7384TIP3    H243644   2.974   6.388   6.252  1.2638  1.5166 -1.9157
 7385TIP3   OH243645   3.979   0.612  15.615 -0.1195  0.5841 -0.0203
 7385TIP3    H143646   4.042   0.576  15.677 -0.7481 -1.1071 -0.3324
 7385TIP3    H243647   3.897   0.567  15.634 -0.3169 -0.0376 -2.1070
 7386TIP3   OH243648   5.735   1.373  16.825  0.4868 -0.4757 -0.1619
 7386TIP3    H143649   5.771   1.290  16.856 -0.0506 -0.3128  0.9434
 7386TIP3    H243650   5.642   1.370  16.849  0.3575  0.2425 -0.5330
 7387TIP3   OH243651   3.010   2.044  16.001 -0.0880  0.3016 -0.0423
 7387TIP3    H143652   2.991   2.056  16.094 -0.3489  0.3664 -0.1055
 7387TIP3    H243653   3.104   2.023  15.999 -0.7576 -3.3982  0.5701
 7388TIP3   OH243654   6.589   2.416  14.503  0.6766  0.0184 -0.6836
 7388TIP3    H143655   6.658   2.356  14.475  1.5647 -0.5009  2.3022
 7388TIP3    H243656   6.598   2.492  14.445  2.6422 -0.7578 -1.4695
 7389TIP3   OH243657   5.792   5.537  12.747  0.3494 -0.1224 -0.3570
 7389TIP3    H143658   5.743   5.554  12.828  0.6085  0.3804 -0.3027
 7389TIP3    H243659   5.883   5.530  12.775  0.5570  0.9553 -0.7154
 7390TIP3   OH243660   1.143   0.260  11.402 -0.4106  0.1855 -0.0477
 7390TIP3    H143661   1.192   0.184  11.432 -0.5379  0.6245  1.3374
 7390TIP3    H243662   1.096   0.229  11.324 -0.1396 -1.0255  0.2524
 7391TIP3   OH243663   4.730   4.159  11.756  0.2494  0.6650 -0.0657
 7391TIP3    H143664   4.814   4.113  11.758  0.2356  0.6567  0.6242
 7391TIP3    H243665   4.742   4.228  11.692  0.9781  1.0109  0.4335
 7392TIP3   OH243666   4.268   2.940   4.606 -0.0018 -0.4994 -0.3506
 7392TIP3    H143667   4.188   2.904   4.642  0.8087 -2.5629 -0.4895
 7392TIP3    H243668   4.308   2.987   4.679 -0.8789 -0.2150 -0.0374
 7393TIP3   OH243669   2.742   6.196  16.571 -0.4412 -0.1222  0.0268
 7393TIP3    H143670   2.801   6.121  16.569 -0.8183 -0.4171 -0.3593
 7393TIP3    H243671   2.720   6.208  16.663 -0.1302 -0.2864  0.1210
 7394TIP3   OH243672   5.477   6.105  16.347 -0.2751  0.8070 -0.0599
 7394TIP3    H143673   5.461   6.024  16.298  1.8715 -1.9288  3.2316
 7394TIP3    H243674   5.546   6.149  16.298  1.4793 -1.5697  0.0616
 7395TIP3   OH243675   0.518   0.084  13.192  0.0639 -0.4239  0.2545
 7395TIP3    H143676   0.543   0.159  13.245  0.4186 -1.9449  2.3584
 7395TIP3    H243677   0.559   0.009  13.235 -1.6082 -2.0358 -0.7997
 7396TIP3   OH243678   3.535   0.756  16.338 -0.3257 -0.1453 -0.8279
 7396TIP3    H143679   3.457   0.810  16.331 -1.3558 -1.1889  1.6227
 7396TIP3    H243680   3.524   0.690  16.269 -0.6226  0.8116 -1.7280
 7397TIP3   OH243681   6.574   2.153  14.010 -0.2125 -0.2115 -0.3892
 7397TIP3    H143682   6.483   2.124  14.007  0.2567 -2.0192  0.9055
 7397TIP3    H243683   6.622   2.086  13.961  0.7612 -1.0462  1.5776
 7398TIP3   OH243684   1.505   6.483   2.282  0.5564  0.1408  0.7186
 7398TIP3    H143685   1.422   6.530   2.283  1.2170  1.3987 -0.3729
 7398TIP3    H243686   1.520   6.461   2.191  2.1339  1.3387  0.6272
 7399TIP3   OH243687   3.072   3.027  14.015 -0.1846  0.2323 -0.0761
 7399TIP3    H143688   3.105   3.080  13.942  1.3065  0.1277  0.4915
 7399TIP3    H243689   3.145   3.023  14.077 -1.2571 -0.0858  1.2104
 7400TIP3   OH243690   1.201   5.102  16.187 -0.8998 -0.3488  0.4737
 7400TIP3    H143691   1.130   5.104  16.251  0.8209  0.5391  2.4373
 7400TIP3    H243692   1.278   5.074  16.236  1.3147  3.6757 -0.2840
 7401TIP3   OH243693   1.713   2.048  14.940 -0.0529 -0.0748  0.5223
 7401TIP3    H143694   1.755   1.975  14.986 -0.7921 -0.8836 -0.0404
 7401TIP3    H243695   1.626   2.014  14.916  0.8160 -0.3192 -2.8513
 7402TIP3   OH243696   2.730   4.917  12.863 -0.3629 -0.6218 -0.5674
 7402TIP3    H143697   2.739   4.827  12.894  1.0781 -0.9470 -1.7876
 7402TIP3    H243698   2.636   4.927  12.846 -0.9153 -1.0553  1.8787
 7403TIP3   OH243699   1.526   0.449   5.783 -0.1786 -0.4448  0.5021
 7403TIP3    H143700   1.476   0.380   5.740  0.3687 -1.2800  1.1672
 7403TIP3    H243701   1.592   0.402   5.834  1.0663  0.6160 -0.0787
 7404TIP3   OH243702   5.582   2.198  11.529  0.1682  0.7987 -0.3003
 7404TIP3    H143703   5.543   2.268  11.476 -1.6648 -1.9924 -3.0384
 7404TIP3    H243704   5.508   2.158  11.573  0.8543 -0.6161 -0.3834
 7405TIP3   OH243705   4.347   6.241   5.049  0.2026  0.8898  0.0640
 7405TIP3    H143706   4.254   6.264   5.058  0.0132  0.3940 -0.5427
 7405TIP3    H243707   4.393   6.324   5.055 -0.2823  1.1387  0.4002
 7406TIP3   OH243708   5.777   4.546   2.879 -0.4777 -0.0401  0.0510
 7406TIP3    H143709   5.707   4.557   2.943 -0.1732  1.1884  0.1875
 7406TIP3    H243710   5.824   4.629   2.879 -1.7298  0.8651 -3.2433
 7407TIP3   OH243711   6.376   3.412   5.646  0.8196  0.2042 -0.0871
 7407TIP3    H143712   6.442   3.359   5.690  0.4209  0.4359  0.8161
 7407TIP3    H243713   6.426   3.466   5.585  1.7951  2.0098  2.1558
 7408TIP3   OH243714   4.415   2.372  16.796  0.1644 -0.7557  0.0440
 7408TIP3    H143715   4.412   2.457  16.839  1.6242 -0.4763 -0.3284
 7408TIP3    H243716   4.489   2.379  16.735  0.8150 -2.5334  0.5566
 7409TIP3   OH243717   1.257   4.481  12.332  0.2195  0.3821 -0.4268
 7409TIP3    H143718   1.318   4.419  12.293  1.0353  0.0933  1.2370
 7409TIP3    H243719   1.230   4.440  12.414  1.5234  2.6168  1.2023
 7410TIP3   OH243720   2.827   2.808   5.169  0.3053  0.4458  0.0425
 7410TIP3    H143721   2.910   2.770   5.197  0.8356  1.3271 -0.2906
 7410TIP3    H243722   2.808   2.768   5.084 -0.4496 -0.9623  0.8259
 7411TIP3   OH243723   6.146   2.066   2.579  0.0603  0.2006 -0.1123
 7411TIP3    H143724   6.158   2.141   2.637 -1.8286  2.4769 -2.4403
 7411TIP3    H243725   6.052   2.049   2.581  0.2948 -1.3119 -0.6480
 7412TIP3   OH243726   6.421   3.742  12.840 -0.1944 -0.7361 -0.3082
 7412TIP3    H143727   6.357   3.813  12.842  1.9883  1.4035 -1.2068
 7412TIP3    H243728   6.390   3.684  12.771  0.3627  1.9466 -3.0338
 7413TIP3   OH243729   3.079   4.190   4.368 -0.1982 -0.0862  0.1540
 7413TIP3    H143730   3.050   4.100   4.352  0.1775 -0.4906  1.5954
 7413TIP3    H243731   3.171   4.190   4.343 -0.0487 -0.2686  0.6863
 7414TIP3   OH243732   5.995   0.328   1.770  0.2182  0.2036  0.0596
 7414TIP3    H143733   5.981   0.393   1.701  1.5105 -0.3847 -0.8074
 7414TIP3    H243734   5.994   0.378   1.851  1.2873  1.3519 -0.5848
 7415TIP3   OH243735   5.829   4.701   5.341 -0.3177  0.6732  0.6291
 7415TIP3    H143736   5.788   4.748   5.268  1.2286  0.1251 -0.6494
 7415TIP3    H243737   5.906   4.754   5.363 -0.0817  0.1750  1.0235
 7416TIP3   OH243738   3.003   6.610  16.924  0.5227 -0.0279 -0.2892
 7416TIP3    H143739   2.926   6.645  16.879  0.0385  0.1881  0.6876
 7416TIP3    H243740   3.026   6.678  16.987 -0.0247 -1.1696  1.1791
 7417TIP3   OH243741   2.776   4.597  16.472 -0.0453  0.0173 -0.0734
 7417TIP3    H143742   2.815   4.646  16.544  0.5284  0.1001 -0.4406
 7417TIP3    H243743   2.846   4.588  16.407 -0.2354 -0.9898 -0.1595
 7418TIP3   OH243744   6.558   1.475   3.104  0.0684  0.2071  0.1505
 7418TIP3    H143745   6.602   1.556   3.078 -0.5281  0.5276  0.1151
 7418TIP3    H243746   6.469   1.484   3.069  0.0519 -0.5468 -0.0192
 7419TIP3   OH243747   1.597   4.410  15.631  0.9025  0.5886  0.2882
 7419TIP3    H143748   1.615   4.369  15.715  1.0806  1.1233  0.5203
 7419TIP3    H243749   1.631   4.348  15.566  0.1390 -0.1454  0.5691
 7420TIP3   OH243750   5.142   3.966  12.017  0.1876  0.5508 -0.4663
 7420TIP3    H143751   5.222   4.018  12.025  2.1994 -2.4913  0.8524
 7420TIP3    H243752   5.172   3.876  12.010 -3.1075 -0.5554 -2.8681
 7421TIP3   OH243753   4.511   3.193  16.495  0.1037 -0.0449  0.7251
 7421TIP3    H143754   4.506   3.204  16.590 -3.2430 -2.7825  1.0835
 7421TIP3    H243755   4.599   3.160  16.480  0.5390 -0.1170  2.9872
 7422TIP3   OH243756   3.110   3.715   1.116 -0.0666 -0.2691  0.0434
 7422TIP3    H143757   3.163   3.791   1.091 -1.2528  0.3417 -0.6791
 7422TIP3    H243758   3.094   3.728   1.210  2.8883 -1.6399  0.8553
 7423TIP3   OH243759   5.887   2.452   2.192  0.0412  0.1854  0.2242
 7423TIP3    H143760   5.917   2.361   2.193  1.6262  0.6657  1.9860
 7423TIP3    H243761   5.844   2.464   2.277 -1.9203  0.5902 -0.7576
 7424TIP3   OH243762   4.572   5.631   0.711  0.1176 -0.0515  0.1285
 7424TIP3    H143763   4.650   5.645   0.657  0.5766  2.1714  1.2498
 7424TIP3    H243764   4.602   5.573   0.781  0.2661 -0.6600 -0.4276
 7425TIP3   OH243765   4.062   6.117   1.288  0.6048  0.1442  0.6282
 7425TIP3    H143766   4.102   6.205   1.290 -0.9628  0.8865  1.0205
 7425TIP3    H243767   3.980   6.127   1.337 -1.1333 -0.7689 -1.9042
 7426TIP3   OH243768   4.983   0.642  16.977  0.0526  0.5315  0.3846
 7426TIP3    H143769   4.934   0.653  17.058 -0.7064 -0.1049  0.0206
 7426TIP3    H243770   5.056   0.704  16.985 -1.1912  2.0423  0.6283
 7427TIP3   OH243771   3.568   0.519  13.119  1.0435  0.2414 -0.6732
 7427TIP3    H143772   3.523   0.475  13.191 -0.3358 -0.2316 -1.7798
 7427TIP3    H243773   3.581   0.451  13.053 -0.3575  1.2530 -2.0641
 7428TIP3   OH243774   5.116   6.255   6.611  0.3903  0.0410  0.1844
 7428TIP3    H143775   5.063   6.184   6.576 -2.1128  1.4864  0.8160
 7428TIP3    H243776   5.172   6.213   6.677  1.5657 -1.8415 -1.8871
 7429TIP3   OH243777   0.924   5.689   6.564 -0.0381 -0.1340  0.5137
 7429TIP3    H143778   0.962   5.634   6.495  0.2328 -0.5610  1.0008
 7429TIP3    H243779   0.990   5.691   6.633 -0.7329 -0.5725  1.2099
 7430TIP3   OH243780   0.879   3.092  10.733 -0.1763  0.0075  0.3160
 7430TIP3    H143781   0.898   3.007  10.693 -0.5836 -0.1547  0.4614
 7430TIP3    H243782   0.841   3.071  10.818  0.7320  0.3526  0.8216
 7431TIP3   OH243783   4.869   0.970   3.338  0.0654  0.5230  0.2520
 7431TIP3    H143784   4.832   0.893   3.295 -3.0861  2.3691 -0.6665
 7431TIP3    H243785   4.926   1.009   3.272  0.3585 -0.0867  0.1329
 7432TIP3   OH243786   3.732   4.160  17.043  0.0996 -0.1185 -0.3032
 7432TIP3    H143787   3.812   4.212  17.046 -0.3843  0.6799 -0.8952
 7432TIP3    H243788   3.721   4.127  17.132 -0.5167  2.2235  0.5571
 7433TIP3   OH243789   3.877   2.762  11.134 -0.1557  0.2459 -0.5025
 7433TIP3    H143790   3.922   2.678  11.125 -1.5083 -1.0249  2.7991
 7433TIP3    H243791   3.946   2.828  11.128  1.7980 -1.4374  1.5457
 7434TIP3   OH243792   3.445   5.031  14.396  0.3908  0.2999 -0.4607
 7434TIP3    H143793   3.526   4.995  14.431  0.6518  0.6977 -0.6410
 7434TIP3    H243794   3.390   4.955  14.378 -0.1807  0.1113  1.7961
 7435TIP3   OH243795   3.313   2.023  14.234  0.2963  0.0935  0.0908
 7435TIP3    H143796   3.336   2.010  14.326 -2.5264  0.4477  0.9540
 7435TIP3    H243797   3.346   2.111  14.213  1.7401 -0.3353  0.4474
 7436TIP3   OH243798   4.281   5.125   4.331  0.8077  0.4130 -0.1108
 7436TIP3    H143799   4.330   5.186   4.275  0.0676  0.0811 -1.1607
 7436TIP3    H243800   4.296   5.156   4.420  1.5056  1.3442 -0.5390
 7437TIP3   OH243801   2.035   2.539   1.034 -0.2528  0.3324  0.5884
 7437TIP3    H143802   2.109   2.491   0.998  1.6195  2.1743  1.7949
 7437TIP3    H243803   1.964   2.525   0.971  1.3138 -0.9081 -0.9747
 7438TIP3   OH243804   3.216   6.748  11.877 -0.0974 -0.4186 -0.6522
 7438TIP3    H143805   3.219   6.669  11.931 -0.0518  0.1311  0.1579
 7438TIP3    H243806   3.262   6.723  11.796  0.7580 -0.9367 -0.0287
 7439TIP3   OH243807   5.189   5.980   5.298 -0.0606 -0.2374  0.1986
 7439TIP3    H143808   5.272   5.957   5.340  0.2407 -0.6445 -0.5985
 7439TIP3    H243809   5.148   5.896   5.278 -0.1285 -0.0570 -0.4489
 7440TIP3   OH243810   1.031   3.441   4.856 -0.8978 -0.0913  0.1134
 7440TIP3    H143811   1.064   3.445   4.767  1.1919  0.1116  0.8238
 7440TIP3    H243812   0.956   3.382   4.853 -0.6947 -0.2887 -1.6995
 7441TIP3   OH243813   1.280   6.854  14.133 -0.1070 -0.0643 -0.1892
 7441TIP3    H143814   1.231   6.909  14.194 -0.9448  0.2986 -1.1633
 7441TIP3    H243815   1.249   6.880  14.047  0.9567 -0.6652 -0.7747
 7442TIP3   OH243816   1.460   4.005  10.216 -0.0844 -0.0346  0.0362
 7442TIP3    H143817   1.383   4.061  10.216  0.7360  1.1523 -0.9860
 7442TIP3    H243818   1.533   4.065  10.198  0.8806 -1.3611 -0.6169
 7443TIP3   OH243819   6.244   6.398   5.810 -0.0502 -0.3149 -0.5308
 7443TIP3    H143820   6.334   6.366   5.818 -0.3552 -1.7141 -2.0505
 7443TIP3    H243821   6.246   6.456   5.734 -0.0517  1.3174  0.6640
 7444TIP3   OH243822   4.798   0.676   1.439  0.6640 -0.1125  0.1764
 7444TIP3    H143823   4.808   0.605   1.375 -0.6032  0.2636 -0.4917
 7444TIP3    H243824   4.855   0.745   1.407 -2.2491  1.3183 -2.5053
 7445TIP3   OH243825   5.338   0.336  13.796 -0.2620 -0.0842 -0.3826
 7445TIP3    H143826   5.395   0.373  13.729 -0.5525  0.9601 -0.0752
 7445TIP3    H243827   5.329   0.244  13.772  0.1794  0.1226 -1.3934
 7446TIP3   OH243828   0.900   1.900  16.072 -0.1414  0.5404  0.0710
 7446TIP3    H143829   0.944   1.981  16.100 -1.5944  0.9920  1.1399
 7446TIP3    H243830   0.839   1.880  16.143  1.7230 -2.7685  0.9513
 7447TIP3   OH243831   1.498   3.328  17.025 -0.2612 -0.6559 -0.1266
 7447TIP3    H143832   1.446   3.255  17.058 -2.6977  0.9043 -0.3348
 7447TIP3    H243833   1.533   3.297  16.941 -0.9332 -1.7000 -0.0318
 7448TIP3   OH243834   5.841   1.197  16.514 -0.0578 -0.0630 -0.1479
 7448TIP3    H143835   5.772   1.191  16.447  0.3689 -1.5129 -0.4961
 7448TIP3    H243836   5.911   1.247  16.471 -0.4094  0.3659 -0.2260
 7449TIP3   OH243837   1.578   1.541  12.681  0.0500 -0.1811 -0.8012
 7449TIP3    H143838   1.494   1.518  12.642 -0.9197  1.0088  0.4790
 7449TIP3    H243839   1.580   1.494  12.764  0.0209  0.8246 -0.2100
 7450TIP3   OH243840   4.788   5.999  13.609 -0.5771 -0.0306 -0.8932
 7450TIP3    H143841   4.713   6.017  13.554 -0.7916 -1.1978 -1.0061
 7450TIP3    H243842   4.752   5.959  13.688 -0.0335 -1.3509 -1.2889
 7451TIP3   OH243843   4.283   5.012   3.484 -0.7685  0.5423  0.2789
 7451TIP3    H143844   4.276   5.103   3.512  0.5837  0.9790 -0.6764
 7451TIP3    H243845   4.317   4.965   3.560  3.0372  1.7317 -0.4818
 7452TIP3   OH243846   1.840   5.302   0.760 -0.3107 -0.0036 -0.7979
 7452TIP3    H143847   1.802   5.329   0.843 -0.5551  1.5538 -1.3911
 7452TIP3    H243848   1.887   5.379   0.728 -1.9368  0.1634 -3.0787
 7453TIP3   OH243849   2.158   4.865  13.220  0.0652 -0.5410  0.4299
 7453TIP3    H143850   2.063   4.870  13.203 -0.1146 -1.2366  1.1492
 7453TIP3    H243851   2.186   4.789  13.168  0.0017 -1.0428  1.1084
 7454TIP3   OH243852   5.679   4.988  13.118 -0.0021 -0.2043  0.7273
 7454TIP3    H143853   5.644   4.990  13.207  4.0696  1.7652  2.5608
 7454TIP3    H243854   5.690   4.894  13.099 -0.3915 -0.6644  2.5686
 7455TIP3   OH243855   1.708   5.562  13.832 -0.0759  0.4584  0.1119
 7455TIP3    H143856   1.709   5.475  13.872 -0.4690 -0.3904 -1.6093
 7455TIP3    H243857   1.790   5.568  13.784 -0.4107  0.6971 -0.4470
 7456TIP3   OH243858   5.235   2.018  14.154  0.0434 -0.9694 -0.4961
 7456TIP3    H143859   5.195   2.103  14.135 -0.2972 -1.2149 -0.9097
 7456TIP3    H243860   5.307   2.038  14.214 -0.0463 -0.3926 -0.5715
 7457TIP3   OH243861   2.014   2.783   0.245 -0.0406 -0.2732 -0.5999
 7457TIP3    H143862   2.038   2.858   0.300 -2.0340 -0.3175  0.4186
 7457TIP3    H243863   1.919   2.776   0.255 -0.0990 -1.9419 -1.9802
 7458TIP3   OH243864   5.784   3.350   1.220 -0.2881 -0.0436  0.5440
 7458TIP3    H143865   5.826   3.269   1.192 -1.6384 -0.6294  0.1526
 7458TIP3    H243866   5.770   3.338   1.314 -0.0230 -0.0428  0.5846
 7459TIP3   OH243867   6.355   6.618   5.176  0.4260  0.1196 -0.3927
 7459TIP3    H143868   6.431   6.603   5.233 -0.0613 -0.3424  0.1559
 7459TIP3    H243869   6.347   6.713   5.170 -0.9181  0.2878  2.2958
 7460TIP3   OH243870   4.901   0.443  12.688 -0.0854 -0.1459  0.4475
 7460TIP3    H143871   4.953   0.517  12.657  0.4127 -0.6144  0.1339
 7460TIP3    H243872   4.813   0.460  12.654 -0.3542  1.0728  1.6726
 7461TIP3   OH243873   0.322   6.572   4.848  0.4631 -0.4158  0.1651
 7461TIP3    H143874   0.266   6.582   4.770 -0.0995 -0.6251  0.5310
 7461TIP3    H243875   0.388   6.508   4.821  1.0556  0.4770 -0.5524
 7462TIP3   OH243876   4.948   6.777  12.709  0.3744 -0.1473  0.4393
 7462TIP3    H143877   4.983   6.814  12.791 -0.2044 -2.1629  1.6486
 7462TIP3    H243878   4.857   6.757  12.729 -0.4160  1.3314 -1.4331
 7463TIP3   OH243879   3.396   2.215   1.464 -0.2753  0.0456  0.4358
 7463TIP3    H143880   3.317   2.161   1.458  0.5473 -1.1129 -0.3544
 7463TIP3    H243881   3.396   2.266   1.384 -0.4114  0.3319  0.6154
 7464TIP3   OH243882   3.368   6.154  15.416  0.0912  0.3488  0.7219
 7464TIP3    H143883   3.405   6.181  15.333  1.2454 -0.9574  0.7836
 7464TIP3    H243884   3.333   6.067  15.400 -0.5021  0.4490  1.3822
 7465TIP3   OH243885   0.115   4.725  13.827  0.4282  0.4195  0.3722
 7465TIP3    H143886   0.072   4.646  13.793 -0.3442 -0.0980  2.4410
 7465TIP3    H243887   0.059   4.754  13.898  0.7790  2.7888 -0.2251
 7466TIP3   OH243888   1.864   5.211  16.607  0.7021 -0.3301 -0.2537
 7466TIP3    H143889   1.784   5.249  16.571  1.3659  0.4508 -0.9586
 7466TIP3    H243890   1.847   5.203  16.701 -0.6989 -1.4874 -0.5673
 7467TIP3   OH243891   1.318   5.357   1.515 -0.0898  0.0336 -0.4565
 7467TIP3    H143892   1.333   5.443   1.555 -0.3118  0.9972 -2.3259
 7467TIP3    H243893   1.340   5.294   1.584  0.0041  1.5781  0.9935
 7468TIP3   OH243894   0.011   4.158  15.335  0.5110 -0.5411 -0.6370
 7468TIP3    H143895  -0.017   4.172  15.245  0.2297  0.7857 -0.3724
 7468TIP3    H243896   0.070   4.231  15.354  0.7175 -0.9064  0.1819
 7469TIP3   OH243897   3.025   6.337   1.283  0.2609  0.2342 -0.2952
 7469TIP3    H143898   3.020   6.260   1.339 -0.8014  0.3979 -0.1480
 7469TIP3    H243899   3.004   6.410   1.342 -3.0190  0.2226 -1.2680
 7470TIP3   OH243900   2.364   5.906  13.302  0.0119  0.1997  0.0165
 7470TIP3    H143901   2.330   5.834  13.354 -1.8521 -0.8694 -2.4780
 7470TIP3    H243902   2.307   5.980  13.321  0.2637  0.2626  0.5542
 7471TIP3   OH243903   3.759   6.251   6.859 -0.1172  1.0711  0.0820
 7471TIP3    H143904   3.743   6.284   6.771 -0.1374 -1.1420 -0.7834
 7471TIP3    H243905   3.854   6.248   6.868 -0.1102  0.5194 -0.1733
 7472TIP3   OH243906   2.268   1.460  12.029  0.2465  0.1387 -0.5027
 7472TIP3    H143907   2.206   1.515  11.981  0.5443  1.1233  0.2100
 7472TIP3    H243908   2.216   1.385  12.058 -0.3765  0.4675 -0.7522
 7473TIP3   OH243909   2.981   3.386  12.044  0.6862  0.1658  0.1265
 7473TIP3    H143910   3.070   3.361  12.070 -0.0047 -0.5466  1.9901
 7473TIP3    H243911   2.938   3.303  12.024  0.6350  0.5678 -1.5512
 7474TIP3   OH243912   3.277   6.043  13.449  0.3977  0.4296  0.6566
 7474TIP3    H143913   3.209   6.064  13.386  0.5564  1.2667  0.7501
 7474TIP3    H243914   3.353   6.020  13.395  0.7914  1.9854  0.5183
 7475TIP3   OH243915   4.545   3.831  12.051  0.8350 -0.3042  0.3767
 7475TIP3    H143916   4.469   3.843  11.994  1.0486 -0.4674  0.0546
 7475TIP3    H243917   4.526   3.885  12.128  1.5980  1.8305 -0.8344
 7476TIP3   OH243918   1.505   4.773   1.043 -0.6398  0.0035  0.3359
 7476TIP3    H143919   1.528   4.749   0.953 -0.3541  0.8220  0.1831
 7476TIP3    H243920   1.579   4.744   1.095  0.3881  1.8073 -0.0386
 7477TIP3   OH243921   3.968   1.127   1.526  0.0018  0.1046  0.1480
 7477TIP3    H143922   3.930   1.039   1.534  2.4210 -1.0115  0.1370
 7477TIP3    H243923   3.978   1.156   1.617 -2.0174  0.9909  0.1365
 7478TIP3   OH243924   3.079   5.198   6.376  0.8413 -0.2096  0.3740
 7478TIP3    H143925   3.157   5.148   6.353  1.8754  0.6493  1.8120
 7478TIP3    H243926   3.095   5.227   6.466 -1.3717 -0.4298  0.9028
 7479TIP3   OH243927   0.039   3.965  15.529 -0.0140 -0.5259 -0.0609
 7479TIP3    H143928   0.031   4.017  15.450 -1.1782 -1.6921 -0.7524
 7479TIP3    H243929   0.129   3.933  15.529  0.7799  1.5453  0.4685
 7480TIP3   OH243930   3.786   3.814   1.825 -0.1345  0.0210  0.1139
 7480TIP3    H143931   3.741   3.744   1.778  0.6346 -0.7551  0.5114
 7480TIP3    H243932   3.766   3.893   1.774 -1.0967 -0.4553 -0.2761
 7481TIP3   OH243933   3.387   0.318  14.731 -0.7526 -0.2096  0.4332
 7481TIP3    H143934   3.345   0.240  14.768 -1.8094  0.2397  0.2308
 7481TIP3    H243935   3.316   0.382  14.724  0.1886  0.9472  1.0477
 7482TIP3   OH243936   5.328   2.087  14.451  0.0941 -0.6269 -0.0594
 7482TIP3    H143937   5.320   2.145  14.526 -0.4829  0.9735 -1.3147
 7482TIP3    H243938   5.353   2.002  14.489 -0.8806 -0.0553  1.9750
 7483TIP3   OH243939   3.135   0.834  13.466 -0.5653  0.1017  0.3291
 7483TIP3    H143940   3.119   0.887  13.388  3.0550  1.4227  0.2832
 7483TIP3    H243941   3.173   0.894  13.530 -0.5173 -1.5715  1.9807
 7484TIP3   OH243942   4.442   0.127  12.109 -0.1416 -0.0771 -0.2921
 7484TIP3    H143943   4.356   0.147  12.147 -0.3093  1.3959 -1.3646
 7484TIP3    H243944   4.471   0.049  12.156 -0.5588  1.3126  2.4549
 7485TIP3   OH243945   2.321   0.616   5.035 -0.6989 -0.0435  0.1401
 7485TIP3    H143946   2.226   0.619   5.025 -0.7760  1.1838  0.9366
 7485TIP3    H243947   2.353   0.577   4.954 -1.9011 -0.8267  0.0222
 7486TIP3   OH243948   3.431   2.616   2.869  0.8813 -0.1316 -0.3405
 7486TIP3    H143949   3.432   2.615   2.965 -0.0495 -1.3798 -0.3266
 7486TIP3    H243950   3.524   2.611   2.844  1.1787  0.9747  0.4741
 7487TIP3   OH243951   5.539   2.516   5.060 -0.2048 -0.4326 -0.6091
 7487TIP3    H143952   5.562   2.544   5.149 -0.4124 -1.8218 -0.1064
 7487TIP3    H243953   5.621   2.519   5.012  0.0629 -0.4716 -0.1572
 7488TIP3   OH243954   6.272   3.757   4.776 -0.2558 -0.0292 -0.7173
 7488TIP3    H143955   6.313   3.818   4.715 -2.1392  0.9823 -1.0389
 7488TIP3    H243956   6.345   3.705   4.811  1.0952  0.7419 -2.2768
 7489TIP3   OH243957   4.472   4.105   5.548  0.6182  0.1745 -0.0209
 7489TIP3    H143958   4.448   4.041   5.615  1.4701  1.0004  1.1080
 7489TIP3    H243959   4.509   4.053   5.477 -0.8649 -0.7740 -0.1530
 7490TIP3   OH243960   4.727   0.361   1.335  0.3874  0.1635  0.4769
 7490TIP3    H143961   4.797   0.349   1.399 -0.1642  0.2854  1.1226
 7490TIP3    H243962   4.763   0.328   1.252  1.1928  0.2189  0.8018
 7491TIP3   OH243963   0.740   3.124   3.869 -0.2739  0.8302  0.0675
 7491TIP3    H143964   0.727   3.050   3.929  0.6241  1.3217  0.9007
 7491TIP3    H243965   0.743   3.084   3.782  0.8904 -0.2185  0.5504
 7492TIP3   OH243966   4.285   3.431   5.403 -0.6249 -0.6196 -0.4423
 7492TIP3    H143967   4.307   3.381   5.325  0.4590 -0.0269 -0.5400
 7492TIP3    H243968   4.211   3.384   5.442 -1.3790 -0.7610 -1.9594
 7493TIP3   OH243969   6.199   3.630   0.806  0.3957 -0.8375 -0.3833
 7493TIP3    H143970   6.221   3.705   0.861 -3.6158  1.0288 -0.9490
 7493TIP3    H243971   6.245   3.647   0.724  0.8280  0.1695  0.0415
 7494TIP3   OH243972   0.556   4.839   0.418  0.1439  0.5454 -0.0323
 7494TIP3    H143973   0.593   4.751   0.414 -2.1949 -0.6671  2.2482
 7494TIP3    H243974   0.565   4.865   0.509 -2.3330  1.1633  0.0936
 7495TIP3   OH243975   6.398   0.148   4.659  0.5919  0.6460 -0.0249
 7495TIP3    H143976   6.374   0.137   4.567  1.2711  1.7020 -0.3497
 7495TIP3    H243977   6.315   0.143   4.707  0.1621  0.6793 -0.7528
 7496TIP3   OH243978   6.828   5.624  16.342  0.0437 -0.3793 -0.6591
 7496TIP3    H143979   6.791   5.656  16.424  2.0968 -1.0686  0.6396
 7496TIP3    H243980   6.879   5.698  16.308 -0.0119 -0.4038 -0.7995
 7497TIP3   OH243981   1.851   4.407   4.871  0.2671 -0.1236 -0.8170
 7497TIP3    H143982   1.902   4.488   4.875 -2.0169  1.3484  0.6009
 7497TIP3    H243983   1.760   4.435   4.875 -0.6557 -2.7549 -1.0596
 7498TIP3   OH243984   5.362   2.771  17.085  0.0667 -0.6724  0.5723
 7498TIP3    H143985   5.348   2.847  17.028  4.1233 -0.4631 -0.5127
 7498TIP3    H243986   5.323   2.698  17.038  0.9876 -0.0567 -1.2398
 7499TIP3   OH243987   6.323   4.289   3.418  0.1428 -0.5960  0.5597
 7499TIP3    H143988   6.396   4.341   3.383  1.7913 -2.2477  1.3610
 7499TIP3    H243989   6.248   4.348   3.414  1.2838  0.8488 -1.2441
 7500TIP3   OH243990   4.719   4.484  13.153  0.4637 -0.0923  0.7232
 7500TIP3    H143991   4.737   4.413  13.216 -0.0036 -0.8738 -0.0066
 7500TIP3    H243992   4.752   4.450  13.070  0.4146  0.6391  0.4036
 7501TIP3   OH243993   1.914   4.306  10.116  0.0948  0.0738 -0.1323
 7501TIP3    H143994   1.907   4.380  10.176  1.9355 -1.3340  2.0024
 7501TIP3    H243995   2.007   4.298  10.097 -0.3561  0.0282 -2.7327
 7502TIP3   OH243996   4.447   1.177  16.174  0.0983  0.0171  0.0996
 7502TIP3    H143997   4.463   1.103  16.232 -1.5433 -0.9936 -0.6692
 7502TIP3    H243998   4.371   1.221  16.212  0.0049  0.2910 -0.3961
 7503TIP3   OH243999   6.132   0.385   1.360 -0.5052  0.2609 -0.1014
 7503TIP3    H144000   6.116   0.450   1.291 -2.1968  1.3470  1.2506
 7503TIP3    H244001   6.227   0.379   1.364 -0.3170  1.7953 -1.0634
 7504TIP3   OH244002   6.711   3.091  11.442 -0.4760 -0.0194  0.4598
 7504TIP3    H144003   6.752   3.117  11.359 -0.8998 -0.9313 -0.0507
 7504TIP3    H244004   6.775   3.116  11.509 -0.1647  0.8157 -0.1282
 7505TIP3   OH244005   3.410   6.212  11.203  0.2528  0.4487  0.1289
 7505TIP3    H144006   3.481   6.188  11.144  1.8334  1.2381  1.6281
 7505TIP3    H244007   3.443   6.288  11.251 -1.3681  0.4581  1.3107
 7506TIP3   OH244008   5.612   4.035  16.067 -0.6801  0.4727 -0.3583
 7506TIP3    H144009   5.636   3.953  16.024 -1.8850  0.7107 -1.5768
 7506TIP3    H244010   5.606   4.099  15.996  3.1147  2.4646  0.8440
 7507TIP3   OH244011   4.458   4.751   3.481  0.5023  0.0095 -0.1911
 7507TIP3    H144012   4.461   4.832   3.429 -1.3995  0.3568  0.1722
 7507TIP3    H244013   4.462   4.780   3.572  0.4382 -0.3533 -0.0691
 7508TIP3   OH244014   5.139   2.994  13.499 -0.0852 -0.2493  0.6706
 7508TIP3    H144015   5.056   2.979  13.545 -0.2533 -0.1279  0.4051
 7508TIP3    H244016   5.198   2.928  13.536 -0.3490 -0.4557  0.7289
 7509TIP3   OH244017   2.622   3.621   5.209 -0.6509 -0.0029 -0.3900
 7509TIP3    H144018   2.626   3.709   5.246  0.5555  0.0401 -0.6019
 7509TIP3    H244019   2.607   3.635   5.116  1.3417  0.0575 -0.7312
 7510TIP3   OH244020   2.175   6.492   1.670 -0.1312 -0.2023  0.0624
 7510TIP3    H144021   2.236   6.560   1.700 -0.7973  0.0715  0.8548
 7510TIP3    H244022   2.140   6.526   1.587 -1.0632  0.8272  0.8534
 7511TIP3   OH244023   3.072   5.053   5.626  0.2559 -0.0536  0.3882
 7511TIP3    H144024   2.983   5.054   5.591  0.2899  0.5425  0.3191
 7511TIP3    H244025   3.066   5.099   5.710  0.7860  1.4057 -0.3322
 7512TIP3   OH244026   0.362   4.570   0.538  0.4893  0.1779 -0.1447
 7512TIP3    H144027   0.283   4.610   0.574  0.5695  0.0891  0.1380
 7512TIP3    H244028   0.361   4.593   0.445  0.2052  0.2960 -0.1138
 7513TIP3   OH244029   6.586   0.645   2.243 -0.1825  0.7589 -0.3709
 7513TIP3    H144030   6.670   0.611   2.212  0.1973 -0.2748  1.5783
 7513TIP3    H244031   6.532   0.567   2.254 -0.6502  1.1906  0.4633
 7514TIP3   OH244032   0.823   0.556   2.046 -0.2746  0.3438  0.3000
 7514TIP3    H144033   0.842   0.641   2.085  1.0180  0.1227  0.1774
 7514TIP3    H244034   0.741   0.570   1.999 -0.7038  1.1964  1.2561
 7515TIP3   OH244035   4.142   6.166   4.457  0.4968 -0.0173 -0.4799
 7515TIP3    H144036   4.200   6.240   4.477 -0.1371  0.0850  1.0787
 7515TIP3    H244037   4.074   6.204   4.401 -0.3840  0.8658  1.1122
 7516TIP3   OH244038   3.214   1.720  15.305 -0.0692  0.4711  0.9260
 7516TIP3    H144039   3.301   1.724  15.266 -0.8754  0.7163 -0.9598
 7516TIP3    H244040   3.170   1.799  15.275 -2.0824 -1.3179 -1.1503
 7517TIP3   OH244041   0.265   5.744  11.298  0.2396  0.1029  0.6442
 7517TIP3    H144042   0.340   5.685  11.298  0.1020 -0.0720  0.6843
 7517TIP3    H244043   0.294   5.819  11.351  0.0068 -0.4509  1.5796
 7518TIP3   OH244044   2.492   6.588  13.819 -0.2946 -0.3156  0.1440
 7518TIP3    H144045   2.426   6.609  13.885 -3.0463 -2.0361 -1.8475
 7518TIP3    H244046   2.499   6.667  13.765 -1.5588 -0.4214 -0.2087
 7519TIP3   OH244047   2.617   2.953   2.858 -0.0650  0.0524  0.2028
 7519TIP3    H144048   2.611   3.010   2.935 -3.7747  0.3102 -0.1045
 7519TIP3    H244049   2.651   2.870   2.892  2.9115  1.4955  1.1206
 7520TIP3   OH244050   4.194   3.581  14.247  0.1187  0.0018  0.4877
 7520TIP3    H144051   4.126   3.631  14.292 -0.1384 -0.0230  0.1227
 7520TIP3    H244052   4.147   3.522  14.189  0.4684  1.3689 -1.2820
 7521TIP3   OH244053   0.394   5.980   4.284  0.0055 -0.3659  0.2768
 7521TIP3    H144054   0.411   5.970   4.378  0.6405  3.6436  0.7723
 7521TIP3    H244055   0.300   5.965   4.275 -0.3213  0.4884  1.8430
 7522TIP3   OH244056   5.606   6.250   4.308 -0.0317 -0.1375  0.4937
 7522TIP3    H144057   5.697   6.274   4.288 -0.3182  0.7362  0.1882
 7522TIP3    H244058   5.600   6.157   4.287  0.7376 -0.1507  0.3120
 7523TIP3   OH244059   4.748   6.275  11.206 -0.0355  0.1914  0.3284
 7523TIP3    H144060   4.654   6.295  11.202 -0.2462 -0.6193  0.9315
 7523TIP3    H244061   4.756   6.188  11.166  0.3887  0.0624  0.6821
 7524TIP3   OH244062   4.265   0.985  11.838 -0.2637  0.2295  0.1833
 7524TIP3    H144063   4.298   1.002  11.750 -0.6118 -0.4054 -0.0710
 7524TIP3    H244064   4.170   0.981  11.828 -0.2083 -1.9829  0.1965
 7525TIP3   OH244065   5.035   2.348  12.555 -0.5033 -0.0606 -0.1363
 7525TIP3    H144066   5.003   2.439  12.549 -1.2293 -0.2011  1.2645
 7525TIP3    H244067   5.076   2.343  12.642  1.0756 -0.6206 -0.8743
 7526TIP3   OH244068   0.131   4.191  15.795 -0.2637 -0.0290 -0.5321
 7526TIP3    H144069   0.184   4.155  15.724  0.0105  1.1552 -0.9358
 7526TIP3    H244070   0.073   4.254  15.753  0.3901  1.2165  0.3785
 7527TIP3   OH244071   5.190   1.056   1.621 -0.0096 -0.2454 -0.4054
 7527TIP3    H144072   5.224   1.091   1.704 -1.7588  1.1088 -0.2122
 7527TIP3    H244073   5.264   1.008   1.584  1.6629  1.3703  0.6534
 7528TIP3   OH244074   3.562   1.186   5.760 -0.0921 -0.3307 -0.6849
 7528TIP3    H144075   3.528   1.110   5.808  1.6715 -0.3736  0.5962
 7528TIP3    H244076   3.595   1.244   5.828  0.4646  0.6515 -1.7634
 7529TIP3   OH244077   2.827   1.014  10.732  0.0978 -0.4244  0.5776
 7529TIP3    H144078   2.828   0.922  10.706  3.3460  0.1442 -1.9177
 7529TIP3    H244079   2.795   1.060  10.654 -0.5484  0.6850  1.4646
 7530TIP3   OH244080   1.165   1.561  13.765  0.4208  0.0557 -0.7758
 7530TIP3    H144081   1.081   1.588  13.726  1.4961 -0.0990 -3.3812
 7530TIP3    H244082   1.152   1.469  13.787 -0.0577 -0.0113 -1.3054
 7531TIP3   OH244083   5.894   5.777   1.443  0.0198 -0.2847  0.4539
 7531TIP3    H144084   5.915   5.689   1.412  1.1756  0.5907 -1.4665
 7531TIP3    H244085   5.977   5.810   1.479 -0.2722  0.1805  0.7090
 7532TIP3   OH244086   6.705   1.169   4.110  1.0222 -0.4311 -0.1256
 7532TIP3    H144087   6.752   1.116   4.046  2.0918  1.0641 -0.6235
 7532TIP3    H244088   6.666   1.240   4.058 -1.9808 -1.6781  0.2257
 7533TIP3   OH244089   2.814   6.440   3.540 -0.2972 -0.0747  0.8131
 7533TIP3    H144090   2.869   6.400   3.473 -2.4835 -1.2662 -0.3739
 7533TIP3    H244091   2.780   6.366   3.590 -1.3757  0.5796  1.0710
 7534TIP3   OH244092   3.913   3.506  13.131  0.0581 -0.2589  0.0010
 7534TIP3    H144093   3.943   3.592  13.102  0.4084 -0.6988 -0.9925
 7534TIP3    H244094   3.860   3.524  13.208 -1.4889  1.0374 -1.2937
 7535TIP3   OH244095   0.006   3.221  14.249  0.7124  0.1848 -0.4853
 7535TIP3    H144096   0.003   3.193  14.341 -2.1276 -0.0231 -0.5527
 7535TIP3    H244097   0.016   3.140  14.200  2.5956  0.3258 -0.4136
 7536TIP3   OH244098   4.956   1.125   4.034 -0.1478 -0.2358  0.5414
 7536TIP3    H144099   4.932   1.107   4.125 -1.3742 -1.7413 -0.0424
 7536TIP3    H244100   4.877   1.107   3.984  0.9184 -0.9049 -0.9900
 7537TIP3   OH244101   1.760   4.953   3.763 -0.2087 -0.2200  0.3112
 7537TIP3    H144102   1.837   5.008   3.779 -0.7921  0.1219  2.1509
 7537TIP3    H244103   1.796   4.872   3.727  0.8534  0.5082 -0.3303
 7538TIP3   OH244104   4.000   1.472  16.335 -0.5570  0.0586 -0.4589
 7538TIP3    H144105   4.066   1.431  16.279 -0.9829 -2.0660  0.4693
 7538TIP3    H244106   4.048   1.535  16.388  0.3446  0.0227 -1.2120
 7539TIP3   OH244107   5.379   3.711  15.165  0.5035  0.3542  0.1028
 7539TIP3    H144108   5.375   3.667  15.249  1.4118  1.7144  0.9050
 7539TIP3    H244109   5.352   3.801  15.184 -0.1308  0.4738 -1.2410
 7540TIP3   OH244110   2.404   2.230  14.217 -0.2838 -0.0399  0.3152
 7540TIP3    H144111   2.417   2.297  14.150  1.1421  0.5910  1.1922
 7540TIP3    H244112   2.451   2.154  14.185 -1.9866 -0.7224 -0.7297
 7541TIP3   OH244113   2.893   6.838   0.785  0.2317  0.0487  0.0306
 7541TIP3    H144114   2.987   6.831   0.770  0.3762 -0.3413  0.9990
 7541TIP3    H244115   2.876   6.778   0.859 -0.9374 -0.6667 -0.7773
 7542TIP3   OH244116   0.098   1.156  13.100  0.0783 -0.3138 -0.2079
 7542TIP3    H144117   0.120   1.064  13.086  1.6404  0.0075 -0.1082
 7542TIP3    H244118   0.022   1.154  13.158 -1.8435 -1.5475 -2.5660
 7543TIP3   OH244119   2.588   2.241  11.590 -0.6009 -0.1242 -0.2636
 7543TIP3    H144120   2.643   2.267  11.663  0.3965  0.3919 -1.1656
 7543TIP3    H244121   2.499   2.261  11.618 -0.3396 -0.8783  1.1911
 7544TIP3   OH244122   4.067   4.534  12.593  0.0033  0.2501  0.3242
 7544TIP3    H144123   3.981   4.516  12.632  0.0869 -0.1187  0.3444
 7544TIP3    H244124   4.051   4.608  12.534 -0.2644  0.3790  0.5528
 7545TIP3   OH244125   3.022   3.284   0.964 -0.0642 -0.4496  0.3359
 7545TIP3    H144126   3.097   3.284   0.904 -0.6244  0.0664 -0.3915
 7545TIP3    H244127   2.975   3.365   0.943 -1.3936 -1.2655  0.0156
 7546TIP3   OH244128   2.848   0.377  11.389 -0.5311  0.0687 -0.5543
 7546TIP3    H144129   2.868   0.312  11.458  1.5978  0.6901 -0.5180
 7546TIP3    H244130   2.858   0.328  11.307  2.1429  0.4937 -0.5779
 7547TIP3   OH244131   6.105   1.513   1.580 -0.1319 -0.0380  0.9009
 7547TIP3    H144132   6.172   1.547   1.639  0.6328  3.8272 -1.8380
 7547TIP3    H244133   6.150   1.444   1.530  1.0227  0.6791  0.9087
 7548TIP3   OH244134   5.258   5.059   5.525  0.5293  0.3027  0.3700
 7548TIP3    H144135   5.216   5.144   5.511  1.1733  0.9872  2.2067
 7548TIP3    H244136   5.347   5.081   5.553  0.8066 -0.9892  0.5765
 7549TIP3   OH244137   4.907   5.686  11.956  0.3049  0.2741  0.2162
 7549TIP3    H144138   4.840   5.627  11.921  1.2115 -0.6429  0.0059
 7549TIP3    H244139   4.938   5.642  12.035  0.1883  1.0299  0.6925
 7550TIP3   OH244140   2.807   0.481  12.479  0.1233  0.0185  0.0680
 7550TIP3    H144141   2.729   0.464  12.532 -1.6951  0.9480 -2.1424
 7550TIP3    H244142   2.773   0.525  12.401  2.8738  0.2663 -1.0769
 7551TIP3   OH244143   4.531   3.608   0.226 -0.2052  0.4328  0.2865
 7551TIP3    H144144   4.564   3.537   0.281  0.0459  0.5727  0.3162
 7551TIP3    H244145   4.435   3.601   0.233 -0.2468  2.1598  3.0383
 7552TIP3   OH244146   3.718   3.288  16.008  0.8479  0.1313 -0.0321
 7552TIP3    H144147   3.651   3.332  15.956  0.6208  1.4252  1.2828
 7552TIP3    H244148   3.767   3.235  15.945  0.2323  1.1948 -1.4465
 7553TIP3   OH244149   2.870   4.809   3.688  0.3647  0.0638 -0.2130
 7553TIP3    H144150   2.802   4.850   3.741  0.9603  1.2755 -0.3676
 7553TIP3    H244151   2.950   4.819   3.740  0.7813  0.4312 -0.9170
 7554TIP3   OH244152   4.273   0.270   5.542 -0.3292  0.2266 -0.3873
 7554TIP3    H144153   4.325   0.233   5.470 -1.3718 -0.8183 -0.6344
 7554TIP3    H244154   4.251   0.358   5.512 -0.8901 -0.2521 -1.4405
 7555TIP3   OH244155   0.459   5.967   1.586  0.5175  0.1357 -0.5147
 7555TIP3    H144156   0.437   5.873   1.585  0.5629  0.1261 -0.9680
 7555TIP3    H244157   0.424   6.000   1.503 -3.8683  1.5646  1.5961
 7556TIP3   OH244158   5.753   4.961  10.918 -0.0093  0.0204  0.2938
 7556TIP3    H144159   5.790   5.044  10.947 -0.5933 -0.1513  1.5867
 7556TIP3    H244160   5.811   4.894  10.955  0.4646 -0.1693 -0.7506
 7557TIP3   OH244161   3.416   4.910   1.108  0.1554 -0.2502  0.1528
 7557TIP3    H144162   3.455   4.825   1.088  1.7101  1.0105 -2.9551
 7557TIP3    H244163   3.482   4.955   1.160 -0.3260 -0.6439  1.1165
 7558TIP3   OH244164   1.673   4.718  16.473 -0.4692 -0.2004 -0.3808
 7558TIP3    H144165   1.578   4.708  16.467 -0.8494  2.0239  0.8046
 7558TIP3    H244166   1.691   4.800  16.427  1.1301 -1.3023 -1.8794
 7559TIP3   OH244167   2.967   5.621   5.489 -0.2358  0.3988  0.0274
 7559TIP3    H144168   3.058   5.647   5.502  0.3485 -1.6226  0.2415
 7559TIP3    H244169   2.971   5.528   5.466 -2.2801  0.1036  0.6579
 7560TIP3   OH244170   2.088   5.364  14.916  0.2135  0.0969  0.1442
 7560TIP3    H144171   2.069   5.424  14.844 -0.7331 -0.0952  0.2197
 7560TIP3    H244172   2.136   5.292  14.875  2.9996  1.6954  0.3476
 7561TIP3   OH244173   2.621   5.443   5.286 -0.2459  0.2301 -0.3356
 7561TIP3    H144174   2.575   5.395   5.355 -1.3816  0.6139 -0.8053
 7561TIP3    H244175   2.693   5.384   5.260 -1.5357 -1.2088 -0.8188
 7562TIP3   OH244176   6.799   4.833   4.979  0.4450 -0.4593  0.1910
 7562TIP3    H144177   6.804   4.880   4.896  1.8711 -3.2512 -1.4095
 7562TIP3    H244178   6.716   4.785   4.975  0.5948 -0.7313  0.3141
 7563TIP3   OH244179   5.532   6.824  12.047 -0.7267  0.7843 -0.1262
 7563TIP3    H144180   5.550   6.736  12.080 -0.2046  1.5317  1.6788
 7563TIP3    H244181   5.449   6.849  12.087 -0.1273  1.6817  0.5880
 7564TIP3   OH244182   2.090   5.075   3.532 -0.0320  0.4916  0.1043
 7564TIP3    H144183   2.037   5.136   3.583  0.6043  1.2031 -0.0761
 7564TIP3    H244184   2.164   5.055   3.589  0.6198  1.1914 -0.4836
 7565TIP3   OH244185   2.590   2.280  16.228  0.0789  0.0295  0.4824
 7565TIP3    H144186   2.655   2.267  16.159 -0.9059 -0.9895 -0.3106
 7565TIP3    H244187   2.627   2.237  16.305 -0.3628 -2.1525 -0.4285
 7566TIP3   OH244188   4.542   4.516   3.162  0.3813 -0.0730  0.3846
 7566TIP3    H144189   4.455   4.493   3.194  0.7193 -0.9207  0.7232
 7566TIP3    H244190   4.540   4.612   3.153 -0.9576 -0.1668 -0.7230
 7567TIP3   OH244191   2.754   5.467  15.462  0.1271 -0.1338 -0.2388
 7567TIP3    H144192   2.666   5.438  15.436 -0.7741  0.6081  1.7647
 7567TIP3    H244193   2.779   5.406  15.531  0.3476  0.7892  0.5198
 7568TIP3   OH244194   0.490   6.352   4.876  0.1077 -0.0915  0.5733
 7568TIP3    H144195   0.576   6.387   4.901  0.5093 -1.0007  0.4958
 7568TIP3    H244196   0.484   6.268   4.922 -0.4717 -0.3281  0.0796
 7569TIP3   OH244197   3.198   3.017   5.678  0.1744 -0.2415  0.1486
 7569TIP3    H144198   3.275   3.046   5.726  0.5235  0.7031 -0.9262
 7569TIP3    H244199   3.206   3.060   5.592 -2.6599  1.7402  0.7175
 7570TIP3   OH244200   0.361   1.049  11.140 -0.0193  0.7403 -0.1708
 7570TIP3    H144201   0.363   0.964  11.095  0.5585  0.3242  0.6314
 7570TIP3    H244202   0.453   1.073  11.152 -0.0675 -0.1057  2.5327
 7571TIP3   OH244203   0.988   5.340   1.139  0.2335  0.3970  0.2274
 7571TIP3    H144204   0.914   5.372   1.191 -0.0838  2.0222 -1.1525
 7571TIP3    H244205   1.066   5.368   1.188 -0.0654  1.1738  0.2725
 7572TIP3   OH244206   5.305   4.448  16.649 -0.2583 -0.0681 -0.2177
 7572TIP3    H144207   5.299   4.404  16.564 -0.8680 -0.7978  0.1970
 7572TIP3    H244208   5.215   4.472  16.670  0.0122  1.0908 -0.2684
 7573TIP3   OH244209   2.996   4.992  16.547  0.0911  0.1386 -0.4537
 7573TIP3    H144210   2.950   5.024  16.625 -0.4917  1.4325 -1.2861
 7573TIP3    H244211   2.960   4.905  16.531  0.4748 -0.2877  0.9071
 7574TIP3   OH244212   4.384   2.757  15.167  0.1086  0.3826 -0.4132
 7574TIP3    H144213   4.396   2.775  15.260  1.5166  0.9034 -0.6612
 7574TIP3    H244214   4.437   2.824  15.123 -0.2336 -0.0843 -1.5769
 7575TIP3   OH244215   5.118   4.918   4.717  0.6859  0.1015 -0.2443
 7575TIP3    H144216   5.145   5.007   4.694  0.5357  0.2551  0.1610
 7575TIP3    H244217   5.162   4.862   4.653  0.7445  0.4708 -0.5303
 7576TIP3   OH244218   1.045   1.335   4.894  0.6386  0.3421  0.1936
 7576TIP3    H144219   1.062   1.365   4.984 -0.8573 -1.2053  1.0464
 7576TIP3    H244220   1.006   1.411   4.851 -0.9107  0.4224  1.6067
 7577TIP3   OH244221   1.033   5.370  16.399 -0.4888  0.2880  0.4030
 7577TIP3    H144222   1.047   5.287  16.443 -0.7050 -0.6419 -1.1996
 7577TIP3    H244223   0.948   5.360  16.355  0.4334  0.5216 -1.5352
 7578TIP3   OH244224   3.121   5.709   2.094 -0.0163 -0.0663  0.1242
 7578TIP3    H144225   3.152   5.701   2.004  0.3657 -2.6320  0.4067
 7578TIP3    H244226   3.100   5.802   2.104 -1.1957  0.1223 -2.9505
 7579TIP3   OH244227   1.776   2.946  15.441  0.1520  0.2355 -0.5062
 7579TIP3    H144228   1.858   2.973  15.483  0.5707 -0.6729 -0.7114
 7579TIP3    H244229   1.797   2.941  15.348 -0.0396 -0.3260 -0.5216
 7580TIP3   OH244230   5.790   4.047  11.795 -0.1584  0.3565  0.3536
 7580TIP3    H144231   5.865   4.089  11.753 -0.5856  1.3290  0.5428
 7580TIP3    H244232   5.777   4.095  11.876 -0.4303 -0.3916  0.7658
 7581TIP3   OH244233   2.349   0.456  11.132 -0.2048 -0.4738 -0.4452
 7581TIP3    H144234   2.424   0.499  11.171  0.7104 -0.1764 -2.4139
 7581TIP3    H244235   2.273   0.504  11.166  0.6347  0.8779 -0.4046
 7582TIP3   OH244236   3.225   2.438  14.819 -0.5051  0.3381  0.2048
 7582TIP3    H144237   3.244   2.531  14.803 -1.2437  0.3694 -0.5620
 7582TIP3    H244238   3.263   2.393  14.744 -3.1698  0.3888 -1.3166
 7583TIP3   OH244239   4.638   2.748  11.962  0.3118 -0.3870 -0.1133
 7583TIP3    H144240   4.561   2.703  11.996  0.5764 -1.7395 -1.2298
 7583TIP3    H244241   4.692   2.765  12.039 -0.8125  0.0224  0.5971
 7584TIP3   OH244242   2.275   5.920   0.323 -0.0501 -0.5099  0.1362
 7584TIP3    H144243   2.352   5.885   0.279  0.5379  1.4485 -0.4979
 7584TIP3    H244244   2.202   5.869   0.288  0.9132 -2.3160  0.6561
 7585TIP3   OH244245   0.650   0.618  15.901  0.0044  0.5539  0.0730
 7585TIP3    H144246   0.700   0.600  15.981  0.1646  0.8700  0.0451
 7585TIP3    H244247   0.707   0.586  15.831 -0.8482 -1.2814  0.1665
 7586TIP3   OH244248   4.230   6.556  12.508 -0.0264 -0.3662  0.5770
 7586TIP3    H144249   4.234   6.512  12.422  0.2647  0.5918  0.0898
 7586TIP3    H244250   4.311   6.531  12.551 -0.9173 -2.2628  1.3153
 7587TIP3   OH244251   3.325   2.098  12.742 -0.0501  0.0133  0.4931
 7587TIP3    H144252   3.293   2.015  12.706  0.3157 -0.9926  2.3471
 7587TIP3    H244253   3.298   2.096  12.834  3.6093 -0.0713  1.7314
 7588TIP3   OH244254   0.895   0.538  13.622  0.2237 -0.4135  0.6234
 7588TIP3    H144255   0.936   0.570  13.541 -1.0952  2.6517  1.0286
 7588TIP3    H244256   0.833   0.471  13.592  2.4176 -2.0853 -0.4227
 7589TIP3   OH244257   3.155   1.804   4.487  0.1755 -0.2305  0.1733
 7589TIP3    H144258   3.221   1.865   4.519 -0.1668  0.9138 -1.2261
 7589TIP3    H244259   3.106   1.779   4.565  0.8485  0.6376  0.8957
 7590TIP3   OH244260   0.929   6.218  11.886 -0.1993 -0.2089  0.5706
 7590TIP3    H144261   1.007   6.168  11.912 -0.5406 -2.6378 -2.4886
 7590TIP3    H244262   0.964   6.292  11.837  0.2351 -0.0599  1.1000
 7591TIP3   OH244263   3.155   1.985   3.960  0.7817 -0.4441  0.4431
 7591TIP3    H144264   3.247   1.996   3.937  0.6929  0.9432  0.6636
 7591TIP3    H244265   3.156   1.919   4.030  1.6526 -0.1169  0.7509
 7592TIP3   OH244266   1.939   5.888   5.438  0.1135  0.0634 -0.0643
 7592TIP3    H144267   2.034   5.888   5.428 -0.0778 -0.0828 -2.5965
 7592TIP3    H244268   1.921   5.819   5.501  1.6178 -1.1376 -0.8811
 7593TIP3   OH244269   6.070   0.556   0.838 -0.4098 -0.1915 -0.5088
 7593TIP3    H144270   6.126   0.487   0.873 -0.7969  0.1079  0.7564
 7593TIP3    H244271   6.001   0.510   0.790 -1.4070 -0.7852  1.4158
 7594TIP3   OH244272   2.630   2.079  11.899  0.1419 -0.6237 -0.5187
 7594TIP3    H144273   2.677   2.130  11.965 -0.3040  0.8649 -1.3021
 7594TIP3    H244274   2.579   2.016  11.949  1.4364 -0.9622  0.4360
 7595TIP3   OH244275   4.840   4.729  16.282 -0.0274 -0.2278 -0.3934
 7595TIP3    H144276   4.748   4.755  16.288  0.3976  1.3390 -0.0083
 7595TIP3    H244277   4.853   4.668  16.354 -0.6151  0.0846 -0.0134
 7596TIP3   OH244278   3.145   4.153   4.850 -0.0786 -0.2007  0.4381
 7596TIP3    H144279   3.141   4.229   4.791  1.0027  0.2230  0.8935
 7596TIP3    H244280   3.087   4.088   4.809  0.5715  0.1204 -1.0594
 7597TIP3   OH244281   5.893   6.329  12.504 -0.2929 -0.2626  0.0847
 7597TIP3    H144282   5.812   6.298  12.463 -1.2004  0.2817  1.4199
 7597TIP3    H244283   5.882   6.423  12.512 -0.2559 -0.3674  1.7716
 7598TIP3   OH244284   5.615   4.828  11.799  0.6802 -0.4302  0.1617
 7598TIP3    H144285   5.549   4.887  11.835  0.5355 -0.7567  0.4351
 7598TIP3    H244286   5.614   4.846  11.705 -0.1978 -0.8237  0.0852
 7599TIP3   OH244287   2.974   2.556   4.080  0.2049  0.2130  0.1893
 7599TIP3    H144288   2.911   2.617   4.117  1.1115  0.7433  0.9020
 7599TIP3    H244289   3.025   2.525   4.155  0.1062 -1.0221 -0.2345
 7600TIP3   OH244290   2.870   0.764   4.950 -0.1870 -0.7158 -0.3193
 7600TIP3    H144291   2.942   0.701   4.940  1.6625  1.4795 -1.7806
 7600TIP3    H244292   2.832   0.743   5.035  1.2252 -2.9013 -0.1418
 7601TIP3   OH244293   2.689   1.805   2.877 -0.6351 -0.0118 -0.2788
 7601TIP3    H144294   2.622   1.740   2.856 -0.7919 -0.1951  0.7353
 7601TIP3    H244295   2.690   1.808   2.973  0.3919  0.4261 -0.2948
 7602TIP3   OH244296   2.840   5.464  15.195 -0.1103  0.1576  0.0802
 7602TIP3    H144297   2.922   5.416  15.195 -0.4661 -0.4955 -0.9058
 7602TIP3    H244298   2.810   5.462  15.286  0.7670  0.0799  0.3726
 7603TIP3   OH244299   3.901   2.261   1.941  0.0696  0.4228  0.8284
 7603TIP3    H144300   3.851   2.180   1.943  0.6672  0.0289  0.0037
 7603TIP3    H244301   3.954   2.259   2.021  0.4636 -0.2525  0.5550
 7604TIP3   OH244302   3.140   0.626   4.373  0.2177 -0.6487  0.2249
 7604TIP3    H144303   3.104   0.714   4.386  0.4456 -0.5292  0.0434
 7604TIP3    H244304   3.184   0.630   4.288  0.5895 -0.8190  0.4066
 7605TIP3   OH244305   6.216   6.330  16.205 -0.5282 -0.1653 -0.1942
 7605TIP3    H144306   6.291   6.382  16.174 -0.5957  0.3522  0.4748
 7605TIP3    H244307   6.149   6.342  16.138  0.3950 -1.6723 -1.4597
 7606TIP3   OH244308   1.937   2.754   5.119  0.0871 -0.1244 -0.2314
 7606TIP3    H144309   1.911   2.738   5.028 -1.4192  0.6631  0.0436
 7606TIP3    H244310   1.857   2.744   5.170  1.2439 -2.4530  1.3040
 7607TIP3   OH244311   4.310   4.916   5.845 -0.2520 -0.9387 -0.0064
 7607TIP3    H144312   4.220   4.950   5.846 -1.3392 -3.4459 -1.5039
 7607TIP3    H244313   4.339   4.930   5.755  0.5987 -0.8095  0.2819
 7608TIP3   OH244314   1.753   3.709   4.842 -0.6459  0.0746  0.6052
 7608TIP3    H144315   1.671   3.691   4.888 -0.1986 -0.7285  1.1060
 7608TIP3    H244316   1.815   3.646   4.878  1.0474  2.6473  2.5227
 7609TIP3   OH244317   1.661   3.815  13.155  0.1100  0.1463  0.3170
 7609TIP3    H144318   1.587   3.754  13.146 -0.1357  0.5504 -0.4570
 7609TIP3    H244319   1.726   3.766  13.206  0.2915 -1.1123 -1.0668
 7610TIP3   OH244320   4.688   5.572   3.739  0.4388  0.2161 -0.6426
 7610TIP3    H144321   4.707   5.661   3.769 -1.2583  0.1854  0.6795
 7610TIP3    H244322   4.774   5.535   3.718  1.2738  1.7854 -0.1621
 7611TIP3   OH244323   3.110   0.323  11.175  0.0253 -0.0916 -0.8958
 7611TIP3    H144324   3.191   0.291  11.137 -0.7567 -0.6342 -2.1797
 7611TIP3    H244325   3.116   0.302  11.268  2.1507  1.5682 -0.5659
 7612TIP3   OH244326   0.851   1.439   0.875 -0.1368  0.1505  0.3418
 7612TIP3    H144327   0.839   1.432   0.970 -0.1876 -1.8516  0.2290
 7612TIP3    H244328   0.765   1.465   0.842 -0.5701 -0.7684  0.7149
 7613TIP3   OH244329   4.551   2.697   2.205  0.4090 -0.0897 -0.7982
 7613TIP3    H144330   4.471   2.668   2.162 -0.9555  3.0066 -0.6370
 7613TIP3    H244331   4.527   2.708   2.297  1.3578 -0.2420 -0.5195
 7614TIP3   OH244332   2.875   6.732   1.164 -0.5127 -0.0644 -0.1149
 7614TIP3    H144333   2.846   6.822   1.182 -2.2484 -0.7217  0.5619
 7614TIP3    H244334   2.812   6.677   1.210  0.8284 -1.6375 -0.0964
 7615TIP3   OH244335   2.253   0.816  11.605  0.1436  0.1555 -0.5742
 7615TIP3    H144336   2.265   0.721  11.596 -1.9871 -0.2848  0.7101
 7615TIP3    H244337   2.337   0.847  11.639 -0.2155 -1.8566  2.5130
 7616TIP3   OH244338   0.238   5.915  16.971 -0.5946 -0.6798 -0.8486
 7616TIP3    H144339   0.223   6.002  16.935 -1.3007 -0.0850  0.7973
 7616TIP3    H244340   0.333   5.909  16.981 -0.4698 -0.4728 -1.8312
 7617TIP3   OH244341   5.501   3.929  15.696 -0.2947 -0.3235  0.1150
 7617TIP3    H144342   5.449   3.965  15.767  0.1412  4.1989 -1.5606
 7617TIP3    H244343   5.591   3.929  15.729 -0.4704 -1.6799  0.6789
 7618TIP3   OH244344   5.582   1.101   1.495  0.3316 -0.0888  0.1656
 7618TIP3    H144345   5.670   1.134   1.509  0.6936 -0.6479 -0.6949
 7618TIP3    H244346   5.524   1.168   1.532  1.1022  0.4344  0.4328
 7619TIP3   OH244347   3.787   6.018   3.754  0.3321 -0.0783  0.8049
 7619TIP3    H144348   3.766   5.979   3.670  0.8503  1.2658  0.0259
 7619TIP3    H244349   3.744   5.961   3.818 -1.1024 -0.4418 -0.4167
 7620TIP3   OH244350   3.837   2.160  13.840  0.1354  0.6514 -0.1299
 7620TIP3    H144351   3.857   2.163  13.934  1.6753  1.5577 -0.4560
 7620TIP3    H244352   3.881   2.081  13.808  1.3737  1.4255 -0.4266
 7621TIP3   OH244353   5.527   4.077   0.795  0.0089 -0.0602  0.3002
 7621TIP3    H144354   5.595   4.046   0.854 -0.7179  0.0086  1.1883
 7621TIP3    H244355   5.474   4.136   0.848 -0.3630  0.4017 -0.5591
 7622TIP3   OH244356   0.980   6.463  13.253  0.3684 -0.0892 -0.4178
 7622TIP3    H144357   1.057   6.423  13.212  0.4277 -0.9269  0.4770
 7622TIP3    H244358   0.934   6.390  13.295  0.0801  0.6632  0.6184
 7623TIP3   OH244359   5.320   1.003   0.599  0.2883  0.0186 -0.1561
 7623TIP3    H144360   5.383   1.068   0.566 -1.2087  1.8698  0.4108
 7623TIP3    H244361   5.369   0.955   0.666  1.3078  0.9319 -0.1984
 7624TIP3   OH244362   1.320   4.712   1.463 -0.2873  0.0232  0.6759
 7624TIP3    H144363   1.300   4.685   1.374 -2.2640 -2.3208  1.7001
 7624TIP3    H244364   1.236   4.708   1.509  0.9586 -0.9403  3.0903
 7625TIP3   OH244365   5.107   6.729   5.900  0.5602  0.1211 -0.1202
 7625TIP3    H144366   5.111   6.719   5.995  0.2474  0.5356 -0.0645
 7625TIP3    H244367   5.014   6.721   5.878  0.7781 -1.5963 -0.5730
 7626TIP3   OH244368   5.790   1.597   1.477  0.3791  0.8215 -0.0098
 7626TIP3    H144369   5.877   1.617   1.444  0.8350  0.9200  1.2155
 7626TIP3    H244370   5.802   1.585   1.571 -0.2843 -2.8225 -0.2787
 7627TIP3   OH244371   2.834   5.148   6.665  0.0107 -0.5483 -0.1851
 7627TIP3    H144372   2.814   5.075   6.723 -2.6819  0.1366 -0.1163
 7627TIP3    H244373   2.783   5.130   6.586  1.5646 -0.1421 -1.3319
 7628TIP3   OH244374   5.440   3.158  16.120  0.2245  0.1268  0.1779
 7628TIP3    H144375   5.439   3.190  16.029  0.4073 -0.0728  0.1054
 7628TIP3    H244376   5.358   3.190  16.157  0.0248 -0.0140 -0.1358
 7629TIP3   OH244377   3.295   0.500   4.553  0.3376 -0.5922  0.1465
 7629TIP3    H144378   3.317   0.565   4.619  1.1355 -0.8790  0.1732
 7629TIP3    H244379   3.264   0.551   4.478 -0.3844 -0.2591  0.6558
 7630TIP3   OH244380   6.447   4.597   1.474 -0.1133 -0.7618  0.1108
 7630TIP3    H144381   6.413   4.686   1.483  0.5463 -0.1859 -2.2870
 7630TIP3    H244382   6.375   4.541   1.501 -1.2443  0.4812 -0.1818
 7631TIP3   OH244383   0.938   3.355  10.758  0.2081 -0.4108  0.4012
 7631TIP3    H144384   0.913   3.265  10.737  2.3577 -0.9530 -0.0577
 7631TIP3    H244385   1.033   3.356  10.750  0.1521  2.2785 -1.0438
 7632TIP3   OH244386   5.993   1.174  16.212  0.5247  0.5949  1.0441
 7632TIP3    H144387   6.084   1.181  16.182  0.2200 -2.4645 -1.1040
 7632TIP3    H244388   5.963   1.091  16.175 -3.1672  1.4936  1.6930
 7633TIP3   OH244389   1.911   1.649   1.149  0.2422  0.4478 -0.4281
 7633TIP3    H144390   1.825   1.684   1.171  0.7529  2.7205 -1.7401
 7633TIP3    H244391   1.893   1.579   1.086 -0.6881  0.0326  0.2775
 7634TIP3   OH244392   6.422   0.552   6.074  0.2478 -0.3221 -0.2782
 7634TIP3    H144393   6.457   0.588   5.993 -1.5068 -0.6417 -1.1974
 7634TIP3    H244394   6.420   0.457   6.060 -0.0781 -0.3795  0.1355
 7635TIP3   OH244395   4.470   0.915   6.367 -0.0946 -1.1306 -0.9399
 7635TIP3    H144396   4.560   0.887   6.386  0.3553  1.0233  0.4764
 7635TIP3    H244397   4.415   0.860   6.423  0.4762 -1.4951 -0.7367
 7636TIP3   OH244398   1.479   2.577   2.476  0.1548 -0.0914  0.3730
 7636TIP3    H144399   1.395   2.595   2.434  1.3563 -0.3474 -2.3002
 7636TIP3    H244400   1.497   2.657   2.526 -0.9208  0.6181 -0.3220
 7637TIP3   OH244401   4.104   2.030  12.245 -0.7285  0.1045  0.0423
 7637TIP3    H144402   4.052   1.957  12.278  0.6785 -0.9796 -0.0210
 7637TIP3    H244403   4.173   2.041  12.311  0.3296 -0.0632 -1.0033
 7638TIP3   OH244404   4.645   0.010  15.427  0.1788  0.2250 -0.0464
 7638TIP3    H144405   4.644  -0.085  15.419  1.4179  0.2755 -1.0796
 7638TIP3    H244406   4.640   0.026  15.522 -1.2357 -0.8000  0.0899
 7639TIP3   OH244407   5.218   5.664   2.407 -0.1803 -0.3910  0.2207
 7639TIP3    H144408   5.135   5.711   2.413 -0.5687 -1.0356 -0.0035
 7639TIP3    H244409   5.242   5.644   2.497  0.8281  1.6409  0.4619
 7640TIP3   OH244410   2.015   2.340  13.165 -0.0349 -0.2702  0.0443
 7640TIP3    H144411   1.938   2.315  13.112 -1.5295  2.6167  0.6652
 7640TIP3    H244412   2.000   2.297  13.250 -0.5753 -0.3178 -0.0697
 7641TIP3   OH244413   3.806   5.725  16.513 -0.2081  0.2213  0.1286
 7641TIP3    H144414   3.752   5.803  16.522 -0.6111  0.0863 -1.0335
 7641TIP3    H244415   3.789   5.675  16.593 -0.9133  0.7282  0.3028
 7642TIP3   OH244416   6.665   6.754  12.915 -0.2154 -0.3971 -0.2993
 7642TIP3    H144417   6.721   6.689  12.874 -1.0442 -1.1008 -0.3364
 7642TIP3    H244418   6.610   6.704  12.975  0.1766  0.4609  0.8161
 7643TIP3   OH244419   1.514   6.497   1.457  0.1220  0.4576 -0.1430
 7643TIP3    H144420   1.559   6.456   1.532 -0.0563 -0.0654 -0.3140
 7643TIP3    H244421   1.441   6.545   1.496 -0.2434 -0.1906 -0.0096
 7644TIP3   OH244422   5.803   0.088  14.189 -0.2361 -0.3045 -0.1954
 7644TIP3    H144423   5.834   0.024  14.252 -1.3801 -0.8954 -0.2085
 7644TIP3    H244424   5.714   0.108  14.217 -0.8911 -0.8214 -1.7971
 7645TIP3   OH244425   6.517   4.774   0.509  0.0167  0.1791 -0.3007
 7645TIP3    H144426   6.439   4.829   0.513 -0.9603 -1.2221  1.1238
 7645TIP3    H244427   6.484   4.684   0.509  1.6133 -0.4582  0.0137
 7646TIP3   OH244428   3.758   0.361  15.529  0.1760  0.5200 -0.1454
 7646TIP3    H144429   3.698   0.297  15.490 -0.7627  1.5602 -0.4317
 7646TIP3    H244430   3.729   0.368  15.620  0.0238  0.8232 -0.2156
 7647TIP3   OH244431   2.778   5.651   3.049  0.0554 -0.3269  0.5152
 7647TIP3    H144432   2.849   5.589   3.068  0.3345  0.1124  0.9244
 7647TIP3    H244433   2.707   5.623   3.106  0.7574  0.7441  1.9813
 7648TIP3   OH244434   4.298   0.438  15.976  0.2529  0.0686 -0.2795
 7648TIP3    H144435   4.294   0.533  15.985 -0.4386  0.0001  0.1899
 7648TIP3    H244436   4.389   0.415  15.998  1.1176  0.8388 -2.6958
 7649TIP3   OH244437   0.245   5.243   4.885  0.5131  0.3601 -0.0614
 7649TIP3    H144438   0.289   5.293   4.816  0.6732 -0.4929 -0.5971
 7649TIP3    H244439   0.153   5.266   4.877  0.7067  1.3273  0.3543
 7650TIP3   OH244440   0.059   3.967  12.432 -0.3596 -0.4914 -0.1464
 7650TIP3    H144441   0.004   3.980  12.355  0.7475 -2.7437 -1.4449
 7650TIP3    H244442   0.037   3.879  12.463  0.7339 -0.4686  0.7912
 7651TIP3   OH244443   1.350   5.114  15.665 -0.1190 -0.1800 -0.0540
 7651TIP3    H144444   1.305   5.106  15.749 -1.1489 -0.4786 -0.6095
 7651TIP3    H244445   1.372   5.024  15.641 -1.1615 -0.2707 -0.7753
 7652TIP3   OH244446   5.952   4.324   2.883 -0.4167 -0.5170 -0.6849
 7652TIP3    H144447   5.886   4.390   2.862 -1.7874 -1.7639 -0.4062
 7652TIP3    H244448   5.970   4.337   2.976  0.3071  0.2925 -0.9183
 7653TIP3   OH244449   2.989   2.225  15.198 -0.0536  0.2629 -0.4059
 7653TIP3    H144450   2.904   2.265  15.181 -0.1912 -0.2920 -1.0629
 7653TIP3    H244451   3.048   2.267  15.137 -0.2591 -0.7260 -1.3103
 7654TIP3   OH244452   6.479   3.737  14.031  0.4153 -0.3032 -0.2529
 7654TIP3    H144453   6.572   3.729  14.010  0.6807 -0.1835  0.8320
 7654TIP3    H244454   6.469   3.828  14.058 -0.0964 -0.2252 -0.6942
 7655TIP3   OH244455   5.939   1.501  15.039 -0.3657 -0.0168 -0.2272
 7655TIP3    H144456   5.954   1.433  15.105  0.2150  2.4174  2.3327
 7655TIP3    H244457   5.883   1.459  14.974 -0.5388 -2.7473  1.5268
 7656TIP3   OH244458   1.760   2.179   2.521  0.0189 -0.0654  0.0073
 7656TIP3    H144459   1.812   2.245   2.565  1.7187 -0.6783 -0.9855
 7656TIP3    H244460   1.793   2.178   2.431  0.7975 -2.9176  0.2263
 7657TIP3   OH244461   1.223   0.651   2.067 -0.5015 -0.2426 -0.3302
 7657TIP3    H144462   1.271   0.711   2.010  1.3324  0.4375  1.7788
 7657TIP3    H244463   1.261   0.565   2.049 -0.2160 -0.0942 -0.4447
 7658TIP3   OH244464   6.604   0.168   2.937 -0.9709 -0.5357 -0.7605
 7658TIP3    H144465   6.617   0.215   2.854  1.7783  1.5967  0.7041
 7658TIP3    H244466   6.664   0.094   2.932  1.6884  1.3455  0.3672
 7659TIP3   OH244467   3.661   5.235   4.622  0.1291 -0.9343 -0.7312
 7659TIP3    H144468   3.701   5.150   4.641  1.0178 -0.3018  0.3205
 7659TIP3    H244469   3.568   5.222   4.641  0.3659 -1.4785  0.1256
 7660TIP3   OH244470   4.373   4.618   0.118 -0.3101  0.6100 -0.4466
 7660TIP3    H144471   4.375   4.710   0.145  0.4231  1.1248 -2.1497
 7660TIP3    H244472   4.430   4.574   0.182 -0.1136  1.4540 -0.0258
 7661TIP3   OH244473   2.634   6.177   2.631  0.4414  0.1263  0.4509
 7661TIP3    H144474   2.556   6.155   2.681  0.0331 -0.1176 -0.2836
 7661TIP3    H244475   2.624   6.131   2.548  0.8268  0.9773 -0.0895
 7662TIP3   OH244476   2.441   0.607  16.320  0.3652 -0.3844  0.2285
 7662TIP3    H144477   2.370   0.546  16.341  1.2103 -1.0458  1.3238
 7662TIP3    H244478   2.485   0.568  16.245 -0.5882  0.1887 -0.6542
 7663TIP3   OH244479   3.584   2.167   0.733 -0.5009  0.4176  0.0118
 7663TIP3    H144480   3.620   2.217   0.805  0.6861 -0.2692 -0.0701
 7663TIP3    H244481   3.490   2.188   0.732 -0.3932  0.9942  1.2679
 7664TIP3   OH244482   5.706   6.140   6.116 -0.2179 -0.7507 -0.3177
 7664TIP3    H144483   5.651   6.073   6.156 -1.0908  0.9270  1.5124
 7664TIP3    H244484   5.780   6.149   6.176  0.3627 -0.7437 -1.0348
 7665TIP3   OH244485   1.598   6.629  11.450 -0.7154 -0.0742  0.0687
 7665TIP3    H144486   1.687   6.594  11.449 -0.5594  0.0957  2.4778
 7665TIP3    H244487   1.609   6.723  11.439 -0.4268  0.1254  1.8010
 7666TIP3   OH244488   5.138   4.239   2.883 -0.1969 -0.0259  0.3563
 7666TIP3    H144489   5.081   4.310   2.854 -0.3748  0.6369  2.2314
 7666TIP3    H244490   5.103   4.212   2.968  1.0501 -1.0237  0.5910
 7667TIP3   OH244491   4.813   2.328  14.517 -0.1150 -0.0187 -0.1194
 7667TIP3    H144492   4.904   2.349  14.498 -0.4270  2.2326  0.5869
 7667TIP3    H244493   4.762   2.382  14.457 -1.0080 -1.1776 -0.4477
 7668TIP3   OH244494   2.105   5.398  11.416  0.2883 -0.0674  0.1928
 7668TIP3    H144495   2.186   5.372  11.373 -0.5062 -0.8852 -0.8707
 7668TIP3    H244496   2.125   5.397  11.509  1.2931 -0.9724 -0.0175
 7669TIP3   OH244497   5.420   2.879   5.248  0.2053  0.5994  0.0206
 7669TIP3    H144498   5.341   2.919   5.211 -0.6532 -0.2491  0.8794
 7669TIP3    H244499   5.489   2.900   5.185 -0.9381  0.3452 -1.3881
 7670TIP3   OH244500   6.039   3.869  16.995  0.1176 -0.4224  0.3168
 7670TIP3    H144501   6.004   3.780  16.985 -0.3769 -0.1316 -0.6448
 7670TIP3    H244502   5.974   3.913  17.050 -1.4185  0.2740 -1.9105
 7671TIP3   OH244503   0.870   4.959   3.882 -0.0929 -0.1571 -0.1804
 7671TIP3    H144504   0.792   4.954   3.827 -1.1694  3.3983  0.7679
 7671TIP3    H244505   0.836   4.969   3.971  1.4246  0.8249  0.3292
 7672TIP3   OH244506   0.058   2.156  10.595  0.2045  0.4619  0.5647
 7672TIP3    H144507  -0.018   2.102  10.616  0.5946 -1.0741 -1.7230
 7672TIP3    H244508   0.131   2.111  10.637  0.2578  0.2856  0.2846
 7673TIP3   OH244509   5.629   1.999  16.339 -0.4491 -0.4046 -0.4366
 7673TIP3    H144510   5.621   2.009  16.244  0.8905 -0.1008 -0.5384
 7673TIP3    H244511   5.640   1.905  16.353 -1.1587 -0.5081 -0.5233
 7674TIP3   OH244512   4.531   6.045   3.338  0.5307 -0.7023  0.1622
 7674TIP3    H144513   4.543   6.140   3.333 -0.1809 -0.6839 -2.0009
 7674TIP3    H244514   4.439   6.031   3.316  0.8827 -1.9667 -0.5931
 7675TIP3   OH244515   2.664   4.941   6.092  0.3123  0.5031 -0.2310
 7675TIP3    H144516   2.614   4.893   6.158 -1.0260  1.5461 -0.4469
 7675TIP3    H244517   2.730   4.988   6.142  0.5913 -0.2563  0.1427
 7676TIP3   OH244518   5.662   3.705  14.388  0.1613  0.3938  0.5197
 7676TIP3    H144519   5.723   3.633  14.374 -1.6436 -1.5797  2.0751
 7676TIP3    H244520   5.702   3.758  14.457  0.4300 -0.4973  1.0625
 7677TIP3   OH244521   1.940   2.942   2.949 -0.0863  0.1856  0.5474
 7677TIP3    H144522   1.991   2.922   2.871 -1.0826  0.0848 -0.0967
 7677TIP3    H244523   1.850   2.920   2.925 -0.6163  1.4821  1.2427
 7678TIP3   OH244524   5.110   1.493  12.608  0.4437 -0.3907 -0.4958
 7678TIP3    H144525   5.069   1.565  12.561  0.9592 -0.3923 -0.9693
 7678TIP3    H244526   5.058   1.416  12.584  1.6501 -0.6871 -2.4399
 7679TIP3   OH244527   0.432   4.413   3.842 -0.0104 -0.5692  0.0758
 7679TIP3    H144528   0.355   4.437   3.894  1.2279  0.4808  1.5020
 7679TIP3    H244529   0.504   4.411   3.905  0.8634 -3.3746 -0.8564
 7680TIP3   OH244530   2.408   2.488   2.011 -0.5926  0.2746  0.4272
 7680TIP3    H144531   2.496   2.515   2.037 -0.7623 -0.4037  1.7939
 7680TIP3    H244532   2.417   2.395   1.989 -0.8013  0.4227 -0.3079
 7681TIP3   OH244533   5.894   6.336   4.315  0.3934 -0.6577 -0.2446
 7681TIP3    H144534   5.987   6.355   4.329  0.2962 -0.0084 -0.4233
 7681TIP3    H244535   5.868   6.285   4.392  0.7546 -0.3142  0.1093
 7682TIP3   OH244536   4.700   5.870  16.509 -0.0302  0.3132 -0.0181
 7682TIP3    H144537   4.607   5.883  16.488  0.4307  1.0155 -1.8702
 7682TIP3    H244538   4.739   5.957  16.499  0.9997 -0.1652 -0.3094
 7683TIP3   OH244539   4.016   3.449  15.645  0.0373  0.3389  0.6617
 7683TIP3    H144540   4.091   3.397  15.674 -1.2439 -1.3512  1.1094
 7683TIP3    H244541   4.046   3.539  15.650  2.9187 -0.3093 -1.6764
 7684TIP3   OH244542   2.945   4.586  12.349  0.0189  0.0890 -0.9127
 7684TIP3    H144543   2.940   4.516  12.415  1.8817 -1.9863 -2.8162
 7684TIP3    H244544   2.869   4.571  12.293 -0.6274  0.8193 -0.2641
 7685TIP3   OH244545   2.803   0.767  10.582 -0.3135  0.2430 -0.0831
 7685TIP3    H144546   2.710   0.751  10.600  0.4859 -1.5591  3.4820
 7685TIP3    H244547   2.844   0.681  10.595  1.9823  1.2432 -0.3526
 7686TIP3   OH244548   4.426   4.887   4.987 -0.0001  0.3179  0.4493
 7686TIP3    H144549   4.475   4.886   5.070 -2.1883  0.5916  1.8374
 7686TIP3    H244550   4.464   4.959   4.937  0.6797  0.8414  1.6873
 7687TIP3   OH244551   2.809   5.192  16.276  0.0432  0.2358 -0.1976
 7687TIP3    H144552   2.725   5.174  16.233  0.1755 -0.9661  0.0108
 7687TIP3    H244553   2.875   5.165  16.212  0.2567 -0.1704  0.1958
 7688TIP3   OH244554   0.647   1.988  14.382 -0.2490 -0.6013  0.1828
 7688TIP3    H144555   0.576   1.996  14.446  0.3472  0.0669  0.7929
 7688TIP3    H244556   0.673   1.896  14.387 -0.1446 -0.5349  0.9881
 7689TIP3   OH244557   4.367   6.654   3.227 -0.3460  0.0503  0.1663
 7689TIP3    H144558   4.334   6.570   3.197 -1.7928 -0.4411  2.8480
 7689TIP3    H244559   4.421   6.633   3.303 -1.5140  1.5482  1.4920
 7690TIP3   OH244560   4.169   2.199  13.007 -0.4038  0.6265  0.0431
 7690TIP3    H144561   4.150   2.286  12.972 -3.4419  0.5686  1.2447
 7690TIP3    H244562   4.221   2.216  13.085 -0.2914  1.2907 -0.1675
 7691TIP3   OH244563   5.002   2.275  17.098  0.5105  0.0036  0.2855
 7691TIP3    H144564   5.019   2.263  17.005  1.1077  0.2927  0.3543
 7691TIP3    H244565   5.021   2.189  17.137 -0.4917 -0.3393  0.0422
 7692TIP3   OH244566   6.215   0.463   5.661  0.7442  0.5632  0.3627
 7692TIP3    H144567   6.213   0.558   5.645  1.1383  0.6554  0.8061
 7692TIP3    H244568   6.151   0.427   5.601 -0.5657  1.2747  1.2851
 7693TIP3   OH244569   6.345   4.214  15.428 -0.3567 -0.2405 -0.3940
 7693TIP3    H144570   6.436   4.209  15.459 -0.4405 -0.3037 -0.1581
 7693TIP3    H244571   6.297   4.252  15.501 -0.1406  1.9252 -1.2926
 7694TIP3   OH244572   4.953   5.040  11.089 -0.2578 -0.4828  0.6985
 7694TIP3    H144573   4.978   5.065  11.178 -0.3892 -0.7061  0.7978
 7694TIP3    H244574   4.993   4.954  11.076 -0.6407 -0.6601  0.7114
 7695TIP3   OH244575   4.622   1.528   1.399  0.2604  0.5675  0.5988
 7695TIP3    H144576   4.630   1.617   1.364  0.0589 -0.0707 -1.1858
 7695TIP3    H244577   4.711   1.493   1.395 -0.0697 -0.2010 -1.3636
 7696TIP3   OH244578   1.115   0.571   4.731 -0.3758 -0.0614 -0.2794
 7696TIP3    H144579   1.117   0.666   4.727  0.4065  0.0172  1.1265
 7696TIP3    H244580   1.206   0.546   4.747 -0.5007 -1.0813 -1.0632
 7697TIP3   OH244581   3.726   2.326  15.688  0.5624  0.0724  0.2014
 7697TIP3    H144582   3.646   2.378  15.679 -0.2891 -1.1509  0.3592
 7697TIP3    H244583   3.714   2.278  15.771  0.9242 -1.0006 -0.3476
 7698TIP3   OH244584   4.345   3.554   0.502 -0.3839  0.2023  0.2462
 7698TIP3    H144585   4.426   3.576   0.456  0.4827  0.0196  1.6317
 7698TIP3    H244586   4.298   3.636   0.509  0.8855  0.8574  1.6634
 7699TIP3   OH244587   1.106   5.020   4.884 -0.1846  0.6343  0.4013
 7699TIP3    H144588   1.161   5.098   4.875  0.4827  0.4504  2.5447
 7699TIP3    H244589   1.091   5.011   4.978 -0.8767 -1.4016  0.1492
 7700TIP3   OH244590   2.216   3.573   3.018 -0.5312 -0.3120  0.0348
 7700TIP3    H144591   2.306   3.587   3.048 -0.3748 -2.2749  0.6401
 7700TIP3    H244592   2.167   3.649   3.051  1.1547  1.6771 -1.7498
 7701TIP3   OH244593   3.389   0.433  11.395  0.2669  0.0245  0.4887
 7701TIP3    H144594   3.387   0.383  11.314 -1.0406 -0.6908  0.9411
 7701TIP3    H244595   3.339   0.512  11.376  1.4582  0.7145  0.0908
 7702TIP3   OH244596   3.945   1.053   5.131 -0.5016 -0.7022 -0.0732
 7702TIP3    H144597   3.989   1.069   5.214  1.5134 -0.0281 -1.2173
 7702TIP3    H244598   3.872   1.116   5.131 -0.8681 -1.0817  1.3765
 7703TIP3   OH244599   2.229   5.932  13.673 -0.2165  0.4481  0.0942
 7703TIP3    H144600   2.322   5.910  13.664  0.0773  0.7306  2.1280
 7703TIP3    H244601   2.183   5.852  13.648  0.5111  0.4769 -1.5003
 7704TIP3   OH244602   1.215   3.940   1.773  0.5660 -0.3596  0.6435
 7704TIP3    H144603   1.264   3.857   1.767 -0.1225 -0.7338 -0.0326
 7704TIP3    H244604   1.144   3.921   1.834  1.1391  0.1325  1.4902
 7705TIP3   OH244605   5.293   5.595  12.646  0.2630 -0.4440  0.1131
 7705TIP3    H144606   5.235   5.646  12.702 -2.3242  0.3889 -3.0334
 7705TIP3    H244607   5.362   5.656  12.621 -0.1516  0.0406  0.1433
 7706TIP3   OH244608   0.456   2.691  11.905 -0.7437 -0.2334 -0.1956
 7706TIP3    H144609   0.531   2.733  11.947  1.2955 -2.5514 -1.2566
 7706TIP3    H244610   0.397   2.670  11.977 -0.8936  2.4420  0.5821
 7707TIP3   OH244611   0.193   2.021   0.019 -0.1528 -0.2629  0.5544
 7707TIP3    H144612   0.196   2.111   0.052  3.5738  0.6091 -1.5826
 7707TIP3    H244613   0.110   2.014  -0.027  0.0628  2.6159 -0.4140
 7708TIP3   OH244614   5.887   0.836   1.622  0.6004  0.5609 -0.0878
 7708TIP3    H144615   5.861   0.799   1.537 -0.6251 -0.5640  0.7268
 7708TIP3    H244616   5.939   0.913   1.600 -1.1513  1.3143 -1.8812
 7709TIP3   OH244617   4.656   4.898  11.100  0.3455 -0.3965 -0.2912
 7709TIP3    H144618   4.732   4.841  11.116  1.1103  0.3491 -1.1599
 7709TIP3    H244619   4.662   4.920  11.007 -1.7581 -1.4739 -0.7553
 7710TIP3   OH244620   3.404   3.464  15.163 -0.3556  0.3890 -0.0769
 7710TIP3    H144621   3.432   3.450  15.254 -0.6175 -0.2988 -0.1032
 7710TIP3    H244622   3.393   3.376  15.127  1.1399  0.6257 -1.2167
 7711TIP3   OH244623   6.171   1.875  10.651  0.0395  0.2489  0.1650
 7711TIP3    H144624   6.098   1.861  10.592 -0.0536 -0.8638  0.5173
 7711TIP3    H244625   6.235   1.925  10.600 -0.5007  0.2656 -0.5003
 7712TIP3   OH244626   3.306   4.137  12.529  0.0509  0.2865 -0.6203
 7712TIP3    H144627   3.322   4.230  12.515  1.0992  0.1722 -0.3217
 7712TIP3    H244628   3.282   4.104  12.442  1.3444  0.5441 -1.1088
 7713TIP3   OH244629   5.290   1.137  16.523  0.2195 -0.4170 -0.1842
 7713TIP3    H144630   5.278   1.092  16.440  1.1658  2.4907 -2.0734
 7713TIP3    H244631   5.296   1.230  16.500  2.1418  0.4265  2.9444
 7714TIP3   OH244632   6.003   3.716   2.927 -0.2585 -0.2532  0.3771
 7714TIP3    H144633   5.958   3.649   2.978 -0.2581  0.6104  1.5546
 7714TIP3    H244634   5.980   3.697   2.836 -2.2272 -0.4134  0.8575
 7715TIP3   OH244635   3.845   1.266   6.555 -0.2716 -0.2080  0.3314
 7715TIP3    H144636   3.839   1.179   6.595  0.4796  0.2079  1.3746
 7715TIP3    H244637   3.802   1.256   6.470  0.3488 -1.7732  0.1642
 7716TIP3   OH244638   0.986   3.539  14.031  0.5470 -0.6138 -0.2033
 7716TIP3    H144639   1.035   3.475  13.979  0.3406 -0.5369 -0.4994
 7716TIP3    H244640   0.899   3.539  13.991  0.5116 -0.2426 -0.1241
 7717TIP3   OH244641   6.350   3.343  14.875  0.1739 -0.9047 -0.1115
 7717TIP3    H144642   6.395   3.316  14.795 -0.2133  0.3793 -0.7948
 7717TIP3    H244643   6.262   3.366  14.847 -0.1259 -0.9220  0.7719
 7718TIP3   OH244644   5.344   5.045  11.503  0.4108  0.2592 -0.0150
 7718TIP3    H144645   5.270   5.008  11.551  0.8256 -0.4259  0.1096
 7718TIP3    H244646   5.353   5.134  11.536 -0.2156  0.2721  0.1278
 7719TIP3   OH244647   0.021   3.492  15.835  0.8315  0.2546 -0.4525
 7719TIP3    H144648   0.107   3.529  15.853  1.1680 -0.1006 -1.2701
 7719TIP3    H244649   0.038   3.420  15.774  0.0777 -0.5854  0.2864
 7720TIP3   OH244650   6.517   2.455  11.411 -0.3437 -0.0210 -0.0142
 7720TIP3    H144651   6.460   2.527  11.386 -0.5827 -0.9934 -2.5583
 7720TIP3    H244652   6.499   2.386  11.346  1.3026 -1.6143  1.1214
 7721TIP3   OH244653   5.233   0.660  13.890 -0.4511  0.6804  0.4564
 7721TIP3    H144654   5.231   0.753  13.911  0.4110  0.4014  1.9567
 7721TIP3    H244655   5.302   0.652  13.824 -0.3706  1.0785  0.4879
 7722TIP3   OH244656   2.583   0.195  12.920 -0.4387  0.3168 -0.1901
 7722TIP3    H144657   2.504   0.245  12.898 -0.6961  0.5805  1.2037
 7722TIP3    H244658   2.653   0.260  12.920 -0.3933  0.2682 -0.4774
 7723TIP3   OH244659   6.697   0.102  14.488 -0.5727  0.2111 -0.1755
 7723TIP3    H144660   6.740   0.016  14.491 -1.3121 -0.1395  1.9640
 7723TIP3    H244661   6.667   0.110  14.398 -1.4628 -2.2829 -0.1849
 7724TIP3   OH244662   4.290   1.482  14.808  0.0231 -0.2546 -0.6291
 7724TIP3    H144663   4.254   1.423  14.875  2.1740 -0.2542  0.6459
 7724TIP3    H244664   4.293   1.429  14.728  0.1987 -1.2889  0.0420
 7725TIP3   OH244665   6.338   3.325  15.760 -0.1744 -0.0972  0.5329
 7725TIP3    H144666   6.296   3.369  15.834  0.7890  2.7605 -0.4744
 7725TIP3    H244667   6.423   3.297  15.793 -0.2772 -0.0283  0.8569
 7726TIP3   OH244668   2.608   1.879   5.488  0.3239 -0.1163 -0.1599
 7726TIP3    H144669   2.616   1.858   5.581 -1.8122 -0.2828  0.0275
 7726TIP3    H244670   2.581   1.971   5.486  1.7405  0.3187 -0.7022
 7727TIP3   OH244671   6.484   3.991  11.197  0.3109 -0.3273 -0.5776
 7727TIP3    H144672   6.511   4.012  11.108  1.3259 -1.0327 -0.4674
 7727TIP3    H244673   6.498   4.072  11.246 -1.5768  0.4830 -1.3037
 7728TIP3   OH244674   6.802   0.990   5.218 -0.0629  0.0477  0.2358
 7728TIP3    H144675   6.744   0.937   5.165 -0.7296  1.3569 -0.3789
 7728TIP3    H244676   6.881   1.001   5.165 -0.5336  0.9370 -0.3087
 7729TIP3   OH244677   0.439   4.494  12.544 -0.3837  0.2027  0.0712
 7729TIP3    H144678   0.397   4.409  12.552 -0.6225  0.3386  0.2773
 7729TIP3    H244679   0.409   4.544  12.620  0.6299  0.1006  0.5580
 7730TIP3   OH244680   0.050   6.097  13.290 -0.5062 -0.0398  0.0599
 7730TIP3    H144681   0.122   6.105  13.227 -0.3209 -0.0219  0.2745
 7730TIP3    H244682   0.093   6.077  13.373 -0.7337  0.2402  0.2435
 7731TIP3   OH244683   1.592   5.098   4.163 -0.1434 -0.0684 -0.6364
 7731TIP3    H144684   1.654   5.171   4.171 -0.6794  0.2871  0.5676
 7731TIP3    H244685   1.522   5.132   4.106 -1.1382  0.9452  1.0875
 7732TIP3   OH244686   2.612   0.437  14.715  0.1374  0.5276 -0.8116
 7732TIP3    H144687   2.568   0.492  14.651  0.1613  2.0314  0.4198
 7732TIP3    H244688   2.671   0.496  14.762 -1.3405 -0.0544  1.9685
 7733TIP3   OH244689   4.783   1.565  15.737  0.5483  0.2915  0.3142
 7733TIP3    H144690   4.728   1.615  15.677 -0.4566  0.0578  1.0083
 7733TIP3    H244691   4.725   1.542  15.810  0.8927 -2.0529 -0.0614
 7734TIP3   OH244692   5.269   2.801  14.333 -0.4619  0.0669  0.0382
 7734TIP3    H144693   5.277   2.806  14.238 -0.3530 -0.3773  0.0225
 7734TIP3    H244694   5.359   2.810  14.365 -0.4068 -0.5215  0.0626
 7735TIP3   OH244695   3.813   5.172   1.369  0.5227  0.0543 -0.0868
 7735TIP3    H144696   3.884   5.109   1.377  1.1340  0.5947 -1.0904
 7735TIP3    H244697   3.845   5.251   1.413  0.2639  0.0764  0.0648
 7736TIP3   OH244698   6.120   5.164  15.198  0.8850  0.5627  0.4446
 7736TIP3    H144699   6.213   5.150  15.213  0.6546 -0.8683  0.6010
 7736TIP3    H244700   6.098   5.106  15.126 -0.1064  0.0903  1.1092
 7737TIP3   OH244701   3.191   0.547  15.295 -0.6237 -0.3226 -0.6223
 7737TIP3    H144702   3.180   0.562  15.200  3.1069 -0.0315 -1.1352
 7737TIP3    H244703   3.212   0.454  15.302 -1.6347 -0.5168  0.0761
 7738TIP3   OH244704   0.131   1.281  17.034 -0.2460  0.6266 -0.0520
 7738TIP3    H144705   0.192   1.304  17.105 -1.5499 -1.6346  1.9660
 7738TIP3    H244706   0.188   1.248  16.964  1.0884  3.0388 -0.1946
 7739TIP3   OH244707   1.863   5.980   5.829 -0.0268  0.0990 -0.2051
 7739TIP3    H144708   1.776   5.979   5.869  0.3761 -1.7408  0.7249
 7739TIP3    H244709   1.867   5.899   5.778  0.5607  0.9697 -1.6098
 7740TIP3   OH244710   2.333   3.921   0.907  0.3968 -0.1829  0.2551
 7740TIP3    H144711   2.386   3.994   0.940  1.4120 -0.1202 -1.4099
 7740TIP3    H244712   2.256   3.963   0.868  0.0533 -0.1447  0.9615
 7741TIP3   OH244713   4.915   0.961  12.299  0.8749  0.2716  0.3332
 7741TIP3    H144714   4.947   0.954  12.389  1.8312  1.1262  0.0889
 7741TIP3    H244715   4.907   1.055  12.284  0.7613  0.1374 -0.4828
 7742TIP3   OH244716   4.244   3.188   4.289 -0.4895  0.3298  0.0716
 7742TIP3    H144717   4.308   3.187   4.360 -1.6765 -0.2405  1.1822
 7742TIP3    H244718   4.241   3.097   4.258 -1.9474 -0.0475  1.1877
 7743TIP3   OH244719   2.306   5.156  16.525 -1.2894 -0.2412 -0.6343
 7743TIP3    H144720   2.256   5.227  16.566  0.2971 -1.1650  3.4061
 7743TIP3    H244721   2.367   5.201  16.467 -0.6964  1.7767  1.3774
 7744TIP3   OH244722   4.761   0.416  13.206  0.1967  0.0940 -0.3758
 7744TIP3    H144723   4.853   0.439  13.198  0.1113  0.5793  0.0240
 7744TIP3    H244724   4.717   0.497  13.233 -0.4812  0.0925 -1.4208
 7745TIP3   OH244725   5.430   1.482  15.735  0.0931  0.2610  0.1852
 7745TIP3    H144726   5.378   1.430  15.674 -0.4122  1.6093 -0.5876
 7745TIP3    H244727   5.466   1.419  15.796 -2.1029 -0.7842  0.4955
 7746TIP3   OH244728   5.981   0.391   2.707 -0.2714  0.1216 -0.3033
 7746TIP3    H144729   5.917   0.439   2.759  1.1785  1.5949  0.2241
 7746TIP3    H244730   5.954   0.300   2.712 -0.7794  0.3406  2.1811
 7747TIP3   OH244731   1.297   1.904  11.906 -0.3850  0.5105  0.2712
 7747TIP3    H144732   1.311   1.979  11.964 -2.3013  0.3121  1.0415
 7747TIP3    H244733   1.331   1.829  11.955  2.1445  0.8836 -0.7671
 7748TIP3   OH244734   1.882   6.830  15.394  0.0145  0.0874 -0.1364
 7748TIP3    H144735   1.954   6.881  15.356 -0.9268  0.1327 -2.0063
 7748TIP3    H244736   1.827   6.895  15.437 -1.3476  0.8516 -2.7787
 7749TIP3   OH244737   2.436   0.254  14.795 -0.0331 -0.3282  0.5604
 7749TIP3    H144738   2.494   0.320  14.757 -0.6540 -0.0755  0.0479
 7749TIP3    H244739   2.488   0.174  14.796 -0.3569 -0.6402 -1.8862
 7750TIP3   OH244740   5.535   6.139   1.271 -0.3342  0.2400  0.3234
 7750TIP3    H144741   5.575   6.106   1.191 -1.0426  1.4123 -0.5392
 7750TIP3    H244742   5.608   6.171   1.324  0.2970 -1.8595  0.8301
 7751TIP3   OH244743   0.841   2.624  10.691 -0.1814  0.2917  0.5901
 7751TIP3    H144744   0.874   2.555  10.748  1.8380  0.2992 -0.4823
 7751TIP3    H244745   0.769   2.664  10.741 -0.4788 -1.6359  1.8150
 7752TIP3   OH244746   0.955   6.831   3.825 -0.1298  0.1113  0.5303
 7752TIP3    H144747   0.869   6.860   3.795  0.6298  2.2602  0.2893
 7752TIP3    H244748   0.982   6.896   3.889  1.5718 -0.1982  0.1778
 7753TIP3   OH244749   0.613   1.990   1.200 -0.1381 -0.4440  0.0132
 7753TIP3    H144750   0.636   1.897   1.199  2.2209  0.0108  1.6083
 7753TIP3    H244751   0.604   2.011   1.293 -0.7337  0.8949 -0.3329
 7754TIP3   OH244752   5.318   1.952   1.080  0.6680 -0.0989 -0.2230
 7754TIP3    H144753   5.366   1.870   1.088 -1.3170 -1.5438 -1.9948
 7754TIP3    H244754   5.292   1.956   0.988 -0.6255  1.7340  0.1579
 7755TIP3   OH244755   3.672   4.097   5.617 -0.4055  0.6157 -0.0786
 7755TIP3    H144756   3.660   4.017   5.669  0.8690  1.5201  1.6947
 7755TIP3    H244757   3.595   4.150   5.635 -0.6355  0.3308 -0.2257
 7756TIP3   OH244758   3.753   3.606   1.188  0.1066 -0.1432  0.4515
 7756TIP3    H144759   3.814   3.570   1.252 -1.3984 -1.6623  1.0896
 7756TIP3    H244760   3.727   3.531   1.134  0.8392  0.9794 -1.5911
 7757TIP3   OH244761   2.316   5.299  11.279  0.2716  0.4713  0.1074
 7757TIP3    H144762   2.360   5.238  11.337 -0.2696 -0.3463 -0.3223
 7757TIP3    H244763   2.312   5.254  11.195  0.5632  1.4204 -0.4352
 7758TIP3   OH244764   1.121   1.867  14.321  0.1726 -0.1828  0.4786
 7758TIP3    H144765   1.142   1.812  14.245  0.3078  0.4630  0.0421
 7758TIP3    H244766   1.026   1.879  14.317  0.4048  1.6904 -0.9031
 7759TIP3   OH244767   6.548   3.884   2.778 -0.4059 -0.9365 -0.5742
 7759TIP3    H144768   6.506   3.882   2.864  0.5520  0.9285 -0.0131
 7759TIP3    H244769   6.590   3.799   2.770 -0.2695 -1.0357  0.9270
 7760TIP3   OH244770   5.585   2.767   4.781 -0.2186 -0.3298  0.5732
 7760TIP3    H144771   5.515   2.803   4.836  0.2783  0.2710  0.8297
 7760TIP3    H244772   5.640   2.843   4.760 -0.7922 -0.3986 -1.3673
 7761TIP3   OH244773   3.127   4.928  11.450 -0.2939 -0.0251 -0.0895
 7761TIP3    H144774   3.083   5.006  11.416  1.9950  0.7403 -1.5340
 7761TIP3    H244775   3.143   4.948  11.542  0.0085  1.1279 -0.3732
 7762TIP3   OH244776   3.899   4.230  11.015 -0.0370  0.4835  0.3845
 7762TIP3    H144777   3.896   4.181  10.933  1.7669 -0.9868  1.1264
 7762TIP3    H244778   3.933   4.316  10.991 -0.5200  0.4303 -0.5389
 7763TIP3   OH244779   5.116   3.390  15.861  0.1780  0.1978  0.4201
 7763TIP3    H144780   5.206   3.407  15.835  0.7123 -3.3669 -0.6060
 7763TIP3    H244781   5.069   3.377  15.778 -0.9024  0.3196  0.9879
 7764TIP3   OH244782   2.531   5.250   1.171  0.3974  0.3277 -0.4855
 7764TIP3    H144783   2.474   5.196   1.226  0.5083 -1.8174 -2.3781
 7764TIP3    H244784   2.471   5.300   1.116  0.3323  1.0565  0.2158
 7765TIP3   OH244785   3.817   6.533   0.134 -0.0354  0.3914  0.2046
 7765TIP3    H144786   3.816   6.461   0.071 -1.9315 -0.7378  1.4291
 7765TIP3    H244787   3.799   6.611   0.081 -2.1326 -0.5932 -0.6590
 7766TIP3   OH244788   3.458   5.273   1.798 -0.4735  0.4653  0.7723
 7766TIP3    H144789   3.371   5.307   1.816 -0.3275  1.1974  0.1442
 7766TIP3    H244790   3.476   5.298   1.707 -0.3370 -1.2615  0.2763
 7767TIP3   OH244791   6.674   5.535  14.759 -0.3165  0.0394 -0.3705
 7767TIP3    H144792   6.668   5.629  14.780 -2.2206 -0.2979  0.8270
 7767TIP3    H244793   6.685   5.533  14.664  0.4432  1.4829 -0.3481
 7768TIP3   OH244794   2.600   6.136  16.318  0.0944  0.0568 -0.0570
 7768TIP3    H144795   2.643   6.110  16.399 -0.1795  0.3706  0.1904
 7768TIP3    H244796   2.671   6.148  16.255  0.2794 -0.5741  0.0243
 7769TIP3   OH244797   2.637   2.306   4.110 -0.1828 -0.0878  0.0624
 7769TIP3    H144798   2.672   2.288   4.197  0.6408  0.2918 -0.1858
 7769TIP3    H244799   2.605   2.221   4.079 -1.5868 -0.0103  1.1975
 7770TIP3   OH244800   1.793   0.597  13.190  0.0021  0.1674 -0.3050
 7770TIP3    H144801   1.856   0.581  13.260 -0.9701 -1.3660  0.2670
 7770TIP3    H244802   1.821   0.680  13.151  1.6256  0.1463  0.7204
 7771TIP3   OH244803   1.228   4.131  15.732  0.1968 -0.3066 -0.2101
 7771TIP3    H144804   1.267   4.061  15.785 -2.4787 -1.1832  0.7608
 7771TIP3    H244805   1.185   4.189  15.796  1.3733  1.6534 -1.0912
 7772TIP3   OH244806   0.492   2.979   2.490  0.2995  0.2271 -0.1389
 7772TIP3    H144807   0.522   3.069   2.483  2.0081 -0.2125  0.9059
 7772TIP3    H244808   0.530   2.947   2.572  0.3367 -1.6474 -0.8344
 7773TIP3   OH244809   3.350   3.426  16.320  0.1107  0.0679 -0.4890
 7773TIP3    H144810   3.296   3.354  16.350 -0.8723 -0.2631 -2.8234
 7773TIP3    H244811   3.419   3.384  16.268 -1.0286  0.7567 -2.6913
 7774TIP3   OH244812   0.314   4.450  10.504 -0.3544 -0.0103  0.2606
 7774TIP3    H144813   0.272   4.420  10.585  0.6470 -0.1508  0.7424
 7774TIP3    H244814   0.290   4.542  10.497 -1.0954 -0.1919  0.2864
 7775TIP3   OH244815   5.221   3.905   0.335 -0.3285  0.0895 -0.1154
 7775TIP3    H144816   5.288   3.941   0.392 -1.5119  1.7953  0.3030
 7775TIP3    H244817   5.176   3.982   0.300  0.6192 -0.8268 -3.7810
 7776TIP3   OH244818   3.336   1.742  14.288  0.2555  0.1529  0.9211
 7776TIP3    H144819   3.273   1.697  14.231  2.0223 -0.4984 -0.6611
 7776TIP3    H244820   3.324   1.834  14.268 -0.0875  0.0235  0.5067
 7777TIP3   OH244821   1.989   4.529   1.830 -0.5189  0.3355 -0.3884
 7777TIP3    H144822   2.081   4.538   1.855 -0.5512  1.5200 -0.6429
 7777TIP3    H244823   1.960   4.619   1.813 -1.0386 -0.2269 -2.7877
 7778TIP3   OH244824   2.879   3.364   1.683 -0.1869  0.0511  0.6214
 7778TIP3    H144825   2.877   3.286   1.628 -1.8300  0.9320 -0.6795
 7778TIP3    H244826   2.793   3.364   1.726 -0.3868  1.3482  0.2538
 7779TIP3   OH244827   4.491   0.561   1.326  0.1970  0.2921  0.0832
 7779TIP3    H144828   4.581   0.528   1.336  1.0967  1.9147 -1.9706
 7779TIP3    H244829   4.436   0.484   1.339  2.0530 -1.4457 -1.6003
 7780TIP3   OH244830   5.099   3.700  14.167  0.2452  0.8100  0.1209
 7780TIP3    H144831   5.066   3.745  14.090 -0.5714 -0.4157 -0.2783
 7780TIP3    H244832   5.114   3.610  14.137 -0.9073  0.0907  1.6046
 7781TIP3   OH244833   0.941   5.986   0.391 -0.1249  0.1188 -0.0827
 7781TIP3    H144834   1.011   5.932   0.427 -0.1509  0.2405  0.1538
 7781TIP3    H244835   0.861   5.938   0.412 -0.0344 -0.8636 -1.8034
 7782TIP3   OH244836   5.242   5.255   4.171  0.4179  0.1255  0.4498
 7782TIP3    H144837   5.162   5.247   4.119  0.1479  2.1470  0.4610
 7782TIP3    H244838   5.313   5.242   4.107  0.0861  2.2308 -0.4460
 7783TIP3   OH244839   0.370   0.235  12.241  0.3417 -0.1722 -0.0120
 7783TIP3    H144840   0.351   0.324  12.211  2.4626  0.0533 -0.8872
 7783TIP3    H244841   0.428   0.247  12.317  0.7101 -0.7812 -0.1855
 7784TIP3   OH244842   5.088   1.586  10.634 -0.1936 -0.8765 -0.4601
 7784TIP3    H144843   5.082   1.662  10.575  0.9301  0.4208  0.9934
 7784TIP3    H244844   5.179   1.556  10.625  0.6039  0.5461  1.9004
 7785TIP3   OH244845   5.551   6.438   1.682  0.9272 -0.7061 -0.4234
 7785TIP3    H144846   5.562   6.523   1.725 -1.0585  0.0221 -1.2700
 7785TIP3    H244847   5.457   6.422   1.684  1.2734 -3.0669 -0.0022
 7786TIP3   OH244848   4.411   6.141  14.012 -0.4259  0.2004  0.0531
 7786TIP3    H144849   4.404   6.173  13.923 -1.5650  0.8212  0.3444
 7786TIP3    H244850   4.335   6.084  14.023  1.3118 -2.3603 -0.3161
 7787TIP3   OH244851   2.468   0.759   0.470  0.5219  0.3884 -0.2957
 7787TIP3    H144852   2.537   0.697   0.446  0.0934  0.0324 -0.6362
 7787TIP3    H244853   2.450   0.807   0.390  0.7398  0.8426 -0.0717
 7788TIP3   OH244854   4.897   1.024  14.366 -0.2828 -0.3603 -0.3807
 7788TIP3    H144855   4.949   0.992  14.440 -0.8527 -0.6519 -0.1025
 7788TIP3    H244856   4.954   1.010  14.290  0.4582  0.2963  0.0392
 7789TIP3   OH244857   1.156   2.346   5.724 -0.1616 -0.2801  0.2355
 7789TIP3    H144858   1.168   2.324   5.817 -1.4800 -0.2406  0.4338
 7789TIP3    H244859   1.061   2.345   5.711 -0.4561  4.5818  0.0888
 7790TIP3   OH244860   3.454   1.345   6.499  0.0441 -0.2377  0.5282
 7790TIP3    H144861   3.378   1.306   6.456  1.2968 -0.7014 -1.3828
 7790TIP3    H244862   3.445   1.439   6.482 -0.2983 -0.2358  0.6921
 7791TIP3   OH244863   4.482   2.446   0.135  0.1490 -0.0963 -0.0410
 7791TIP3    H144864   4.483   2.511   0.065 -1.3718  0.3260  0.2980
 7791TIP3    H244865   4.563   2.396   0.122 -0.8191 -1.0975 -3.0856
 7792TIP3   OH244866   4.401   3.861  14.830  0.5164 -0.8611  0.0197
 7792TIP3    H144867   4.455   3.879  14.753 -0.8598 -0.6718 -0.9476
 7792TIP3    H244868   4.365   3.773  14.814  0.2195 -0.8168  0.4300
 7793TIP3   OH244869   0.270   4.701  12.081  0.1782  0.1627  0.3090
 7793TIP3    H144870   0.351   4.687  12.031 -0.3771  0.3228 -0.6492
 7793TIP3    H244871   0.300   4.707  12.172  1.2539  0.2802 -0.0298
 7794TIP3   OH244872   6.804   5.212   6.161  0.0719  0.7098 -0.2290
 7794TIP3    H144873   6.746   5.270   6.210 -0.5192 -0.6980  0.7976
 7794TIP3    H244874   6.756   5.191   6.081 -2.1041 -2.4252  1.6810
 7795TIP3   OH244875   4.083   1.458   4.706 -0.2414  0.4754  0.3650
 7795TIP3    H144876   4.121   1.386   4.758 -0.9461  0.0993  0.3835
 7795TIP3    H244877   4.003   1.481   4.754 -1.2273 -0.2733 -0.8407
 7796TIP3   OH244878   0.720   3.176  14.151  0.3961 -0.0345  0.2133
 7796TIP3    H144879   0.807   3.170  14.190  0.9091 -1.5805 -1.0216
 7796TIP3    H244880   0.659   3.167  14.224  1.2045  2.4864  1.2815
 7797TIP3   OH244881   3.481   5.774  13.454  0.3054 -0.2305 -0.4487
 7797TIP3    H144882   3.428   5.731  13.388 -0.5999 -0.1723  0.2276
 7797TIP3    H244883   3.561   5.801  13.407 -0.5773  0.3593 -1.6627
 7798TIP3   OH244884   4.015   1.731   0.214  0.0900 -0.1981 -0.7005
 7798TIP3    H144885   3.994   1.745   0.306  0.2548  1.1688 -0.8531
 7798TIP3    H244886   3.938   1.763   0.166  0.1718 -0.5236 -1.0610
 7799TIP3   OH244887   5.833   2.958  16.761 -0.4186 -0.6326  0.2713
 7799TIP3    H144888   5.855   2.919  16.846 -0.8742 -1.2469  0.1182
 7799TIP3    H244889   5.913   3.002  16.733  0.1260 -1.4889  0.4481
 7800TIP3   OH244890   1.213   6.185   5.421 -0.0930 -0.1930 -0.0802
 7800TIP3    H144891   1.287   6.200   5.362 -1.5147 -0.5035 -2.0532
 7800TIP3    H244892   1.168   6.108   5.384 -0.8029 -0.6944  1.6947
 7801TIP3   OH244893   0.670   5.348  12.802 -0.2973  0.5362 -0.5628
 7801TIP3    H144894   0.632   5.262  12.785  1.7672 -0.8973  1.4224
 7801TIP3    H244895   0.647   5.366  12.893  3.1928 -0.2429  0.6212
 7802TIP3   OH244896   1.239   6.303  11.435  0.1681 -0.7459 -0.3779
 7802TIP3    H144897   1.294   6.380  11.423  0.1115 -0.4436  1.0670
 7802TIP3    H244898   1.235   6.262  11.349 -0.4599  1.2862 -1.3614
 7803TIP3   OH244899   4.721   4.073   4.672 -0.3436 -0.3183  0.3576
 7803TIP3    H144900   4.656   4.004   4.673 -1.6914  0.9181  0.9552
 7803TIP3    H244901   4.795   4.037   4.722 -1.9847 -0.4667  2.8665
 7804TIP3   OH244902   5.869   3.728   2.006  0.3160 -0.1091 -0.4380
 7804TIP3    H144903   5.813   3.658   2.041  0.8196 -0.5458 -0.4872
 7804TIP3    H244904   5.824   3.809   2.030  1.2123 -0.3183  2.3326
 7805TIP3   OH244905   5.702   2.197   2.497 -0.3301  0.1639  0.5860
 7805TIP3    H144906   5.704   2.284   2.456  0.4118 -0.1484 -0.0482
 7805TIP3    H244907   5.688   2.137   2.424 -1.5156 -0.2198  1.0958
 7806TIP3   OH244908   1.635   1.870   5.884  0.4381 -0.3309  0.6722
 7806TIP3    H144909   1.682   1.939   5.837 -1.8507 -0.0973 -1.5447
 7806TIP3    H244910   1.655   1.885   5.976  1.2084  2.3717  0.1468
 7807TIP3   OH244911   3.050   1.154  15.275  0.6560  0.1629  0.6529
 7807TIP3    H144912   3.100   1.228  15.310  0.5130  0.1060  0.9779
 7807TIP3    H244913   3.116   1.099  15.232  0.6361  1.0157 -0.5565
 7808TIP3   OH244914   5.752   4.193   0.247  0.1887 -0.3275 -0.2492
 7808TIP3    H144915   5.693   4.256   0.288  0.3679 -0.2317 -0.1350
 7808TIP3    H244916   5.786   4.142   0.320 -0.5935 -1.1148 -0.4174
 7809TIP3   OH244917   6.549   1.883  13.103 -0.2065 -0.3953 -0.3830
 7809TIP3    H144918   6.460   1.861  13.075 -1.5879  2.2820  1.4623
 7809TIP3    H244919   6.600   1.884  13.022 -1.7864 -2.0566 -1.4905
 7810TIP3   OH244920   1.890   5.475   5.605  0.5281  0.1910 -0.6332
 7810TIP3    H144921   1.884   5.394   5.655  1.8110  0.1694 -0.4889
 7810TIP3    H244922   1.983   5.493   5.599  0.4430  0.2016 -3.0080
 7811TIP3   OH244923   0.655   6.644   4.568 -0.1939 -0.1369  0.1518
 7811TIP3    H144924   0.635   6.697   4.645  1.2600 -1.1371  1.2954
 7811TIP3    H244925   0.592   6.572   4.572 -1.2143  0.6885 -0.5764
 7812TIP3   OH244926   5.948   5.207   1.298  0.9370 -0.0294 -0.1165
 7812TIP3    H144927   5.871   5.231   1.247 -0.1277 -1.9318  0.4938
 7812TIP3    H244928   5.995   5.145   1.242  0.2155 -1.4550  0.8016
 7813TIP3   OH244929   3.462   6.182   2.688  0.2855  0.9014  0.2043
 7813TIP3    H144930   3.528   6.192   2.757  0.3570  1.4155  0.0720
 7813TIP3    H244931   3.444   6.272   2.661  1.4682  0.6484 -1.5840
 7814TIP3   OH244932   3.209   2.246  17.093  0.2321  0.0704 -0.1044
 7814TIP3    H144933   3.128   2.275  17.135  0.8214  0.4937  0.7632
 7814TIP3    H244934   3.181   2.177  17.033 -0.5813 -1.0493  1.4691
 7815TIP3   OH244935   5.237   2.562  10.669 -0.4257  0.1572  0.5620
 7815TIP3    H144936   5.150   2.533  10.695 -0.8553  1.5427  0.7422
 7815TIP3    H244937   5.290   2.483  10.669 -2.1482 -1.1144 -1.5487
 7816TIP3   OH244938   1.391   2.687  14.376  0.1834 -0.4636  0.7348
 7816TIP3    H144939   1.406   2.622  14.307 -1.0166  1.1626 -1.2094
 7816TIP3    H244940   1.424   2.769  14.338 -1.8797  0.7715  1.4281
 7817TIP3   OH244941   2.276   4.522  13.773 -0.3218  0.2345 -0.0805
 7817TIP3    H144942   2.229   4.569  13.703  0.5760  1.6392  0.2153
 7817TIP3    H244943   2.333   4.588  13.811  0.0176 -0.8004  1.2619
 7818TIP3   OH244944   0.458   0.365   4.612 -0.3133  0.1717 -0.1371
 7818TIP3    H144945   0.421   0.281   4.640  1.4122 -0.4730  0.2935
 7818TIP3    H244946   0.430   0.374   4.521 -1.5194 -0.2654  0.1625
 7819TIP3   OH244947   3.467   1.762   5.714  0.7590 -0.1785  0.1930
 7819TIP3    H144948   3.488   1.844   5.670 -2.2710  1.0102  0.7530
 7819TIP3    H244949   3.497   1.775   5.804 -2.0934  1.5102  1.0005
 7820TIP3   OH244950   1.810   6.128   5.380  0.3596 -0.7036 -0.0786
 7820TIP3    H144951   1.865   6.050   5.392  0.2790 -0.5614  1.4979
 7820TIP3    H244952   1.722   6.093   5.364  0.0011 -1.0151  2.2036
 7821TIP3   OH244953   5.571   6.047  16.614 -0.0387 -0.0281 -0.2700
 7821TIP3    H144954   5.607   5.993  16.543  1.2048  0.0198  0.2856
 7821TIP3    H244955   5.515   6.110  16.570  0.3981 -0.2469 -1.1782
 7822TIP3   OH244956   5.669   0.427  16.900 -0.4449  0.3943  0.3127
 7822TIP3    H144957   5.604   0.376  16.853  2.8356 -1.4438 -2.7809
 7822TIP3    H244958   5.705   0.367  16.966 -0.2988  0.5767  0.4037
 7823TIP3   OH244959   5.831   0.758  16.796  0.5230 -0.5773 -0.0239
 7823TIP3    H144960   5.825   0.717  16.709  0.1080 -0.0679 -0.2371
 7823TIP3    H244961   5.740   0.766  16.825  0.5307  0.8937 -0.3165
 7824TIP3   OH244962   4.516   1.960  16.686 -0.5682 -0.4671 -0.3383
 7824TIP3    H144963   4.527   2.046  16.646 -0.3283 -0.2005  0.2884
 7824TIP3    H244964   4.597   1.945  16.734 -0.3865 -1.2844 -0.8732
 7825TIP3   OH244965   5.489   5.921  11.932 -0.3143  0.0538 -0.1573
 7825TIP3    H144966   5.550   5.893  11.864  2.4772  0.4368  2.0075
 7825TIP3    H244967   5.491   6.017  11.928 -1.7410  0.0840 -0.7926
 7826TIP3   OH244968   0.278   3.950  16.933  0.2616  0.2863  0.3228
 7826TIP3    H144969   0.357   3.988  16.893 -0.1580  2.0764  1.0605
 7826TIP3    H244970   0.293   3.957  17.027  0.1854 -1.5431  0.4949
 7827TIP3   OH244971   4.175   1.521  14.257  0.3402 -0.0083 -0.1091
 7827TIP3    H144972   4.263   1.484  14.255  1.4731  2.4680 -1.4320
 7827TIP3    H244973   4.167   1.568  14.174 -2.6206 -0.9086 -0.4418
 7828TIP3   OH244974   4.885   2.011   5.940  0.0096  0.1602 -0.3510
 7828TIP3    H144975   4.900   1.917   5.941  0.4263  0.1905  2.2856
 7828TIP3    H244976   4.852   2.032   6.027  3.6983  2.9688  0.6434
 7829TIP3   OH244977   3.797   1.663   0.816  0.3674  0.3342 -0.0594
 7829TIP3    H144978   3.707   1.647   0.787 -0.1635 -1.4311  2.2474
 7829TIP3    H244979   3.791   1.746   0.864 -0.0473  0.2081  0.1175
 7830TIP3   OH244980   2.962   4.793   4.322  0.4686 -0.2237  0.0931
 7830TIP3    H144981   2.997   4.872   4.363  0.9133  0.4233 -1.4877
 7830TIP3    H244982   2.873   4.786   4.358  0.7422  0.4617  0.9538
 7831TIP3   OH244983   0.387   5.710  16.331 -0.5192 -0.0593 -0.6553
 7831TIP3    H144984   0.449   5.765  16.379 -0.5979 -0.3361 -0.2261
 7831TIP3    H244985   0.442   5.656  16.274 -0.3384 -0.4988 -0.0733
 7832TIP3   OH244986   5.210   4.495   4.895  0.1507  0.2151 -0.2318
 7832TIP3    H144987   5.144   4.443   4.941 -0.8295 -0.1088 -1.9039
 7832TIP3    H244988   5.292   4.473   4.938 -0.8347  0.9186  2.1515
 7833TIP3   OH244989   1.347   0.786  14.827 -0.1817 -0.2992 -0.4511
 7833TIP3    H144990   1.411   0.759  14.893 -0.6838 -0.1077  0.1308
 7833TIP3    H244991   1.383   0.756  14.744  0.2444 -0.9485 -0.0381
 7834TIP3   OH244992   2.009   5.510   4.663  0.2285  0.0371 -0.4678
 7834TIP3    H144993   1.958   5.552   4.733 -0.0073 -0.0014 -0.6151
 7834TIP3    H244994   2.078   5.462   4.709  0.0031 -0.0845 -0.2533
 7835TIP3   OH244995   0.693   2.348   1.910  0.3715  0.6422 -0.0001
 7835TIP3    H144996   0.751   2.406   1.959 -0.5998  1.8333 -0.2159
 7835TIP3    H244997   0.699   2.264   1.956  0.5025  1.3630  1.3534
 7836TIP3   OH244998   4.686   6.070  16.244  0.5219  0.2536 -0.2203
 7836TIP3    H144999   4.740   6.072  16.324  3.0502  1.0537 -1.8214
 7836TIP3    H245000   4.732   6.009  16.186 -2.0993 -1.5203 -0.6183
 7837TIP3   OH245001   3.100   1.295   1.212 -0.0347  0.0284  0.0910
 7837TIP3    H145002   3.113   1.211   1.256 -1.7501 -1.6745 -2.3882
 7837TIP3    H245003   3.118   1.277   1.120 -0.5777  2.3868 -0.5445
 7838TIP3   OH245004   2.152   4.111  15.490  0.1119 -0.3111  0.7157
 7838TIP3    H145005   2.208   4.188  15.488 -1.0109  0.5377  1.0009
 7838TIP3    H245006   2.113   4.111  15.578  1.3550 -2.1531  1.3296
 7839TIP3   OH245007   3.858   2.564  16.357 -0.8996  0.7167 -0.2974
 7839TIP3    H145008   3.881   2.541  16.447 -0.7967  1.7517 -0.0544
 7839TIP3    H245009   3.936   2.606  16.322 -1.2340  1.0862 -0.5993
 7840TIP3   OH245010   5.264   0.875   4.649  0.6009 -0.0265 -0.0940
 7840TIP3    H145011   5.178   0.860   4.608  0.6433 -1.1107  0.1867
 7840TIP3    H245012   5.319   0.904   4.576 -0.1263  1.2091 -0.1768
 7841TIP3   OH245013   2.599   3.018  15.610 -0.1550  0.0187  0.4228
 7841TIP3    H145014   2.562   2.937  15.645  0.3081 -0.2981  0.2008
 7841TIP3    H245015   2.685   2.992  15.576  0.6683  0.8952  1.7140
 7842TIP3   OH245016   6.185   1.577  11.870 -0.2998 -0.3937  0.3094
 7842TIP3    H145017   6.264   1.630  11.870 -1.1026  0.8573 -0.3032
 7842TIP3    H245018   6.146   1.592  11.957 -0.9438  0.7198 -0.1474
 7843TIP3   OH245019   4.596   5.995  15.535 -0.0107  0.4999 -0.2842
 7843TIP3    H145020   4.585   5.913  15.487 -1.5035 -1.2434  2.7718
 7843TIP3    H245021   4.509   6.016  15.567  0.9238  1.3808  1.8751
 7844TIP3   OH245022   3.913   1.896  16.418 -0.1017 -0.3707  0.3838
 7844TIP3    H145023   3.832   1.947  16.423  0.1757  0.0793  0.3273
 7844TIP3    H245024   3.975   1.954  16.373  0.1507 -0.8424  0.1200
 7845TIP3   OH245025   5.665   2.501   1.566  0.2664  0.1064  0.0229
 7845TIP3    H145026   5.644   2.408   1.568  0.9608 -0.0683  2.0120
 7845TIP3    H245027   5.581   2.545   1.557 -0.1349 -0.6897 -0.1885
 7846TIP3   OH245028   3.767   1.709   0.525 -0.6967  0.0034  0.1500
 7846TIP3    H145029   3.797   1.718   0.615  1.0344  0.8810 -0.4722
 7846TIP3    H245030   3.794   1.790   0.482 -1.6696 -0.3034 -1.1273
 7847TIP3   OH245031   2.613   4.290  11.413  0.3123  0.5620 -0.5785
 7847TIP3    H145032   2.706   4.291  11.391 -0.2685 -1.5412 -3.9666
 7847TIP3    H245033   2.609   4.246  11.498  2.3578 -0.3816 -0.8980
 7848TIP3   OH245034   2.830   5.001   0.213 -1.0754 -0.8310  0.1426
 7848TIP3    H145035   2.858   4.947   0.286 -1.0498  0.5167  1.1785
 7848TIP3    H245036   2.752   5.046   0.245 -0.1276  1.0255 -0.0157
 7849TIP3   OH245037   2.231   6.036   3.623 -0.1953  0.0458  0.1643
 7849TIP3    H145038   2.155   5.980   3.606 -0.9642  0.9289  0.6048
 7849TIP3    H245039   2.243   6.086   3.543  0.8116 -1.0737 -0.4205
 7850TIP3   OH245040   5.058   1.867   1.438  0.4154  0.1647  0.2980
 7850TIP3    H145041   5.105   1.840   1.517  0.3176 -0.0467  0.2857
 7850TIP3    H245042   5.102   1.947   1.410  0.8217 -0.0798  0.2366
 7851TIP3   OH245043   1.903   4.184   2.799 -0.1714  0.3309  0.6485
 7851TIP3    H145044   1.944   4.137   2.727 -0.2272  1.1380  0.0671
 7851TIP3    H245045   1.826   4.133   2.822 -0.6233  0.5004 -0.4470
 7852TIP3   OH245046   0.585   5.530   2.662 -0.3198 -0.0998  0.0968
 7852TIP3    H145047   0.519   5.497   2.600 -1.0288  1.7218 -0.1716
 7852TIP3    H245048   0.553   5.503   2.748  0.2102 -1.8746 -0.2254
 7853TIP3   OH245049   4.740   0.504  11.968  0.2455  0.1568  0.1023
 7853TIP3    H145050   4.680   0.434  11.993 -1.5358  1.1824 -1.1082
 7853TIP3    H245051   4.727   0.572  12.033 -0.0742  0.4538 -0.2635
 7854TIP3   OH245052   0.801   4.038   0.873 -0.0031 -0.0611  0.1951
 7854TIP3    H145053   0.836   4.058   0.960 -0.0533 -0.2949  0.2688
 7854TIP3    H245054   0.858   4.087   0.813  0.0329  0.1004  0.3581
 7855TIP3   OH245055   2.162   0.814  14.817  0.1711  0.2425 -0.2620
 7855TIP3    H145056   2.157   0.901  14.777  0.5773  0.5152  0.2530
 7855TIP3    H245057   2.121   0.826  14.903  2.9802  0.7603  1.1334
 7856TIP3   OH245058   3.225   1.306  10.782  0.1185  0.3735  0.1049
 7856TIP3    H145059   3.189   1.336  10.699 -0.6705  0.3348  0.4231
 7856TIP3    H245060   3.256   1.217  10.764  1.9096  1.1200 -0.6789
 7857TIP3   OH245061   0.871   4.709  10.931 -0.2578 -0.5627  0.7210
 7857TIP3    H145062   0.901   4.641  10.991  1.3114  0.0922  0.7388
 7857TIP3    H245063   0.939   4.711  10.863 -1.3333 -0.4000 -0.3689
 7858TIP3   OH245064   2.705   1.461   5.310 -0.1890 -0.5211 -0.1172
 7858TIP3    H145065   2.696   1.556   5.316 -0.5611 -0.5244 -0.5274
 7858TIP3    H245066   2.615   1.428   5.307 -0.0626 -0.8674 -0.1968
 7859TIP3   OH245067   1.489   4.387   1.874 -0.4219  0.2984  0.3570
 7859TIP3    H145068   1.439   4.306   1.868  0.0568  0.0958 -1.4360
 7859TIP3    H245069   1.469   4.434   1.793  1.6865  0.5420 -0.0841
 7860TIP3   OH245070   5.070   5.930  11.955  0.4653 -0.3935  0.2421
 7860TIP3    H145071   5.001   5.878  11.914 -0.1788 -0.8444  1.7897
 7860TIP3    H245072   5.096   5.993  11.888 -2.6030  0.8774  0.0512
 7861TIP3   OH245073   1.199   3.743   2.038 -0.0331  0.4195  0.1069
 7861TIP3    H145074   1.133   3.806   2.008  0.5373  0.7632 -0.4675
 7861TIP3    H245075   1.153   3.659   2.041 -0.4757  0.6423 -0.3537
 7862TIP3   OH245076   0.858   6.017  12.960 -0.3304  0.2498  0.4645
 7862TIP3    H145077   0.872   6.107  12.992  1.0267  0.0683  0.4452
 7862TIP3    H245078   0.830   5.969  13.038  1.3151  0.1817  1.0498
 7863TIP3   OH245079   6.108   4.037  16.696  0.6505 -0.4628  0.4409
 7863TIP3    H145080   6.129   4.026  16.603  1.4572  0.2407  0.5235
 7863TIP3    H245081   6.035   3.978  16.712  1.0721 -1.2383 -0.4396
 7864TIP3   OH245082   3.132   1.459  15.841 -0.6874 -0.4554 -0.3616
 7864TIP3    H145083   3.154   1.525  15.906  0.7861 -0.5197 -0.7555
 7864TIP3    H245084   3.065   1.500  15.787  0.0478  0.6535 -0.4670
 7865TIP3   OH245085   2.640   5.992  13.316 -0.5047  0.3496  0.1771
 7865TIP3    H145086   2.663   6.055  13.247 -2.1016  1.5030  0.6399
 7865TIP3    H245087   2.556   5.956  13.289 -0.5052 -0.1760  0.8608
 7866TIP3   OH245088   1.945   2.836   1.941  0.1513 -0.3905 -0.3428
 7866TIP3    H145089   1.978   2.843   2.031  0.8784  1.2934 -0.7013
 7866TIP3    H245090   1.927   2.743   1.929  0.1491 -0.6570  1.5082
 7867TIP3   OH245091   4.110   0.196   3.621 -0.0744  0.1522 -0.0853
 7867TIP3    H145092   4.080   0.118   3.667  0.8800 -1.6620 -2.3058
 7867TIP3    H245093   4.031   0.234   3.583 -0.6122  0.6031  1.4326
 7868TIP3   OH245094   6.442   1.994   1.487  0.0670  0.3931  0.2693
 7868TIP3    H145095   6.447   2.079   1.531  1.9728  0.3845  0.1733
 7868TIP3    H245096   6.381   1.943   1.539  1.2860  0.7956  2.2162
 7869TIP3   OH245097   1.852   5.536  10.422 -0.0593  0.3399  0.1823
 7869TIP3    H145098   1.919   5.582  10.473  0.2858 -0.9761  0.9883
 7869TIP3    H245099   1.787   5.510  10.487  0.8328 -2.1583  0.1970
 7870TIP3   OH245100   5.798   2.973   4.752 -0.5561  0.3602 -0.4789
 7870TIP3    H145101   5.781   2.932   4.837  0.9320 -3.5704 -1.8508
 7870TIP3    H245102   5.886   3.011   4.761 -0.9355  1.1223  0.0891
 7871TIP3   OH245103   3.231   5.619  12.201 -0.6223 -0.1972 -0.2618
 7871TIP3    H145104   3.284   5.629  12.122  0.5853 -0.1391  0.5369
 7871TIP3    H245105   3.232   5.706  12.242 -1.7832 -0.0542 -0.4923
 7872TIP3   OH245106   4.789   3.929   0.355  0.5178 -0.1414  0.6170
 7872TIP3    H145107   4.773   3.965   0.443  0.1856 -0.7208  0.7968
 7872TIP3    H245108   4.826   4.003   0.306  0.6255  0.2125  1.2166
 7873TIP3   OH245109   0.897   6.756  14.931  0.1136  0.0744 -0.0081
 7873TIP3    H145110   0.918   6.776  14.839 -1.3180 -0.0543 -0.3831
 7873TIP3    H245111   0.961   6.808  14.981 -0.1451  1.4765 -1.0528
 7874TIP3   OH245112   6.121   0.290   2.945  0.2293 -0.4342 -0.1071
 7874TIP3    H145113   6.196   0.315   2.890 -1.0738  0.1098 -1.7064
 7874TIP3    H245114   6.059   0.251   2.884 -0.0791 -2.6013  1.4820
 7875TIP3   OH245115   0.706   2.253  15.364 -0.3712  0.1415 -0.1584
 7875TIP3    H145116   0.779   2.302  15.325 -1.1381  0.9410 -0.6301
 7875TIP3    H245117   0.675   2.197  15.294 -1.2784  1.0417 -0.5047
 7876TIP3   OH245118   3.300   2.321   1.206 -0.3038 -0.6018  0.0106
 7876TIP3    H145119   3.333   2.403   1.242 -0.2196 -0.9484  0.7348
 7876TIP3    H245120   3.210   2.342   1.179 -0.8375 -0.6520  1.6320
 7877TIP3   OH245121   0.738   4.787  11.221 -0.5200 -0.4316  0.6004
 7877TIP3    H145122   0.772   4.863  11.174 -0.6266 -1.3785 -1.0861
 7877TIP3    H245123   0.683   4.742  11.156 -1.2720 -1.3968  1.8719
 7878TIP3   OH245124   0.295   2.727   4.902 -0.0287  0.1004 -0.3463
 7878TIP3    H145125   0.263   2.813   4.875 -1.1080  0.7019  2.5616
 7878TIP3    H245126   0.390   2.737   4.905 -0.1311  1.1808 -0.1459
 7879TIP3   OH245127   1.838   4.948  16.006  0.3972  0.1343  0.4727
 7879TIP3    H145128   1.913   4.999  15.976  0.4635 -0.2112  0.0549
 7879TIP3    H245129   1.866   4.913  16.091  0.0289  1.5074  1.2068
 7880TIP3   OH245130   5.596   4.344  11.439 -0.1278  0.0548 -0.3881
 7880TIP3    H145131   5.690   4.344  11.456 -0.2497 -1.6311  0.4782
 7880TIP3    H245132   5.565   4.425  11.480  0.6094 -0.5900  1.6003
 7881TIP3   OH245133   1.147   2.804   3.433 -0.0936 -0.7270 -0.0237
 7881TIP3    H145134   1.218   2.865   3.452  1.0345 -1.6042 -1.2091
 7881TIP3    H245135   1.106   2.840   3.354  0.3990 -1.3072 -0.5629
 7882TIP3   OH245136   3.121   1.574   1.979 -0.4231 -0.2789  0.1009
 7882TIP3    H145137   3.103   1.482   1.998  3.1113 -0.9633  0.7620
 7882TIP3    H245138   3.154   1.574   1.889  0.9008  0.1037  0.5703
 7883TIP3   OH245139   6.283   0.423  13.834 -0.5088 -0.4580  0.0889
 7883TIP3    H145140   6.329   0.441  13.752 -1.1282  0.8581 -0.0075
 7883TIP3    H245141   6.191   0.421  13.810 -0.6049 -1.9813  0.4615
 7884TIP3   OH245142   5.193   3.877  11.248 -0.0535 -0.6797 -0.1552
 7884TIP3    H145143   5.202   3.892  11.154 -1.1759 -0.4754 -0.2479
 7884TIP3    H245144   5.101   3.852  11.260  0.5335 -2.7264  0.6368
 7885TIP3   OH245145   3.280   3.406   1.902 -0.1371  0.2030 -0.3478
 7885TIP3    H145146   3.375   3.416   1.895 -0.0957 -0.0763 -0.2442
 7885TIP3    H245147   3.266   3.379   1.993 -0.4058  1.1854 -0.0911
 7886TIP3   OH245148   1.190   5.679  15.279  0.6339  1.1846  0.0120
 7886TIP3    H145149   1.266   5.626  15.301  0.0698 -0.1679 -1.1160
 7886TIP3    H245150   1.171   5.657  15.188 -1.9676  0.3571  0.6662
 7887TIP3   OH245151   5.969   2.030   3.553  0.7795  0.1871 -0.0971
 7887TIP3    H145152   5.907   1.958   3.544  0.4413  0.2387  1.5345
 7887TIP3    H245153   6.017   2.031   3.470 -0.3584 -0.8218 -0.7983
 7888TIP3   OH245154   0.173   2.161   6.086  0.3496  0.0549 -0.0833
 7888TIP3    H145155   0.083   2.165   6.118 -0.0049  0.1544 -1.0657
 7888TIP3    H245156   0.181   2.236   6.027  0.9950 -0.1035 -0.2096
 7889TIP3   OH245157   0.124   1.567   5.303 -0.2498 -0.0382 -0.0853
 7889TIP3    H145158   0.198   1.628   5.291  0.5008 -1.0115 -0.5471
 7889TIP3    H245159   0.165   1.483   5.324 -1.3192  0.0463  2.8386
 7890TIP3   OH245160   0.367   1.700  16.594 -0.3363  0.2893  0.5114
 7890TIP3    H145161   0.435   1.665  16.652  0.7969 -0.7068 -1.3208
 7890TIP3    H245162   0.384   1.795  16.593  0.8726  0.0876  0.3037
 7891TIP3   OH245163   2.263   1.629   2.030  0.0789 -0.3047 -0.2431
 7891TIP3    H145164   2.315   1.641   2.110  1.1244 -0.6740 -0.8492
 7891TIP3    H245165   2.212   1.550   2.046  0.4321 -0.4871 -0.0149
 7892TIP3   OH245166   3.069   0.901  12.902 -0.3035  0.1771 -0.0303
 7892TIP3    H145167   3.134   0.875  12.967  0.3831  1.4340 -0.1946
 7892TIP3    H245168   2.985   0.874  12.940  0.3673 -3.5464 -0.7825
 7893TIP3   OH245169   5.151   2.292  13.073  0.0340  0.5485  0.3577
 7893TIP3    H145170   5.086   2.341  13.124  0.2926  0.5633  0.6673
 7893TIP3    H245171   5.234   2.310  13.115  0.2040  0.2764  0.1438
 7894TIP3   OH245172   6.187   5.305   0.649  0.4231  0.8505  0.3809
 7894TIP3    H145173   6.092   5.295   0.645  0.6883 -2.8114 -0.7549
 7894TIP3    H245174   6.218   5.272   0.564  2.7918  0.1045  1.4505
 7895TIP3   OH245175   1.842   6.137   0.965  0.3749 -0.1726 -0.9306
 7895TIP3    H145176   1.932   6.144   0.934  0.3367  0.2196 -0.9541
 7895TIP3    H245177   1.807   6.226   0.957  0.3957 -0.0334  0.3292
 7896TIP3   OH245178   6.362   5.853   5.109  0.1418  0.2522  0.0407
 7896TIP3    H145179   6.419   5.855   5.186 -0.5923 -1.0930  0.6546
 7896TIP3    H245180   6.334   5.944   5.097  0.0376  0.4432  1.5464
 7897TIP3   OH245181   4.548   2.963  15.031  0.0058  0.2047 -0.0079
 7897TIP3    H145182   4.538   2.999  14.943 -0.1734 -0.3203 -0.2043
 7897TIP3    H245183   4.636   2.926  15.032 -0.7875 -1.8428 -0.7402
 7898TIP3   OH245184   1.314   1.931  13.821 -0.5559 -0.1264 -0.2669
 7898TIP3    H145185   1.227   1.967  13.801 -0.3809  0.3247 -0.2382
 7898TIP3    H245186   1.338   1.972  13.904 -0.3047 -0.2270 -0.2886
 7899TIP3   OH245187   6.323   3.587  12.644  0.0172  0.5270  0.1992
 7899TIP3    H145188   6.354   3.607  12.556  0.5702  1.1142  0.5188
 7899TIP3    H245189   6.230   3.566  12.633  0.7440 -2.7765 -1.0315
 7900TIP3   OH245190   4.551   1.837  14.590  0.2147 -0.5355  0.1343
 7900TIP3    H145191   4.617   1.768  14.587  0.2571 -0.5848  1.4368
 7900TIP3    H245192   4.584   1.900  14.655 -1.0251 -0.5997  0.8789
 7901TIP3   OH245193   4.066   3.556  11.517 -0.5997 -0.6454 -0.0823
 7901TIP3    H145194   4.128   3.566  11.590  0.9981 -0.1449 -1.4405
 7901TIP3    H245195   4.034   3.645  11.500  0.0985 -0.5352 -0.8655
 7902TIP3   OH245196   3.143   4.594   0.646  0.4598  0.2143  0.2144
 7902TIP3    H145197   3.120   4.522   0.587  0.9296 -1.1653  1.6182
 7902TIP3    H245198   3.227   4.627   0.613 -0.0914  0.5719 -0.8390
 7903TIP3   OH245199   1.048   6.829  13.099  0.3489 -0.1794  0.3086
 7903TIP3    H145200   1.131   6.848  13.143  0.6208  0.4375 -0.4575
 7903TIP3    H245201   1.021   6.745  13.135 -0.3105  1.0765  2.9330
 7904TIP3   OH245202   4.788   2.919  16.714 -0.1538  0.1660  0.9444
 7904TIP3    H145203   4.842   2.841  16.728  0.3392  0.6959  2.1520
 7904TIP3    H245204   4.812   2.978  16.786 -2.4528  0.3808  1.6021
 7905TIP3   OH245205   1.991   6.081  17.032 -0.4418  0.5205 -1.0943
 7905TIP3    H145206   1.908   6.073  17.079 -1.8090  0.1921 -3.4346
 7905TIP3    H245207   1.978   6.152  16.970  1.4722  1.2526 -0.7350
 7906TIP3   OH245208   0.517   0.994   4.312  0.2563  0.0874 -0.1627
 7906TIP3    H145209   0.424   0.973   4.326 -0.0377  1.9628  1.0224
 7906TIP3    H245210   0.543   1.043   4.389  2.8626 -2.0635  0.4892
 7907TIP3   OH245211   1.091   4.333  12.500  0.1634  0.3021  0.3606
 7907TIP3    H145212   1.035   4.407  12.523  0.1561  0.0086  1.3514
 7907TIP3    H245213   1.055   4.300  12.418 -0.4661  0.7704  0.4385
 7908TIP3   OH245214   1.254   4.575  13.555  0.1871 -0.4799 -0.4573
 7908TIP3    H145215   1.273   4.567  13.462 -0.9497 -0.2072 -0.7252
 7908TIP3    H245216   1.327   4.627  13.590  0.3306 -0.0939 -1.2997
 7909TIP3   OH245217   2.715   0.113   1.095 -0.0346 -0.2009  0.0769
 7909TIP3    H145218   2.747   0.177   1.032 -0.8864 -0.9502 -1.1549
 7909TIP3    H245219   2.633   0.081   1.058 -0.1966 -1.1930  1.2150
 7910TIP3   OH245220   0.336   5.083  12.907  0.1771 -0.0673  0.4049
 7910TIP3    H145221   0.323   5.091  13.002 -0.2282 -1.4468  0.4879
 7910TIP3    H245222   0.392   5.006  12.897  1.9920  1.2843 -0.3852
 7911TIP3   OH245223   1.676   0.728  14.298 -0.1291 -0.1332  0.0918
 7911TIP3    H145224   1.709   0.749  14.211 -0.8140  2.3727  0.3646
 7911TIP3    H245225   1.597   0.677  14.282 -2.0234  2.8996 -0.9536
 7912TIP3   OH245226   5.760   3.252  12.016  0.1690 -0.2903 -0.3780
 7912TIP3    H145227   5.725   3.196  12.085  0.3503 -0.9889 -0.8407
 7912TIP3    H245228   5.850   3.221  12.003  1.4094  2.1515  1.5192
 7913TIP3   OH245229   4.311   4.999  11.367  0.1840 -0.5057 -0.4122
 7913TIP3    H145230   4.287   5.067  11.304 -1.7785 -1.1818 -0.4573
 7913TIP3    H245231   4.228   4.958  11.391  0.9955 -1.0068  1.7868
 7914TIP3   OH245232   6.389   2.815   3.616 -0.1996  0.0267  0.1947
 7914TIP3    H145233   6.298   2.801   3.592 -0.0505  0.8930 -0.9693
 7914TIP3    H245234   6.429   2.727   3.613 -0.7414 -0.2046 -0.3936
 7915TIP3   OH245235   5.426   0.400  14.067  0.0090 -0.5943 -0.8418
 7915TIP3    H145236   5.375   0.446  14.000  0.9247  0.0480 -1.1098
 7915TIP3    H245237   5.370   0.402  14.145 -0.8695 -0.9460 -1.4508
 7916TIP3   OH245238   3.165   0.302  15.807  0.1038 -0.2944 -0.1138
 7916TIP3    H145239   3.129   0.300  15.719 -1.1029 -0.5591  0.3649
 7916TIP3    H245240   3.215   0.221  15.815  2.1207  0.7446 -1.2806
 7917TIP3   OH245241   6.767   5.634   5.328 -0.1662 -0.2182 -0.8075
 7917TIP3    H145242   6.847   5.673   5.363  0.0855 -0.0139 -1.5852
 7917TIP3    H245243   6.734   5.699   5.266 -0.2215 -0.8537 -1.4543
 7918TIP3   OH245244   1.526   5.395  12.238 -0.3546  0.1797 -0.0102
 7918TIP3    H145245   1.481   5.311  12.226 -0.8854  0.2448  1.4207
 7918TIP3    H245246   1.459   5.453  12.273 -0.0075  1.2516 -1.0703
 7919TIP3   OH245247   2.466   1.223  13.347  0.1803 -0.5090  0.5485
 7919TIP3    H145248   2.527   1.193  13.415  1.6080 -1.4014 -1.0491
 7919TIP3    H245249   2.521   1.235  13.269 -1.6573 -1.2663 -0.9398
 7920TIP3   OH245250   3.065   0.011  12.334 -0.0863  0.5811 -0.0201
 7920TIP3    H145251   3.146  -0.013  12.290 -0.3010  2.4685 -1.5908
 7920TIP3    H245252   3.084  -0.003  12.427  3.6290  4.6374  0.2021
 7921TIP3   OH245253   5.877   2.448  12.130  0.2173 -0.5744  0.4226
 7921TIP3    H145254   5.873   2.517  12.064  2.0291  0.1487  1.0132
 7921TIP3    H245255   5.940   2.480  12.195 -0.3988 -1.9154  1.7498
 7922TIP3   OH245256   1.849   3.157  10.447  0.3261  0.0541 -0.0960
 7922TIP3    H145257   1.888   3.183  10.363  1.2552  1.3852  0.7059
 7922TIP3    H245258   1.781   3.223  10.463  0.8007  0.3826  0.6309
 7923TIP3   OH245259   4.262   2.458   4.669  0.5879 -0.0372  0.1394
 7923TIP3    H145260   4.352   2.432   4.649  1.1792  1.5514  0.6094
 7923TIP3    H245261   4.208   2.404   4.611  1.8883 -0.4289 -0.7481
 7924TIP3   OH245262   2.920   4.840   4.685 -0.3453 -0.5794 -0.0083
 7924TIP3    H145263   3.006   4.871   4.710 -0.0284 -0.4716 -1.1908
 7924TIP3    H245264   2.868   4.844   4.766 -0.2507  2.6614  0.0128
 7925TIP3   OH245265   0.578   6.714  14.621 -0.0089  0.3584 -0.0212
 7925TIP3    H145266   0.609   6.631  14.659  2.4529  1.3673  0.3892
 7925TIP3    H245267   0.542   6.763  14.695 -1.0212 -0.1232 -0.1788
 7926TIP3   OH245268   2.869   1.866   1.878 -0.0159  0.1454 -0.4915
 7926TIP3    H145269   2.877   1.940   1.938  1.0578 -1.0559  0.9214
 7926TIP3    H245270   2.922   1.892   1.802  0.1814  0.9173 -0.1090
 7927TIP3   OH245271   0.512   2.176   5.810  0.3326  0.2834 -0.7208
 7927TIP3    H145272   0.552   2.256   5.844 -0.0867  0.6633 -1.0977
 7927TIP3    H245273   0.443   2.208   5.751  0.3935 -0.3576 -1.1390
 7928TIP3   OH245274   2.381   3.294   2.220 -0.5104 -0.5698  0.0032
 7928TIP3    H145275   2.302   3.331   2.259 -0.3384 -0.3786  0.1718
 7928TIP3    H245276   2.350   3.223   2.164 -0.6194 -2.2618  2.1007
 7929TIP3   OH245277   4.339   5.050  13.372  0.0432  0.0837 -0.2616
 7929TIP3    H145278   4.418   5.066  13.320  0.6347 -0.2866  0.5054
 7929TIP3    H245279   4.365   4.985  13.438 -1.3607 -1.3486 -1.0504
 7930TIP3   OH245280   0.941   3.704   4.009 -0.1464  0.5023  0.3458
 7930TIP3    H145281   0.894   3.631   4.048 -0.1537  0.2250 -0.1714
 7930TIP3    H245282   0.939   3.686   3.915 -0.3044  1.2617  0.1986
 7931TIP3   OH245283   4.484   0.370  14.610 -0.6249  0.4991 -0.2498
 7931TIP3    H145284   4.539   0.373  14.688  0.8384  0.7623 -1.2437
 7931TIP3    H245285   4.397   0.392  14.641 -0.0321  0.8222  1.2717
 7932TIP3   OH245286   4.780   4.649   4.126  0.0999 -0.0863  0.2758
 7932TIP3    H145287   4.700   4.700   4.113 -0.2246 -1.0180 -1.8923
 7932TIP3    H245288   4.850   4.704   4.092  0.0756 -0.1261  0.1597
 7933TIP3   OH245289   3.888   2.545   1.115  0.4043  0.0415 -0.0629
 7933TIP3    H145290   3.898   2.635   1.086  0.4127 -0.8813 -3.3281
 7933TIP3    H245291   3.796   2.523   1.098  0.9400 -1.2061 -1.7249
 7934TIP3   OH245292   6.389   0.730  13.946 -0.4085  0.7865 -0.6852
 7934TIP3    H145293   6.342   0.775  14.017 -0.0523  0.0620  0.0252
 7934TIP3    H245294   6.345   0.646  13.938  1.2126 -0.2463  0.5500
 7935TIP3   OH245295   5.195   5.290  15.199 -0.1295 -0.1959 -0.2987
 7935TIP3    H145296   5.165   5.213  15.246  1.5153 -0.7418 -0.0539
 7935TIP3    H245297   5.264   5.256  15.141  0.6898  1.1060 -0.1090
 7936TIP3   OH245298   2.905   1.408   4.806  0.3073  0.1822  0.3374
 7936TIP3    H145299   2.825   1.440   4.766  0.4393  1.0797  0.7774
 7936TIP3    H245300   2.880   1.324   4.845 -0.4337  0.4743  0.5075
 7937TIP3   OH245301   2.151   4.874   4.912  0.4240 -0.2675  0.9279
 7937TIP3    H145302   2.169   4.797   4.967 -1.5953 -1.8283 -0.4615
 7937TIP3    H245303   2.211   4.865   4.838 -1.4163 -1.9524 -0.4678
 7938TIP3   OH245304   2.986   3.515   2.168  0.2822  0.3784  0.2969
 7938TIP3    H145305   2.945   3.477   2.246 -0.7524  1.6626  0.4167
 7938TIP3    H245306   3.044   3.583   2.202 -0.8949  1.6028 -0.0597
 7939TIP3   OH245307   4.133   4.660  12.071 -0.2920 -0.5320  0.0171
 7939TIP3    H145308   4.176   4.725  12.126  0.0266  0.6640 -1.5718
 7939TIP3    H245309   4.165   4.576  12.103  0.4692  0.1641  1.1412
 7940TIP3   OH245310   1.106   2.105  13.787  0.1414 -0.6060  0.2515
 7940TIP3    H145311   1.090   2.182  13.841 -0.7860  1.3373 -2.5744
 7940TIP3    H245312   1.019   2.081  13.755  0.5880 -2.0877  0.0793
 7941TIP3   OH245313   1.274   0.385   4.942  0.6500 -0.1389 -0.5097
 7941TIP3    H145314   1.296   0.319   4.876  0.5754  0.3969 -1.0822
 7941TIP3    H245315   1.312   0.352   5.023  1.0887 -0.6152 -0.9038
 7942TIP3   OH245316   3.140   2.844  14.556 -0.8117 -0.2834 -0.5264
 7942TIP3    H145317   3.105   2.766  14.599 -1.3745  0.5221  0.5228
 7942TIP3    H245318   3.069   2.873  14.498 -2.2913  1.6804  2.0227
 7943TIP3   OH245319   2.694   4.653  13.430 -0.2464 -0.1306 -0.4892
 7943TIP3    H145320   2.785   4.654  13.399 -0.1201 -0.9019 -0.1489
 7943TIP3    H245321   2.669   4.746  13.430  1.2185  0.3345  1.4016
 7944TIP3   OH245322   2.204   5.181   2.006  0.0184 -0.0511  0.2107
 7944TIP3    H145323   2.264   5.125   1.957 -1.3621 -0.5235 -1.0044
 7944TIP3    H245324   2.129   5.192   1.948  0.0240  2.6870  0.6059
 7945TIP3   OH245325   5.665   4.465  12.405  0.1088  0.1969  0.0450
 7945TIP3    H145326   5.643   4.517  12.482  0.4532  0.5385 -0.0842
 7945TIP3    H245327   5.754   4.491  12.383  0.5415 -0.9519  0.3825
 7946TIP3   OH245328   3.673   4.789   2.383  0.0093 -0.1930  0.0275
 7946TIP3    H145329   3.688   4.874   2.424 -2.1231  0.5090 -0.4756
 7946TIP3    H245330   3.704   4.799   2.293  1.8870 -0.7513  0.5653
 7947TIP3   OH245331   3.906   0.837  12.364 -0.0773  0.1153  0.0938
 7947TIP3    H145332   3.927   0.828  12.271 -0.6851  2.7215 -0.3486
 7947TIP3    H245333   3.811   0.839  12.367 -0.0539  1.3510  0.5961
 7948TIP3   OH245334   2.526   6.286  15.033  0.1331  0.5275  0.1048
 7948TIP3    H145335   2.443   6.332  15.026  0.0457  0.2117 -1.2294
 7948TIP3    H245336   2.503   6.198  15.060  0.0535  0.5192  0.0113
 7949TIP3   OH245337   2.126   2.457   2.045 -0.2897  0.3443 -0.0354
 7949TIP3    H145338   2.115   2.471   2.139  0.4039 -3.5126  0.7706
 7949TIP3    H245339   2.218   2.477   2.029  0.3885 -1.7630  0.8337
 7950TIP3   OH245340   0.327   3.796  16.657 -0.0095  0.4058  0.0052
 7950TIP3    H145341   0.306   3.889  16.648 -1.3359  0.1514  0.1835
 7950TIP3    H245342   0.397   3.793  16.721 -0.5788  1.2249  0.6854
 7951TIP3   OH245343   4.047   2.904   6.331 -0.2250  0.5200  0.4865
 7951TIP3    H145344   4.133   2.868   6.350 -1.1725 -1.7338  0.7988
 7951TIP3    H245345   4.028   2.962   6.404  0.1293 -0.6605  1.5414
 7952TIP3   OH245346   2.704   4.476  12.702  0.4934 -0.9324  0.4013
 7952TIP3    H145347   2.766   4.532  12.749  1.8702 -1.8438 -0.2428
 7952TIP3    H245348   2.687   4.403  12.761  0.2869 -0.8429  0.4522
 7953TIP3   OH245349   4.946   2.619   4.592 -0.3269 -0.9109  0.7465
 7953TIP3    H145350   4.887   2.693   4.608  1.4422  0.6577  0.3646
 7953TIP3    H245351   5.015   2.630   4.657  1.4412 -0.5398 -1.1021
 7954TIP3   OH245352   2.946   4.992  16.825  0.1259 -0.0118  0.1729
 7954TIP3    H145353   2.854   5.019  16.827  0.2942  0.5510  0.4081
 7954TIP3    H245354   2.967   4.969  16.915 -0.8183 -3.7513 -0.4157
 7955TIP3   OH245355   2.766   3.986  15.511  0.0481  0.2613 -0.3399
 7955TIP3    H145356   2.758   4.016  15.601 -1.2492  1.2712 -0.7625
 7955TIP3    H245357   2.738   3.895  15.513 -0.1822  0.3445  0.2419
 7956TIP3   OH245358   5.041   4.829  15.232  0.1355  0.1378 -0.3484
 7956TIP3    H145359   5.070   4.886  15.303  0.6977 -0.0042 -0.4563
 7956TIP3    H245360   5.019   4.889  15.160  0.2470  0.2453 -0.2939
 7957TIP3   OH245361   3.938   1.036  11.310  0.9063 -0.5358 -0.2381
 7957TIP3    H145362   3.881   1.106  11.278  2.0198  0.2561 -0.5239
 7957TIP3    H245363   4.026   1.063  11.286  1.3411 -2.2307 -0.7086
 7958TIP3   OH245364   2.005   2.141  13.352  0.1500  0.3229 -0.5274
 7958TIP3    H145365   2.018   2.175  13.440 -1.2208 -2.2119  0.7657
 7958TIP3    H245366   2.087   2.097  13.331  0.0888 -0.0301 -0.0378
 7959TIP3   OH245367   5.977   5.486   4.642  0.3443  0.0601 -0.0645
 7959TIP3    H145368   6.046   5.420   4.646  0.7192  0.4429 -0.1188
 7959TIP3    H245369   5.925   5.472   4.721  0.6761 -0.0276  0.1387
 7960TIP3   OH245370   0.570   6.246   1.240  0.0413 -0.3022 -0.0145
 7960TIP3    H145371   0.582   6.281   1.151  0.7829  1.0066  0.5700
 7960TIP3    H245372   0.475   6.238   1.249 -0.0649 -0.0722 -0.7929
 7961TIP3   OH245373   5.329   5.115  15.791  0.3526 -0.4953  0.1114
 7961TIP3    H145374   5.362   5.181  15.851 -0.9721  1.8554 -1.5752
 7961TIP3    H245375   5.279   5.055  15.846  1.9467 -0.4006  1.7574
 7962TIP3   OH245376   0.722   3.191   1.137 -0.3386 -0.4165  0.1195
 7962TIP3    H145377   0.725   3.193   1.233 -0.0196 -0.6087  0.1156
 7962TIP3    H245378   0.814   3.189   1.111 -0.4235 -0.2176 -0.1963
 7963TIP3   OH245379   6.424   6.403   3.501 -0.3098  0.3134  0.4939
 7963TIP3    H145380   6.408   6.335   3.566 -1.3638 -0.5250 -0.5981
 7963TIP3    H245381   6.474   6.360   3.432 -0.6267  0.7400 -0.0163
 7964TIP3   OH245382   1.851   4.141   0.681 -0.5158  0.0450 -0.2902
 7964TIP3    H145383   1.846   4.047   0.661 -0.0834  0.1760 -1.0889
 7964TIP3    H245384   1.794   4.182   0.616  0.6915  0.4671 -1.1248
 7965TIP3   OH245385   0.503   3.869  12.433  0.1307 -0.3664  0.1164
 7965TIP3    H145386   0.423   3.918  12.454  0.4621 -0.4419  1.6886
 7965TIP3    H245387   0.555   3.930  12.380  0.4775  0.9990  1.9114
 7966TIP3   OH245388   6.409   1.128   5.679 -1.2988 -0.1944 -0.2398
 7966TIP3    H145389   6.487   1.144   5.626 -0.3655  0.4675  1.2936
 7966TIP3    H245390   6.358   1.209   5.670 -1.3038 -0.2144 -0.3947
 7967TIP3   OH245391   1.779   6.649   5.487  0.0550 -0.0437  0.2537
 7967TIP3    H145392   1.853   6.665   5.546  0.5785 -1.3667  0.0020
 7967TIP3    H245393   1.709   6.617   5.543  0.2065 -0.3060  0.2946
 7968TIP3   OH245394   5.998   0.293   3.625  0.0484  0.3018 -0.5316
 7968TIP3    H145395   5.998   0.364   3.689  1.2487 -0.0091 -0.1496
 7968TIP3    H245396   6.087   0.294   3.589 -0.3751 -0.0331 -1.6342
 7969TIP3   OH245397   4.412   0.693  16.015 -0.3390 -0.4489 -1.1857
 7969TIP3    H145398   4.336   0.723  16.064 -0.3251  0.3405 -1.6293
 7969TIP3    H245399   4.456   0.774  15.987  1.0306 -0.8693 -0.3800
 7970TIP3   OH245400   3.218   1.583  12.420 -0.1004  0.5578 -0.2548
 7970TIP3    H145401   3.162   1.638  12.365  0.5710  0.9746 -0.5350
 7970TIP3    H245402   3.183   1.495  12.410 -0.6988  0.8121 -0.4367
 7971TIP3   OH245403   3.860   1.629   3.693 -0.0320  0.2902 -0.3936
 7971TIP3    H145404   3.942   1.584   3.674 -0.0283 -0.1665  0.6317
 7971TIP3    H245405   3.876   1.672   3.777  0.7113  4.0350 -2.2465
 7972TIP3   OH245406   4.664   3.486  16.473 -0.3187 -0.3139  0.2991
 7972TIP3    H145407   4.727   3.465  16.543 -0.1229  1.5461  0.7335
 7972TIP3    H245408   4.596   3.419  16.481  0.5994 -1.1799  1.1201
 7973TIP3   OH245409   1.081   0.284   1.522  0.0002  0.3190 -0.8315
 7973TIP3    H145410   0.985   0.278   1.523 -0.0007  0.2331  0.8827
 7973TIP3    H245411   1.110   0.203   1.481 -0.6309 -0.1917 -0.2752
 7974TIP3   OH245412   3.089   1.563   0.987 -0.2956  0.0339 -0.0505
 7974TIP3    H145413   3.003   1.555   0.948 -0.4203 -0.9765  0.4019
 7974TIP3    H245414   3.077   1.622   1.061 -0.8339 -0.8979  0.6289
 7975TIP3   OH245415   5.085   4.231  12.760  0.0045  0.1830  0.2147
 7975TIP3    H145416   5.009   4.284  12.783 -0.9622 -0.7839 -0.6093
 7975TIP3    H245417   5.051   4.169  12.695  1.8889  0.9025 -1.5828
 7976TIP3   OH245418   0.114   5.669  13.570  0.1527 -0.0421 -0.9807
 7976TIP3    H145419   0.029   5.712  13.570  0.4107  0.6928 -3.9301
 7976TIP3    H245420   0.156   5.699  13.651 -2.2843 -0.4060  0.5399
 7977TIP3   OH245421   5.539   3.711  16.514 -0.1350 -0.3529  0.0615
 7977TIP3    H145422   5.557   3.743  16.603 -1.5458 -0.4418  0.3965
 7977TIP3    H245423   5.582   3.775  16.457 -0.2757  0.4004  0.7840
 7978TIP3   OH245424   1.065   1.763   2.338  0.4027  0.0646 -0.1380
 7978TIP3    H145425   1.023   1.695   2.391  2.7664 -0.3771  1.2937
 7978TIP3    H245426   1.087   1.718   2.256 -0.2481 -0.1935 -0.1810
 7979TIP3   OH245427   2.915   2.119  11.543  0.3846  0.4638  0.0922
 7979TIP3    H145428   2.884   2.209  11.531  1.9930  0.9715 -0.6630
 7979TIP3    H245429   2.908   2.103  11.637  1.4006  1.9211  0.4485
 7980TIP3   OH245430   3.216   1.499  10.545  0.1559 -0.4771  0.0854
 7980TIP3    H145431   3.127   1.534  10.539  0.5582  0.2542 -2.9022
 7980TIP3    H245432   3.211   1.414  10.502  1.0700 -0.0239 -0.9467
 7981TIP3   OH245433   6.787   2.324  12.086  0.2463  0.4305 -0.5793
 7981TIP3    H145434   6.750   2.329  12.174  0.8860 -0.6148 -0.2306
 7981TIP3    H245435   6.747   2.247  12.047  4.1276 -2.6502  0.9109
 7982TIP3   OH245436   0.708   0.184   2.441  0.0074 -0.0802 -0.4139
 7982TIP3    H145437   0.685   0.103   2.394 -0.5921 -0.1978  0.0747
 7982TIP3    H245438   0.782   0.219   2.392  0.4395 -1.0571 -0.4899
 7983TIP3   OH245439   2.394   5.436  13.294 -0.7697 -0.5612 -0.0899
 7983TIP3    H145440   2.327   5.461  13.230 -0.1209 -0.6218 -0.8076
 7983TIP3    H245441   2.427   5.351  13.264  0.1822 -0.1689 -0.2087
 7984TIP3   OH245442   6.771   1.596   0.275  0.1029 -0.6259 -0.3245
 7984TIP3    H145443   6.675   1.605   0.275 -0.0646 -1.4098 -3.0213
 7984TIP3    H245444   6.786   1.511   0.318 -0.1628  0.4908  2.1531
 7985TIP3   OH245445   5.650   4.398   1.872  0.2548 -0.1053 -0.5853
 7985TIP3    H145446   5.620   4.374   1.784 -2.0642  0.4816 -0.0366
 7985TIP3    H245447   5.683   4.487   1.863 -1.4811  0.5842 -0.6376
 7986TIP3   OH245448   6.686   6.385   5.564  0.0866 -0.1585 -0.1352
 7986TIP3    H145449   6.675   6.462   5.620 -0.8123 -0.4380  0.0861
 7986TIP3    H245450   6.677   6.419   5.475  1.5894  0.2991 -0.1306
 7987TIP3   OH245451   1.218   1.515  12.901 -0.1269 -0.0306  0.2620
 7987TIP3    H145452   1.234   1.461  12.823 -1.3882  0.8028 -0.6097
 7987TIP3    H245453   1.300   1.512  12.949  1.1797  0.5341 -1.7879
 7988TIP3   OH245454   1.186   3.516   4.630  0.7492  0.2249  0.3642
 7988TIP3    H145455   1.270   3.558   4.645  0.9638  0.1208 -0.5203
 7988TIP3    H245456   1.147   3.564   4.558  1.7263 -2.0291 -1.8480
 7989TIP3   OH245457   6.305   1.729   3.483 -0.6177  0.5883 -0.2841
 7989TIP3    H145458   6.220   1.685   3.474 -0.0524 -1.5743  3.1514
 7989TIP3    H245459   6.289   1.799   3.547  0.0894  0.3403  0.1742
 7990TIP3   OH245460   4.628   1.001   1.663  0.0091 -0.1288 -0.1410
 7990TIP3    H145461   4.690   1.056   1.614  0.1934 -1.0827 -1.0008
 7990TIP3    H245462   4.630   1.037   1.752  0.1162  1.2613 -0.6740
 7991TIP3   OH245463   5.860   3.731   2.356  0.0299 -0.2883 -0.3395
 7991TIP3    H145464   5.942   3.697   2.322  0.4701  0.0319  0.3901
 7991TIP3    H245465   5.885   3.803   2.414 -0.7135 -0.7367  0.5610
 7992TIP3   OH245466   0.520   3.469   4.941 -0.1645 -0.0625  0.1579
 7992TIP3    H145467   0.563   3.546   4.977 -0.4492 -0.2265  0.8732
 7992TIP3    H245468   0.426   3.486   4.953 -0.2131 -0.7651  0.8699
 7993TIP3   OH245469   5.481   2.072   3.955  0.2494 -0.0922 -0.2434
 7993TIP3    H145470   5.508   1.998   4.009 -0.6629 -0.0368  0.3004
 7993TIP3    H245471   5.504   2.046   3.866  0.3748 -0.8293 -0.0044
 7994TIP3   OH245472   6.722   0.806  13.252 -0.0083  0.3680  0.1648
 7994TIP3    H145473   6.708   0.863  13.176  0.4842 -0.6736 -0.7318
 7994TIP3    H245474   6.787   0.742  13.223 -0.1462 -0.3287  1.3180
 7995TIP3   OH245475   4.957   0.672  12.529 -0.0885 -0.1887  0.0635
 7995TIP3    H145476   4.969   0.610  12.457 -1.2543  0.2396 -0.5251
 7995TIP3    H245477   5.045   0.689  12.561  0.2077 -2.9464  0.9399
 7996TIP3   OH245478   1.705   4.056  13.005 -0.0775  0.1358  0.4573
 7996TIP3    H145479   1.693   3.979  13.060  1.2588 -1.3307 -1.1981
 7996TIP3    H245480   1.767   4.028  12.937 -0.3490  2.3631 -0.8041
 7997TIP3   OH245481   0.269   1.961  15.402  0.7520  0.3972  0.3575
 7997TIP3    H145482   0.280   1.867  15.416  0.7601  0.1496 -1.1433
 7997TIP3    H245483   0.333   2.002  15.460 -0.5477 -0.3989  2.4954
 7998TIP3   OH245484   3.549   6.304  13.212  0.3094  0.4221 -0.0653
 7998TIP3    H145485   3.545   6.268  13.301 -0.7118  1.3636  0.2978
 7998TIP3    H245486   3.459   6.329  13.192  0.7280  1.3972 -0.8721
 7999TIP3   OH245487   4.905   6.719   1.803  0.2666  0.2136 -0.2856
 7999TIP3    H145488   4.994   6.719   1.840  0.5351  1.8620 -0.8334
 7999TIP3    H245489   4.849   6.694   1.876  1.2114 -1.4248 -0.0705
 8000TIP3   OH245490   2.769   4.223   5.647  0.3076 -0.0530 -0.0784
 8000TIP3    H145491   2.758   4.139   5.602  1.0073 -0.0310 -0.3130
 8000TIP3    H245492   2.769   4.288   5.577 -0.3537  0.1604  0.1142
 8001TIP3   OH245493   2.564   1.279  13.048  0.0736  0.4300  0.2215
 8001TIP3    H145494   2.625   1.314  12.983  0.6568  1.4930  1.2931
 8001TIP3    H245495   2.545   1.354  13.104 -0.2950 -0.4958  1.3570
 8002TIP3   OH245496   6.497   6.529   5.441 -0.2817 -0.2681 -0.6885
 8002TIP3    H145497   6.451   6.568   5.515  2.3241 -0.0319  0.9525
 8002TIP3    H245498   6.467   6.438   5.439 -2.1619  0.3259 -0.9099
 8003TIP3   OH245499   6.763   1.659  12.123  0.2141 -0.4708 -0.5181
 8003TIP3    H145500   6.815   1.594  12.078  2.2523  1.1794 -0.6939
 8003TIP3    H245501   6.814   1.682  12.201  0.5207  2.1934 -1.3975
 8004TIP3   OH245502   2.616   0.798  13.252 -0.6087  0.4459  0.1654
 8004TIP3    H145503   2.531   0.823  13.216  0.3943  0.5611 -2.3566
 8004TIP3    H245504   2.634   0.712  13.213  0.4971  0.5054  0.5120
 8005TIP3   OH245505   4.360   4.363  13.914  0.5546 -0.1377  0.2157
 8005TIP3    H145506   4.356   4.433  13.979 -1.4546  1.0824 -1.1255
 8005TIP3    H245507   4.334   4.285  13.963  2.2847  0.0781  1.5989
 8006TIP3   OH245508   6.600   2.063   3.127 -0.7109  0.3112 -0.4447
 8006TIP3    H145509   6.672   2.026   3.178 -1.0552  0.8867  0.4789
 8006TIP3    H245510   6.569   1.990   3.072 -0.6581 -0.4682  0.5339
 8007TIP3   OH245511   1.614   4.915  15.087 -0.3029  0.0889  0.1563
 8007TIP3    H145512   1.632   4.998  15.042  1.3911 -0.3757 -0.0686
 8007TIP3    H245513   1.579   4.942  15.172 -1.3375  0.9925 -0.5129
 8008TIP3   OH245514   1.295   6.716   1.014  0.0836 -0.4091 -0.0122
 8008TIP3    H145515   1.262   6.634   0.978  0.8262 -1.1543  0.9464
 8008TIP3    H245516   1.228   6.781   0.993 -1.1965 -1.5423  0.4445
 8009TIP3   OH245517   5.472   0.654   1.470 -0.1975  0.1357  0.1513
 8009TIP3    H145518   5.464   0.741   1.509  1.8477  0.0534  0.8376
 8009TIP3    H245519   5.549   0.615   1.511  0.0557 -1.2815 -1.5157
 8010TIP3   OH245520   3.467   6.607   3.589  0.3717 -0.3936 -0.5714
 8010TIP3    H145521   3.428   6.679   3.638 -1.3974 -1.1111 -0.8520
 8010TIP3    H245522   3.406   6.592   3.516  1.1855 -1.5587 -1.0410
 8011TIP3   OH245523   2.384   3.552  16.984  0.3556  0.8137  0.0131
 8011TIP3    H145524   2.420   3.631  16.943  1.6293 -0.7003 -1.9675
 8011TIP3    H245525   2.319   3.521  16.921 -0.0836  0.2313  0.7432
 8012TIP3   OH245526   2.207   4.060   3.986  0.0691  0.3305 -0.0073
 8012TIP3    H145527   2.183   4.119   4.057  3.4668 -0.6803  2.2322
 8012TIP3    H245528   2.189   4.110   3.906 -0.4727  2.9780  1.6574
 8013TIP3   OH245529   1.879   2.330  16.987 -0.2946  1.0158 -0.1981
 8013TIP3    H145530   1.901   2.306  16.897 -3.3389  0.6883 -0.9731
 8013TIP3    H245531   1.786   2.353  16.983 -0.7563  0.1225  3.0389
 8014TIP3   OH245532   0.893   4.753  17.084  0.1479 -0.1215 -0.1239
 8014TIP3    H145533   0.941   4.836  17.090 -0.8250  0.4504 -0.1008
 8014TIP3    H245534   0.807   4.772  17.121  0.1094 -1.3068  0.4319
 8015TIP3   OH245535   1.842   4.277   3.709 -0.2821  0.0582 -0.0540
 8015TIP3    H145536   1.846   4.371   3.726 -0.5372  0.2500 -0.9584
 8015TIP3    H245537   1.865   4.269   3.616 -4.3959 -0.3191 -1.2645
 8016TIP3   OH245538   4.653   4.945   3.365  0.3203  0.2154 -0.3334
 8016TIP3    H145539   4.724   4.918   3.423 -0.7524 -1.2824  0.3412
 8016TIP3    H245540   4.618   5.025   3.405  0.1815 -0.2987  0.5764
 8017TIP3   OH245541   1.649   4.407  10.382  0.6153  0.7452 -0.0915
 8017TIP3    H145542   1.675   4.326  10.337  1.8293  0.5927  0.8345
 8017TIP3    H245543   1.727   4.462  10.380  1.0348  0.3802  2.5640
 8018TIP3   OH245544   4.100   4.481  16.500 -0.4792 -0.1587  0.2429
 8018TIP3    H145545   4.053   4.520  16.426 -0.9817  1.5056  1.3859
 8018TIP3    H245546   4.036   4.421  16.539 -0.3791 -0.6701 -0.3601
 8019TIP3   OH245547   6.613   0.389  14.316 -0.2515  0.3285 -0.6407
 8019TIP3    H145548   6.697   0.435  14.313  0.6260 -1.1623  0.0293
 8019TIP3    H245549   6.634   0.298  14.295 -1.8535  0.0819 -1.3738
 8020TIP3   OH245550   5.795   1.852  12.096 -0.1806 -0.4217  0.7389
 8020TIP3    H145551   5.716   1.907  12.087  0.2370  0.0281 -0.2638
 8020TIP3    H245552   5.782   1.781  12.034  0.3545 -0.1636  0.3288
 8021TIP3   OH245553   4.755   3.064  16.489 -0.2487  0.5512 -0.5182
 8021TIP3    H145554   4.760   2.988  16.547 -2.3885  0.7298 -0.0101
 8021TIP3    H245555   4.802   3.133  16.536 -1.4642  0.5398  0.7850
 8022TIP3   OH245556   5.088   0.489  11.817 -0.2584 -0.0395 -0.3871
 8022TIP3    H145557   5.169   0.540  11.815 -1.3757  1.8046 -1.4429
 8022TIP3    H245558   5.101   0.422  11.749  1.5136 -1.7772  1.5145
 8023TIP3   OH245559   5.052   5.534   6.467  0.4252 -0.4568 -0.2419
 8023TIP3    H145560   5.089   5.447   6.448  0.5831 -1.3042  3.2181
 8023TIP3    H245561   5.102   5.594   6.412  1.7169 -2.3272 -1.2325
 8024TIP3   OH245562   0.875   0.103  11.523  0.0622 -0.1559  0.3393
 8024TIP3    H145563   0.843   0.171  11.582 -0.7116  1.4611 -1.8309
 8024TIP3    H245564   0.908   0.150  11.447  3.1156 -2.0527  0.3472
 8025TIP3   OH245565   5.327   4.582   5.498 -0.2410 -0.1995 -0.2454
 8025TIP3    H145566   5.355   4.670   5.520  0.6142 -0.4370 -0.3741
 8025TIP3    H245567   5.398   4.545   5.445 -0.2134 -1.2349  0.4713
 8026TIP3   OH245568   2.944   5.145  12.958  0.1316  0.3011  0.1037
 8026TIP3    H145569   3.011   5.080  12.936 -0.1135  0.0391  0.1384
 8026TIP3    H245570   2.861   5.098  12.954 -0.0494  0.6136  0.1137
 8027TIP3   OH245571   1.812   1.960   1.363 -0.0272  0.0212 -0.1298
 8027TIP3    H145572   1.745   2.029   1.359  0.3976  0.4766  0.4164
 8027TIP3    H245573   1.781   1.893   1.302  0.6148  1.6373 -2.3620
 8028TIP3   OH245574   5.346   0.476  11.198  0.2336  0.1673 -0.3459
 8028TIP3    H145575   5.350   0.547  11.262 -0.3000 -0.1071 -0.0008
 8028TIP3    H245576   5.437   0.450  11.186  0.3746  0.4886 -0.0003
 8029TIP3   OH245577   0.635   2.867  11.548 -0.5911 -0.2968  0.0878
 8029TIP3    H145578   0.542   2.889  11.543 -0.5224  0.2133  0.8525
 8029TIP3    H245579   0.645   2.790  11.491 -1.3094  0.1685 -0.6937
 8030TIP3   OH245580   2.789   6.067   1.491 -0.6484 -0.6881 -0.1358
 8030TIP3    H145581   2.828   6.032   1.571 -3.1636 -1.2494  0.9122
 8030TIP3    H245582   2.712   6.115   1.521 -0.8637  0.3056 -2.1324
 8031TIP3   OH245583   4.569   3.882  15.762  0.1631  0.0054  0.4521
 8031TIP3    H145584   4.626   3.807  15.779 -2.5586 -1.9262  1.9572
 8031TIP3    H245585   4.541   3.911  15.849 -0.3387  1.5327 -0.1911
 8032TIP3   OH245586   5.975   2.430   3.839 -0.0371  0.1267 -0.0207
 8032TIP3    H145587   5.900   2.387   3.797 -0.9972  1.8008 -0.1360
 8032TIP3    H245588   5.936   2.502   3.889  1.4956  1.1011 -0.1628
 8033TIP3   OH245589   3.408   5.671   4.700  0.5663 -0.6438 -0.1527
 8033TIP3    H145590   3.440   5.726   4.629  0.0809 -0.2790 -0.0892
 8033TIP3    H245591   3.425   5.581   4.670  2.8171 -0.4595  0.4151
 8034TIP3   OH245592   2.367   3.575   2.610  0.2073 -0.0817 -0.2878
 8034TIP3    H145593   2.424   3.631   2.662 -1.5646  0.7184  0.9031
 8034TIP3    H245594   2.398   3.586   2.520  0.3125  2.3824 -0.0090
 8035TIP3   OH245595   0.034   0.393  10.900 -0.3718  0.1309 -0.0985
 8035TIP3    H145596   0.117   0.425  10.935  0.2357 -1.4836  0.0058
 8035TIP3    H245597   0.012   0.317  10.954 -1.3582 -0.1237 -0.8220
 8036TIP3   OH245598   2.174   1.237  15.468 -0.6338  0.1330  0.2393
 8036TIP3    H145599   2.120   1.213  15.393 -0.3748 -0.7484  0.3184
 8036TIP3    H245600   2.188   1.154  15.514  0.2754  0.4487  0.5523
 8037TIP3   OH245601   2.801   6.601   5.708 -0.3937 -0.2776 -0.2079
 8037TIP3    H145602   2.738   6.667   5.679  0.9789  1.4110  0.4769
 8037TIP3    H245603   2.790   6.597   5.803  0.4896  0.0264 -0.0831
 8038TIP3   OH245604   5.959   1.145  12.532 -0.5472  0.4336  0.1478
 8038TIP3    H145605   6.002   1.070  12.492 -0.5684 -0.0806  1.0660
 8038TIP3    H245606   6.023   1.179  12.595 -0.2175  1.6937 -0.8156
 8039TIP3   OH245607   2.130   0.375   0.851 -0.2301 -0.1470  0.8253
 8039TIP3    H145608   2.036   0.388   0.845 -0.0781  0.3696 -0.9881
 8039TIP3    H245609   2.165   0.463   0.868 -0.0423 -0.2960  1.2301
 8040TIP3   OH245610   6.281   1.719  15.644 -0.2618 -0.5814 -0.2930
 8040TIP3    H145611   6.288   1.708  15.739  0.8976  0.4018 -0.2451
 8040TIP3    H245612   6.194   1.685  15.623 -0.1434 -1.7538  0.9717
 8041TIP3   OH245613   1.624   3.185  15.145 -0.6600  0.7030  0.0437
 8041TIP3    H145614   1.666   3.111  15.189 -1.0836  0.5107  0.1272
 8041TIP3    H245615   1.618   3.157  15.053 -0.7890  0.6464  0.0693
 8042TIP3   OH245616   1.440   5.762   3.426 -0.1430 -0.3775 -0.2084
 8042TIP3    H145617   1.439   5.845   3.474 -0.8746 -0.9085  0.7394
 8042TIP3    H245618   1.445   5.695   3.494 -1.3865 -1.1615 -0.8357
 8043TIP3   OH245619   2.382   1.358   4.702  0.3753  0.2381  0.3766
 8043TIP3    H145620   2.411   1.288   4.643 -0.8487  1.0937 -1.3319
 8043TIP3    H245621   2.413   1.439   4.661 -1.3312  0.9287  0.3443
 8044TIP3   OH245622   3.338   3.650  11.405  0.3785 -0.2750  0.5735
 8044TIP3    H145623   3.385   3.578  11.363 -2.0975 -1.0230 -1.1787
 8044TIP3    H245624   3.258   3.609  11.439 -0.8112  1.5250  0.0676
 8045TIP3   OH245625   0.614   6.585   5.376 -0.3496  0.0850 -0.7352
 8045TIP3    H145626   0.706   6.575   5.353 -0.6594 -1.1240 -1.5539
 8045TIP3    H245627   0.567   6.578   5.293 -1.0783  3.2143 -0.7188
 8046TIP3   OH245628   0.730   0.793  16.912 -0.3252 -0.3633 -0.7161
 8046TIP3    H145629   0.781   0.846  16.850 -0.2853  0.3267 -0.1014
 8046TIP3    H245630   0.646   0.839  16.918  0.1565  0.3737  0.8007
 8047TIP3   OH245631   5.799   1.776  15.276  0.2372  0.1916 -0.1598
 8047TIP3    H145632   5.884   1.738  15.295  0.4159 -0.0425 -1.3355
 8047TIP3    H245633   5.790   1.769  15.181  0.1177  2.7233 -0.4150
 8048TIP3   OH245634   2.220   4.086  11.731  0.2500 -0.6801 -0.2127
 8048TIP3    H145635   2.236   3.992  11.738 -0.2839 -0.9007 -1.6270
 8048TIP3    H245636   2.193   4.099  11.640 -2.2402  0.4434  0.6103
 8049TIP3   OH245637   2.517   4.509  11.781 -0.2286 -0.0466 -0.3327
 8049TIP3    H145638   2.475   4.423  11.774 -0.4062  0.1050 -1.4835
 8049TIP3    H245639   2.475   4.550  11.856 -3.0928  0.5489 -2.0948
 8050TIP3   OH245640   1.843   1.857  11.154  0.4351  0.3258 -0.4417
 8050TIP3    H145641   1.799   1.933  11.192  0.7610 -0.3947  1.5495
 8050TIP3    H245642   1.881   1.812  11.230  0.2517 -1.8092 -1.5445
 8051TIP3   OH245643   4.331   2.481  13.833 -0.0652  0.3518  0.4897
 8051TIP3    H145644   4.407   2.464  13.887  1.3875  1.4393 -1.1050
 8051TIP3    H245645   4.302   2.394  13.804 -0.4090 -0.1800  2.3137
 8052TIP3   OH245646   3.589   6.124   2.936  0.0444 -0.4730 -0.4367
 8052TIP3    H145647   3.628   6.038   2.926 -1.2479 -1.0105 -1.1220
 8052TIP3    H245648   3.507   6.109   2.982  0.4473  0.5863  0.6899
 8053TIP3   OH245649   3.839   0.225  13.095 -0.3211  0.2688  0.5096
 8053TIP3    H145650   3.866   0.137  13.121 -0.4515  0.3824  1.0549
 8053TIP3    H245651   3.822   0.270  13.178 -0.2424  0.8130  0.2365
 8054TIP3   OH245652   3.232   6.387  14.224  0.5570 -0.2369  0.1020
 8054TIP3    H145653   3.295   6.370  14.295 -0.0276 -0.6801  0.5197
 8054TIP3    H245654   3.262   6.332  14.152  1.0357  0.0617  0.0623
 8055TIP3   OH245655   0.245   1.814  15.988  0.2744 -0.2747 -0.1294
 8055TIP3    H145656   0.335   1.781  15.985  0.8220  1.1776 -1.2307
 8055TIP3    H245657   0.253   1.899  16.032 -1.0696 -1.3980  2.5139
 8056TIP3   OH245658   0.900   5.590  16.100 -0.4608 -0.5206 -0.0312
 8056TIP3    H145659   0.993   5.614  16.097 -0.3638 -0.9036 -0.1173
 8056TIP3    H245660   0.856   5.670  16.130 -0.0870 -0.3868  0.1719
 8057TIP3   OH245661   1.304   2.485  12.768 -0.0154 -0.1860 -0.8672
 8057TIP3    H145662   1.216   2.495  12.806  0.3839 -0.8609  0.2810
 8057TIP3    H245663   1.307   2.551  12.699 -0.9959  0.6924 -0.1205
 8058TIP3   OH245664   2.394   6.791  14.758  0.1801  0.3124  0.0526
 8058TIP3    H145665   2.304   6.804  14.788  0.6300  0.2557  1.5161
 8058TIP3    H245666   2.409   6.863  14.696 -1.0373 -0.0011 -0.6401
 8059TIP3   OH245667   3.393   4.608  10.474  0.0879  0.2041 -0.3109
 8059TIP3    H145668   3.441   4.688  10.449  0.2012  0.1363 -0.3120
 8059TIP3    H245669   3.427   4.541  10.416  1.4249 -0.2870  0.9548
 8060TIP3   OH245670   3.022   1.223   5.844 -0.5771  0.0908  0.0077
 8060TIP3    H145671   3.010   1.131   5.821  0.2394 -0.2222  0.7554
 8060TIP3    H245672   3.008   1.225   5.939 -1.8438  0.9750 -0.1675
 8061TIP3   OH245673   1.673   5.993   1.110 -0.0159 -0.3299  0.5569
 8061TIP3    H145674   1.679   6.062   1.177  2.6965 -0.2410  0.3397
 8061TIP3    H245675   1.743   6.014   1.049 -1.2241 -1.5091 -1.3038
 8062TIP3   OH245676   2.916   4.994  11.846 -0.3249 -0.2396 -0.3124
 8062TIP3    H145677   2.870   5.005  11.930 -1.2764 -2.2555 -0.5075
 8062TIP3    H245678   2.879   5.061  11.789 -1.1341 -0.1545  0.2996
 8063TIP3   OH245679   5.854   1.987   1.603 -0.6600  0.4277  0.1145
 8063TIP3    H145680   5.873   2.021   1.515 -2.1267  2.0427  0.3594
 8063TIP3    H245681   5.930   1.933   1.625  0.0165  0.4874 -1.8945
 8064TIP3   OH245682   0.827   6.306   3.869  0.1707  0.3712  0.2328
 8064TIP3    H145683   0.878   6.293   3.949 -2.8178 -2.9169  1.8655
 8064TIP3    H245684   0.816   6.401   3.863  0.6095  0.7588  3.6697
 8065TIP3   OH245685   5.330   4.986  13.916 -0.0758 -0.4435 -0.0208
 8065TIP3    H145686   5.413   4.947  13.888  0.7861  0.8524  0.6398
 8065TIP3    H245687   5.334   4.984  14.011 -0.4673  0.2925  0.0150
 8066TIP3   OH245688   4.250   4.057  14.949  0.1039 -0.1693 -0.2322
 8066TIP3    H145689   4.186   4.079  14.881  0.7292 -0.6576 -0.9967
 8066TIP3    H245690   4.312   3.998  14.905  0.3989 -0.6620  0.8228
 8067TIP3   OH245691   0.196   5.879  12.380 -0.5071 -0.0381 -0.2636
 8067TIP3    H145692   0.233   5.966  12.395 -1.6819  0.3711  0.4548
 8067TIP3    H245693   0.253   5.820  12.430  0.9447  0.1342 -1.6289
 8068TIP3   OH245694   1.761   0.970   1.075  0.3251 -0.3399 -0.1541
 8068TIP3    H145695   1.791   0.881   1.096 -0.8411 -0.6174  0.3974
 8068TIP3    H245696   1.667   0.968   1.092  0.6281  1.7029  2.4531
 8069TIP3   OH245697   5.261   1.535  13.290  0.6132 -0.3032 -0.9719
 8069TIP3    H145698   5.250   1.464  13.353  0.0817 -0.1519 -0.8859
 8069TIP3    H245699   5.200   1.515  13.219  0.1678  0.2692 -0.7584
 8070TIP3   OH245700   6.446   1.981   2.605 -0.3543 -0.5821  0.4118
 8070TIP3    H145701   6.436   1.916   2.674  2.3433  1.2933  2.7736
 8070TIP3    H245702   6.370   2.039   2.614  0.4687  0.2318  2.5668
 8071TIP3   OH245703   6.657   0.766   5.152  0.1474 -0.0219  0.2837
 8071TIP3    H145704   6.641   0.729   5.238 -0.1346 -2.6039 -0.7860
 8071TIP3    H245705   6.570   0.787   5.118  0.1690  0.0121  0.2490
 8072TIP3   OH245706   2.684   5.307   4.447 -0.0178  0.3181  0.3543
 8072TIP3    H145707   2.675   5.214   4.469  2.4554 -0.2090 -0.5403
 8072TIP3    H245708   2.616   5.350   4.498 -2.2540 -2.1182 -0.3396
 8073TIP3   OH245709   2.246   2.912   1.752  0.5455  0.1790  0.1351
 8073TIP3    H145710   2.211   2.989   1.796 -1.2958 -0.3123 -0.3468
 8073TIP3    H245711   2.297   2.866   1.819  2.2130  2.0817  0.2501
 8074TIP3   OH245712   6.657   0.023  12.435  0.0679 -0.0004 -1.4873
 8074TIP3    H145713   6.566  -0.004  12.448  0.3457 -0.4040 -0.2973
 8074TIP3    H245714   6.658   0.116  12.459  0.7051 -0.8656  2.4760
 8075TIP3   OH245715   2.525   5.725  11.415 -0.0456  0.0362 -1.0691
 8075TIP3    H145716   2.593   5.778  11.374 -0.3915  0.3807 -1.2049
 8075TIP3    H245717   2.541   5.734  11.509 -1.5990  2.4771 -0.9394
 8076TIP3   OH245718   3.356   4.779   2.293  0.7031  0.3238 -0.0531
 8076TIP3    H145719   3.377   4.714   2.360 -1.1724 -0.1464  0.1279
 8076TIP3    H245720   3.365   4.863   2.337  1.5293  0.1298  0.1746
 8077TIP3   OH245721   2.740   5.918  15.979  0.0574  0.0216 -0.1677
 8077TIP3    H145722   2.724   5.881  16.066  0.2651 -1.1703 -0.6233
 8077TIP3    H245723   2.798   5.993  15.996  0.2274 -0.2888  0.7075
 8078TIP3   OH245724   2.893   1.369  16.558  0.2988 -0.3301 -0.2033
 8078TIP3    H145725   2.940   1.380  16.641 -0.3270 -3.7801  0.7500
 8078TIP3    H245726   2.808   1.333  16.582  0.3983 -2.2111 -2.3574
 8079TIP3   OH245727   6.506   3.748  13.666  0.6869  0.0322 -0.0023
 8079TIP3    H145728   6.553   3.676  13.625 -0.9275  0.3306 -2.5865
 8079TIP3    H245729   6.443   3.706  13.724  2.0365 -0.4639  1.1440
 8080TIP3   OH245730   3.798   5.728   5.673 -0.5529  0.1365 -0.1507
 8080TIP3    H145731   3.850   5.756   5.749 -2.6464  1.3892  0.9037
 8080TIP3    H245732   3.829   5.785   5.602  0.5372 -0.1730  0.0479
 8081TIP3   OH245733   2.947   6.800  14.815  0.3846  0.0002 -0.6688
 8081TIP3    H145734   2.987   6.716  14.794  0.3121 -0.0025 -0.8013
 8081TIP3    H245735   2.949   6.805  14.910  0.5930 -0.0519 -0.6694
 8082TIP3   OH245736   5.782   3.307  15.746  0.1896  0.1884 -0.5514
 8082TIP3    H145737   5.810   3.351  15.666  0.4187  1.1146  0.0185
 8082TIP3    H245738   5.710   3.250  15.719 -0.5656  1.4094 -1.2100
 8083TIP3   OH245739   0.083   1.541  15.204 -0.4746  0.3173  0.3710
 8083TIP3    H145740   0.091   1.610  15.138  2.4932  1.7728  2.0261
 8083TIP3    H245741  -0.003   1.555  15.243 -2.7626 -1.1496 -3.5623
 8084TIP3   OH245742   1.035   4.983   0.058 -0.0715  0.0005  0.2815
 8084TIP3    H145743   0.963   5.044   0.076 -0.0043 -0.1857  1.1979
 8084TIP3    H245744   1.097   5.035   0.006 -0.9688  0.0905 -0.7525
 8085TIP3   OH245745   4.662   0.482  16.963  0.2263  0.0656 -0.4101
 8085TIP3    H145746   4.575   0.476  16.923 -0.1299 -1.4807  0.5434
 8085TIP3    H245747   4.723   0.457  16.893 -0.1297  0.6127 -0.9210
 8086TIP3   OH245748   0.202   4.033   3.250 -0.1614  0.3833 -0.0234
 8086TIP3    H145749   0.242   4.083   3.321  0.1616 -1.1683  0.9361
 8086TIP3    H245750   0.252   3.952   3.247 -1.1908 -0.2411 -0.9796
 8087TIP3   OH245751   0.010   1.930  16.146 -0.4491  0.2317  0.3392
 8087TIP3    H145752   0.022   1.969  16.233  1.7113  0.5890 -0.0512
 8087TIP3    H245753   0.072   1.857  16.144  0.1583  0.7399 -1.1507
 8088TIP3   OH245754   0.131   6.361  12.763 -0.4051  0.2362  0.1576
 8088TIP3    H145755   0.050   6.368  12.813 -1.0275  0.0918 -0.8066
 8088TIP3    H245756   0.134   6.269  12.734 -0.9456  0.7017 -1.4922
 8089TIP3   OH245757   4.602   5.920  11.163  0.6967  0.0853  0.0412
 8089TIP3    H145758   4.654   5.881  11.232 -0.6593  0.0302  1.0847
 8089TIP3    H245759   4.655   5.993  11.130  1.3309  0.1582  1.1931
 8090TIP3   OH245760   5.865   0.198  13.747 -0.2564  0.5396 -0.1811
 8090TIP3    H145761   5.774   0.214  13.720 -0.0280 -0.3708 -1.6520
 8090TIP3    H245762   5.858   0.135  13.818 -0.8228  1.6223  0.7464
 8091TIP3   OH245763   5.489   4.466   0.299  0.4154  0.0382 -0.1244
 8091TIP3    H145764   5.543   4.541   0.272 -1.1638  1.4136  0.3582
 8091TIP3    H245765   5.521   4.444   0.386  0.1274  0.9267  0.2172
 8092TIP3   OH245766   0.709   4.315  15.152  0.1710  0.0020 -0.2472
 8092TIP3    H145767   0.730   4.248  15.217 -1.2126  1.0580  1.3601
 8092TIP3    H245768   0.743   4.280  15.070  0.4810 -2.1436  0.7337
 8093TIP3   OH245769   4.572   4.388  16.387  0.1693 -0.0613 -0.0707
 8093TIP3    H145770   4.481   4.374  16.415  0.4811 -0.1376  0.9250
 8093TIP3    H245771   4.565   4.444  16.310 -0.6641  0.8939  0.6824
 8094TIP3   OH245772   3.006   3.773   6.323 -0.5891  0.6779  0.3331
 8094TIP3    H145773   3.079   3.819   6.282 -0.9469  0.9768  0.0262
 8094TIP3    H245774   2.934   3.836   6.322  0.0182  1.5749  3.5697
 8095TIP3   OH245775   5.709   0.873  11.524 -0.0625  0.0207 -0.3900
 8095TIP3    H145776   5.744   0.961  11.535  0.9265 -0.5827  1.8683
 8095TIP3    H245777   5.693   0.865  11.430  2.0827  1.7673 -0.9881
 8096TIP3   OH245778   2.488   6.815  13.708  0.3133 -0.4878  0.3350
 8096TIP3    H145779   2.508   6.846  13.620 -3.6555 -1.1836 -0.9882
 8096TIP3    H245780   2.437   6.885  13.748  1.1936 -0.6179  1.7681
 8097TIP3   OH245781   6.050   0.923  10.919 -0.2571 -0.0739 -0.4225
 8097TIP3    H145782   6.056   1.013  10.888 -0.5163  0.3126  0.6139
 8097TIP3    H245783   6.025   0.873  10.841 -0.0562  0.7319 -1.0213
 8098TIP3   OH245784   4.713   4.858  12.487 -0.9307 -0.0272  0.4500
 8098TIP3    H145785   4.704   4.940  12.536 -1.1617  0.1679  0.0838
 8098TIP3    H245786   4.646   4.801  12.525  0.7332 -0.8753  2.3205
 8099TIP3   OH245787   4.838   5.188   1.825 -0.3955  0.7664 -0.2031
 8099TIP3    H145788   4.924   5.155   1.852  0.3469  0.8952 -2.2183
 8099TIP3    H245789   4.853   5.281   1.807 -1.2372  1.0472  0.4839
 8100TIP3   OH245790   1.275   2.209   0.711  0.0278 -0.2517  0.1744
 8100TIP3    H145791   1.208   2.175   0.652 -0.2057  2.7694 -1.4999
 8100TIP3    H245792   1.337   2.136   0.721 -1.3903 -1.7894 -1.5117
 8101TIP3   OH245793   6.722   1.387   4.303  0.0910 -0.3034  0.2109
 8101TIP3    H145794   6.712   1.302   4.261  1.7441 -0.5690  0.3285
 8101TIP3    H245795   6.789   1.432   4.251  0.2265  0.3965  0.9743
 8102TIP3   OH245796   3.169   4.272   3.307 -0.4407  0.3579 -0.1062
 8102TIP3    H145797   3.107   4.345   3.302 -0.2457  0.4683 -1.1578
 8102TIP3    H245798   3.129   4.203   3.254 -0.1869  0.0190  0.1338
 8103TIP3   OH245799   0.835   3.393   0.359 -0.7514  0.1660  0.1949
 8103TIP3    H145800   0.896   3.326   0.327 -0.3533 -0.3938  1.9944
 8103TIP3    H245801   0.770   3.402   0.289  0.2176 -0.7447 -0.8737
 8104TIP3   OH245802   2.185   0.147  11.237  0.1824  0.0819  0.1437
 8104TIP3    H145803   2.244   0.166  11.311 -0.1301  1.5474  0.0502
 8104TIP3    H245804   2.136   0.228  11.225 -0.9936 -0.7117 -0.5798
 8105TIP3   OH245805   5.287   5.203  16.268 -0.5834 -0.4096 -0.3127
 8105TIP3    H145806   5.340   5.133  16.231  0.6670  0.2976  0.0948
 8105TIP3    H245807   5.209   5.159  16.303  0.8630 -1.8198  1.2846
 8106TIP3   OH245808   0.896   6.336   1.670 -0.4317 -0.3203  0.5273
 8106TIP3    H145809   0.883   6.277   1.595  0.8430 -0.3940  0.3358
 8106TIP3    H245810   0.977   6.304   1.711 -0.1808  0.7806  0.9102
 8107TIP3   OH245811   5.624   1.877   2.051  0.1162  0.4715 -0.3103
 8107TIP3    H145812   5.639   1.930   1.972  0.9821  0.0116 -0.4658
 8107TIP3    H245813   5.701   1.822   2.057  0.5165  1.1639  1.4128
 8108TIP3   OH245814   2.800   1.635  16.940  0.0218  0.1680  0.0942
 8108TIP3    H145815   2.796   1.729  16.921  0.2600  0.1922  0.1648
 8108TIP3    H245816   2.788   1.630  17.035 -0.9597  0.0624 -0.0242
 8109TIP3   OH245817   6.520   6.615   1.950  0.2193  0.1222  0.0749
 8109TIP3    H145818   6.598   6.582   1.906  0.1873  1.3552 -0.9601
 8109TIP3    H245819   6.468   6.536   1.967  1.3282 -0.6383  0.1090
 8110TIP3   OH245820   4.511   4.612  10.807 -0.4779 -0.5923  0.4098
 8110TIP3    H145821   4.594   4.620  10.854 -0.9003 -1.5806  1.3710
 8110TIP3    H245822   4.496   4.518  10.801 -1.9173 -0.4217  0.9551
 8111TIP3   OH245823   5.562   3.781  11.462 -0.0485  0.1052 -0.1748
 8111TIP3    H145824   5.592   3.787  11.553  1.6105 -0.1565 -0.6662
 8111TIP3    H245825   5.551   3.871  11.434 -0.8008  0.1833  0.3494
 8112TIP3   OH245826   5.656   1.054   6.160 -0.3275 -0.5150  0.1041
 8112TIP3    H145827   5.734   1.094   6.120 -0.7896 -1.1516 -1.5008
 8112TIP3    H245828   5.591   1.124   6.159  0.0129 -0.1736  0.8621
 8113TIP3   OH245829   0.637   0.738  13.562 -0.1854  0.0090 -0.2398
 8113TIP3    H145830   0.625   0.757  13.655  0.5253 -0.4047 -0.0601
 8113TIP3    H245831   0.636   0.642  13.557  0.7664  0.0111 -0.5235
 8114TIP3   OH245832   6.415   1.606  14.559  0.2306  0.2543  0.1515
 8114TIP3    H145833   6.446   1.674  14.619  0.9232  0.3726 -0.3254
 8114TIP3    H245834   6.493   1.553  14.541 -0.0993 -0.1181 -0.1956
 8115TIP3   OH245835   0.771   1.421   2.402 -0.4819 -0.3208 -0.4506
 8115TIP3    H145836   0.862   1.443   2.420 -0.7034  0.0308  0.2700
 8115TIP3    H245837   0.735   1.398   2.487 -1.2257  0.1526 -0.6288
 8116TIP3   OH245838   1.726   0.010   5.254 -0.4683 -0.0582  0.1756
 8116TIP3    H145839   1.737  -0.057   5.321 -1.4889  0.8266  1.2689
 8116TIP3    H245840   1.814   0.027   5.223 -0.2850 -3.0258 -1.3234
 8117TIP3   OH245841   2.922   2.616   0.710  0.0181  0.2777  0.1580
 8117TIP3    H145842   2.850   2.609   0.773 -0.7518  0.4720 -0.6755
 8117TIP3    H245843   2.882   2.594   0.626  1.1207 -0.3874 -0.2110
 8118TIP3   OH245844   0.421   1.006   2.989 -0.5137  0.0819  0.6030
 8118TIP3    H145845   0.491   0.942   2.978  0.0653  0.4286  1.9514
 8118TIP3    H245846   0.439   1.045   3.075 -2.2020  0.3768  0.8536
 8119TIP3   OH245847   6.059   1.484  14.131  0.1778  0.2543 -0.5085
 8119TIP3    H145848   6.034   1.394  14.151  1.0712  0.0760 -0.1254
 8119TIP3    H245849   6.033   1.534  14.208  1.5899 -0.0543  0.2102
 8120TIP3   OH245850   2.225   6.171   4.050  0.0845 -0.3460 -0.7611
 8120TIP3    H145851   2.130   6.174   4.039 -0.0307  0.2796  0.2751
 8120TIP3    H245852   2.242   6.086   4.090 -0.3028  0.3916  1.0764
 8121TIP3   OH245853   2.620   3.080  16.210 -0.3073  0.0297  0.4293
 8121TIP3    H145854   2.577   3.013  16.157  0.7701  0.0069 -0.4511
 8121TIP3    H245855   2.650   3.145  16.146  0.8546  0.0946  1.0231
 8122TIP3   OH245856   6.751   1.276   2.222  0.3083  0.6798  0.4268
 8122TIP3    H145857   6.724   1.220   2.148  0.1548 -0.8031  1.5614
 8122TIP3    H245858   6.845   1.286   2.211  0.6819 -1.4502  1.2307
 8123TIP3   OH245859   5.872   1.523   2.410 -0.2482  0.2859  0.4436
 8123TIP3    H145860   5.959   1.533   2.371 -0.1218 -0.3427  0.5530
 8123TIP3    H245861   5.822   1.474   2.344 -0.0894 -0.6164  0.9790
 8124TIP3   OH245862   4.671   3.760   6.158 -0.4549  0.2850  0.1948
 8124TIP3    H145863   4.624   3.707   6.093  0.5767 -0.0080 -0.3378
 8124TIP3    H245864   4.677   3.703   6.235 -0.3707  0.0637  0.0268
 8125TIP3   OH245865   0.161   0.367  12.096  0.0201  0.5572  0.2768
 8125TIP3    H145866   0.118   0.323  12.169 -0.5013  1.2644  0.4116
 8125TIP3    H245867   0.199   0.297  12.044 -0.0477  0.0155  0.9556
 8126TIP3   OH245868   1.227   4.174  13.991 -0.2055 -0.2210 -0.0438
 8126TIP3    H145869   1.146   4.123  13.996 -1.4353  1.6709  0.4697
 8126TIP3    H245870   1.201   4.257  13.951  1.3086  0.7580  0.8917
 8127TIP3   OH245871   6.820   0.156   5.090 -0.2077  0.0759  0.0230
 8127TIP3    H145872   6.844   0.186   5.002 -1.9292 -0.9394 -0.8494
 8127TIP3    H245873   6.752   0.217   5.119 -0.5498 -0.3424  0.1117
 8128TIP3   OH245874   6.743   2.699   0.842 -0.1806  0.4453  0.2868
 8128TIP3    H145875   6.721   2.748   0.763  1.7393 -0.1360 -0.6667
 8128TIP3    H245876   6.691   2.740   0.911  0.4431  3.0378 -0.6798
 8129TIP3   OH245877   3.861   4.233  15.801 -0.7569  0.8787  0.5536
 8129TIP3    H145878   3.785   4.174  15.802  0.1352 -0.3416 -0.6843
 8129TIP3    H245879   3.918   4.200  15.870 -1.0971  1.4669  1.1242
 8130TIP3   OH245880   3.327   6.367  14.876  0.1494 -0.8131  0.4591
 8130TIP3    H145881   3.242   6.339  14.843 -0.6631 -0.7183  2.3315
 8130TIP3    H245882   3.313   6.457  14.905  0.6203 -1.1023  1.6292
 8131TIP3   OH245883   5.368   3.355  14.153  0.4060  0.3050 -0.2339
 8131TIP3    H145884   5.348   3.377  14.245 -0.7754 -2.8160  0.3769
 8131TIP3    H245885   5.409   3.434  14.119  0.1502  1.9023  2.7408
 8132TIP3   OH245886   4.167   3.835  13.593  0.3937 -0.5566  0.1450
 8132TIP3    H145887   4.258   3.848  13.619  0.3215 -2.5200  1.6174
 8132TIP3    H245888   4.162   3.872  13.504  2.1433  1.1511  0.6849
 8133TIP3   OH245889   4.273   2.842  14.746 -0.3772  0.1090  0.8428
 8133TIP3    H145890   4.354   2.791  14.755  1.0325  2.2687  1.4155
 8133TIP3    H245891   4.238   2.818  14.661  0.5888 -1.2811  0.8096
 8134TIP3   OH245892   3.542   6.224  13.453 -0.7400  0.2027 -0.3599
 8134TIP3    H145893   3.469   6.187  13.503 -0.0755  0.0671  0.5559
 8134TIP3    H245894   3.577   6.293  13.511  0.0274  0.0688 -0.6595
 8135TIP3   OH245895   3.498   0.335   5.414  0.5091  0.2329 -0.2386
 8135TIP3    H145896   3.476   0.329   5.321 -0.7432 -0.6033  0.0967
 8135TIP3    H245897   3.496   0.429   5.433 -1.5377  0.2980 -0.5557
 8136TIP3   OH245898   5.790   1.565   3.636 -0.5238  0.2857 -0.5580
 8136TIP3    H145899   5.800   1.478   3.675  1.7320  0.1092 -1.3637
 8136TIP3    H245900   5.724   1.553   3.568 -0.5051 -0.7198 -0.4174
 8137TIP3   OH245901   4.675   4.924  10.788  0.3845  0.1361 -0.2308
 8137TIP3    H145902   4.717   4.984  10.727  0.4331  0.7303  0.3650
 8137TIP3    H245903   4.584   4.921  10.761  0.6565 -0.5875 -1.0881
 8138TIP3   OH245904   2.327   1.817   4.928 -0.1986  0.2938 -0.8418
 8138TIP3    H145905   2.369   1.872   4.994 -1.0210 -1.4204  1.2199
 8138TIP3    H245906   2.338   1.866   4.846  2.2190  1.7929  0.2470
 8139TIP3   OH245907   1.672   5.552  11.990  0.1813 -0.3235 -0.1988
 8139TIP3    H145908   1.632   5.483  12.042  0.5078 -0.0395  0.4441
 8139TIP3    H245909   1.762   5.522  11.976  0.6875  0.4824  1.0900
 8140TIP3   OH245910   0.173   5.437   0.507  0.0663 -0.7501  0.5218
 8140TIP3    H145911   0.110   5.404   0.570 -0.9681  1.3084  0.6287
 8140TIP3    H245912   0.151   5.393   0.425 -2.0288  0.4462  0.3832
 8141TIP3   OH245913   1.532   4.654  11.703  0.1169  0.8489 -0.3557
 8141TIP3    H145914   1.596   4.583  11.714  0.9558  1.7032  0.4296
 8141TIP3    H245915   1.478   4.650  11.783  0.9614  1.8525  0.2947
 8142TIP3   OH245916   6.368   5.708  11.325 -0.1021  0.2753 -0.3309
 8142TIP3    H145917   6.428   5.707  11.399  0.4916  1.8706 -0.7499
 8142TIP3    H245918   6.281   5.700  11.363  0.1575  1.6406  0.6071
 8143TIP3   OH245919   2.706   6.117  10.313 -0.1495  0.1024  0.2639
 8143TIP3    H145920   2.729   6.200  10.272 -0.0402  0.7704  1.6077
 8143TIP3    H245921   2.611   6.113  10.308 -0.2350  0.8006  1.0544
 8144TIP3   OH245922   4.718   4.748   2.176  0.0089 -0.4897  0.5326
 8144TIP3    H145923   4.744   4.807   2.247  0.1529  0.9158 -0.6232
 8144TIP3    H245924   4.653   4.690   2.214 -0.7593  0.9862  1.5298
 8145TIP3   OH245925   3.764   6.473   3.082  0.6546 -0.0090 -0.1257
 8145TIP3    H145926   3.742   6.426   3.002 -1.1914 -1.4335  1.1313
 8145TIP3    H245927   3.855   6.449   3.099  0.7720 -0.4653 -1.2709
 8146TIP3   OH245928   4.365   2.091   1.824  0.3659 -0.1240 -0.3606
 8146TIP3    H145929   4.330   2.147   1.893  1.0589 -0.0053 -0.0914
 8146TIP3    H245930   4.440   2.047   1.865 -1.1546 -2.5704 -0.0013
 8147TIP3   OH245931   6.707   3.116   2.894  0.5654 -0.1962  0.2303
 8147TIP3    H145932   6.768   3.049   2.927  1.8809  0.3392 -0.9990
 8147TIP3    H245933   6.684   3.167   2.972  2.9556  0.5529  0.5310
 8148TIP3   OH245934   5.890   1.041  16.779  0.5082  0.1628 -0.5618
 8148TIP3    H145935   5.873   0.948  16.787 -1.7255  0.6735  1.9048
 8148TIP3    H245936   5.875   1.060  16.686  1.1648 -1.8823 -1.1387
 8149TIP3   OH245937   3.549   5.059   3.965  0.4021  0.4168 -0.1441
 8149TIP3    H145938   3.486   5.129   3.983  1.1787  1.6042 -1.7037
 8149TIP3    H245939   3.630   5.087   4.009  0.8167  0.7166 -1.0636
 8150TIP3   OH245940   6.289   6.541  13.803  0.7246 -0.0090  0.1504
 8150TIP3    H145941   6.247   6.612  13.755 -0.4947  0.9292  2.4791
 8150TIP3    H245942   6.242   6.462  13.774  0.7584  0.3709 -0.9830
 8151TIP3   OH245943   2.177   3.759  16.216  0.6323 -0.0899  0.2456
 8151TIP3    H145944   2.244   3.739  16.151 -1.2893 -1.8231 -1.3031
 8151TIP3    H245945   2.152   3.673  16.252  0.4778  0.6863  2.1382
 8152TIP3   OH245946   2.431   0.129   4.618  0.0276  0.0031 -0.2350
 8152TIP3    H145947   2.481   0.094   4.692 -1.5509 -0.4719  0.6677
 8152TIP3    H245948   2.362   0.064   4.604  0.0481  0.3143 -1.8665
 8153TIP3   OH245949   0.453   0.906  16.826 -0.0239  0.2449 -0.1654
 8153TIP3    H145950   0.486   0.982  16.778  0.7063  0.4957  0.7218
 8153TIP3    H245951   0.358   0.909  16.812  0.0749  0.8658 -0.7796
 8154TIP3   OH245952   1.678   6.102  13.454 -0.0641 -0.6023 -0.4807
 8154TIP3    H145953   1.753   6.046  13.468  1.0459  0.8815 -0.2237
 8154TIP3    H245954   1.605   6.058  13.497  1.0963 -1.0824  1.0567
 8155TIP3   OH245955   2.918   4.329  11.760  0.1196 -0.3245 -0.4012
 8155TIP3    H145956   2.873   4.276  11.826  1.1715 -1.4823 -0.5859
 8155TIP3    H245957   2.851   4.389  11.728 -0.9403 -1.1254  0.2631
 8156TIP3   OH245958   0.480   6.341   2.732 -0.6731  0.7737  0.1120
 8156TIP3    H145959   0.508   6.307   2.818 -1.1009 -1.8452 -0.6834
 8156TIP3    H245960   0.385   6.341   2.736 -0.6820  1.8015  0.0279
 8157TIP3   OH245961   3.944   3.063  15.303  0.0038 -0.2418 -0.0654
 8157TIP3    H145962   3.866   3.112  15.332  0.5760 -0.3763  1.8231
 8157TIP3    H245963   3.910   2.979  15.274 -0.5692 -0.3830  0.9516
 8158TIP3   OH245964   5.851   2.682  15.457 -0.0915  0.2181 -0.3962
 8158TIP3    H145965   5.842   2.768  15.498  1.0731  1.0497 -1.7836
 8158TIP3    H245966   5.825   2.620  15.525 -1.0424  1.6552  0.6131
 8159TIP3   OH245967   5.142   3.179  12.624  0.1595  0.3532  0.0929
 8159TIP3    H145968   5.149   3.158  12.531  0.3779 -2.2405  0.6277
 8159TIP3    H245969   5.109   3.269  12.625 -3.4916 -0.7076 -2.5577
 8160TIP3   OH245970   3.862   1.357   3.433 -0.0196  0.1871 -0.8101
 8160TIP3    H145971   3.776   1.378   3.468 -0.8876 -0.4101 -2.4733
 8160TIP3    H245972   3.871   1.412   3.355  2.3361  2.3532  0.8321
 8161TIP3   OH245973   3.083   1.313  12.840  0.2990  0.4490 -0.1131
 8161TIP3    H145974   3.018   1.377  12.811 -1.8640 -1.4651  0.2293
 8161TIP3    H245975   3.108   1.342  12.928  0.9841  1.9176 -0.7428
 8162TIP3   OH245976   2.338   2.858   3.736  0.0978  0.5339 -0.2954
 8162TIP3    H145977   2.252   2.892   3.713  0.3455  0.6413 -1.1094
 8162TIP3    H245978   2.320   2.774   3.778 -0.4647  1.1805  0.7879
 8163TIP3   OH245979   2.814   1.603  15.014 -0.4406  0.5373  0.0284
 8163TIP3    H145980   2.790   1.692  15.040 -0.0043  0.4524  0.7583
 8163TIP3    H245981   2.751   1.547  15.059 -0.1440  0.4306  0.3149
 8164TIP3   OH245982   2.547   1.033  15.836  0.4337 -0.0710  0.2122
 8164TIP3    H145983   2.637   1.026  15.803 -0.0707  0.5818 -1.4169
 8164TIP3    H245984   2.533   0.951  15.884  1.8977 -0.1730  0.4997
 8165TIP3   OH245985   4.711   3.333  11.859  0.2622 -0.0146 -0.4110
 8165TIP3    H145986   4.785   3.273  11.868  1.6919  1.3369 -2.3274
 8165TIP3    H245987   4.733   3.387  11.783 -2.5668  0.6554 -0.8641
 8166TIP3   OH245988   1.766   5.285   4.245  0.6058  0.3753 -0.0271
 8166TIP3    H145989   1.845   5.237   4.221  1.4666  1.7924 -0.1613
 8166TIP3    H245990   1.797   5.357   4.300 -0.7584  0.2020  1.0218
 8167TIP3   OH245991   4.936   5.744  11.007  0.4782  0.1920  0.5694
 8167TIP3    H145992   4.996   5.716  10.938  1.1269  0.3934  1.0478
 8167TIP3    H245993   4.986   5.805  11.060 -0.6687  1.7085 -0.0097
 8168TIP3   OH245994   6.780   3.871   0.341 -0.4873  0.4635  0.2614
 8168TIP3    H145995   6.743   3.785   0.362 -1.5058  0.1622 -2.3882
 8168TIP3    H245996   6.778   3.875   0.246  1.6167  2.5685  0.2117
 8169TIP3   OH245997   3.509   3.238   4.770  0.0606  0.2958 -0.1895
 8169TIP3    H145998   3.549   3.238   4.682  0.6907 -1.9366  0.0499
 8169TIP3    H245999   3.513   3.330   4.797  2.4171  0.6297 -1.3770
 8170TIP3   OH246000   1.293   6.077   4.551  0.7048  0.1258 -0.4193
 8170TIP3    H146001   1.264   6.167   4.533  0.1993  0.6079  2.2798
 8170TIP3    H246002   1.214   6.024   4.539 -0.3508  0.8147  2.5994
 8171TIP3   OH246003   2.737   0.395  15.339  0.7293 -0.0999 -0.0423
 8171TIP3    H146004   2.739   0.474  15.393  1.6026 -0.6642  0.7820
 8171TIP3    H246005   2.662   0.346  15.371  1.3221 -0.4959  0.7746
 8172TIP3   OH246006   1.499   4.677  13.053  0.7087 -0.2883 -0.5506
 8172TIP3    H146007   1.534   4.651  12.968 -1.1019  3.0993 -2.5407
 8172TIP3    H246008   1.405   4.662  13.046  0.5643 -0.3961  1.0904
 8173TIP3   OH246009   4.669   2.492  11.532 -0.6383  0.1226  0.1874
 8173TIP3    H146010   4.680   2.534  11.446  1.6491 -0.0336  0.3429
 8173TIP3    H246011   4.706   2.405  11.521 -3.1792 -1.0975  0.5324
 8174TIP3   OH246012   2.065   1.640  14.558 -0.2354  0.6020 -0.2513
 8174TIP3    H146013   2.006   1.587  14.612  0.4570 -1.3078 -1.2898
 8174TIP3    H246014   2.140   1.657  14.614  0.1097 -0.6631 -0.2942
 8175TIP3   OH246015   5.518   3.137  12.400 -0.5775 -0.6519 -0.1462
 8175TIP3    H146016   5.523   3.208  12.464 -1.1975 -0.7716  0.0431
 8175TIP3    H246017   5.605   3.132  12.362 -0.9048  1.2955 -1.3027
 8176TIP3   OH246018   0.717   1.481  11.238  0.6091 -0.1469 -0.2591
 8176TIP3    H146019   0.644   1.543  11.245  0.7813 -0.0593  1.2796
 8176TIP3    H246020   0.795   1.534  11.254  0.8632 -0.5198 -0.2579
 8177TIP3   OH246021   5.479   6.417  13.869 -0.3932  0.0352 -0.2389
 8177TIP3    H146022   5.555   6.451  13.822  0.5247 -1.7723 -0.1295
 8177TIP3    H246023   5.412   6.406  13.801 -0.2018  0.5885 -0.5262
 8178TIP3   OH246024   4.335   1.128  11.160  0.5325 -0.1963  0.1149
 8178TIP3    H146025   4.310   1.050  11.209 -0.0610 -0.6887 -0.9230
 8178TIP3    H246026   4.362   1.095  11.074  1.0351  0.6737 -0.0781
 8179TIP3   OH246027   5.290   1.419  13.899 -0.2849  0.1425 -0.1968
 8179TIP3    H146028   5.210   1.471  13.897 -1.1672 -1.1426  0.6309
 8179TIP3    H246029   5.315   1.409  13.807 -0.7221  1.0335 -0.4299
 8180TIP3   OH246030   1.039   3.217  14.364 -0.1046 -0.0471  0.3097
 8180TIP3    H146031   1.017   3.304  14.331 -2.0449 -0.9756 -1.0488
 8180TIP3    H246032   0.986   3.206  14.443  0.4926  0.1665  0.7449
 8181TIP3   OH246033   5.196   2.677  14.572 -0.4131 -0.2268  0.1367
 8181TIP3    H146034   5.219   2.720  14.490 -1.3820  0.1809  0.0588
 8181TIP3    H246035   5.100   2.685  14.577 -0.3119  0.4441  1.6668
 8182TIP3   OH246036   1.614   6.293   3.191 -0.1758  0.0871 -0.1008
 8182TIP3    H146037   1.646   6.377   3.158  2.1216 -1.1788 -1.3385
 8182TIP3    H246038   1.537   6.274   3.136 -0.3635  1.0803 -0.2044
 8183TIP3   OH246039   4.741   1.086  12.977 -0.3529 -0.2589  0.2397
 8183TIP3    H146040   4.650   1.092  13.007 -0.2462 -0.9816  0.7487
 8183TIP3    H246041   4.742   1.135  12.895 -1.0046  0.4787  0.6555
 8184TIP3   OH246042   6.566   0.197   4.883 -0.5805  0.4657  0.2366
 8184TIP3    H146043   6.652   0.166   4.858  0.1960 -0.1533  3.3068
 8184TIP3    H246044   6.512   0.185   4.805  1.2287 -2.5812 -0.6962
 8185TIP3   OH246045   2.625   5.705  15.647 -0.1640 -0.7028  0.1431
 8185TIP3    H146046   2.604   5.670  15.560 -0.6441  1.2050 -0.5661
 8185TIP3    H246047   2.561   5.775  15.660  1.4703  0.7154  0.9206
 8186TIP3   OH246048   2.899   5.719  13.358  0.3405  0.2489  0.0181
 8186TIP3    H146049   2.858   5.678  13.434  1.1772  0.5907  0.6666
 8186TIP3    H246050   2.916   5.809  13.385  2.7252 -0.2263  0.2651
 8187TIP3   OH246051   5.425   4.354  14.162  0.5761 -0.7882  0.5609
 8187TIP3    H146052   5.357   4.351  14.229 -0.0410 -2.1574 -0.0834
 8187TIP3    H246053   5.489   4.289  14.190  0.7494 -0.7474  0.2666
 8188TIP3   OH246054   6.307   6.212   3.082 -0.1350  0.0840 -0.1392
 8188TIP3    H146055   6.306   6.151   3.009 -0.0097 -0.3887  0.2493
 8188TIP3    H246056   6.310   6.299   3.041  0.2029 -0.1845 -0.6887
 8189TIP3   OH246057   6.673   4.913   5.512  0.6247 -0.5883 -0.1335
 8189TIP3    H146058   6.717   4.988   5.473  1.3757 -1.4120 -0.9143
 8189TIP3    H246059   6.744   4.859   5.548  0.1102 -1.0029  0.2877
 8190TIP3   OH246060   0.940   2.150  15.809  0.6375  0.1066  0.4818
 8190TIP3    H146061   0.873   2.183  15.750  0.0708  2.2686  2.2313
 8190TIP3    H246062   1.014   2.129  15.751 -0.2519  1.1176 -1.1013
 8191TIP3   OH246063   5.301   5.427   1.659  0.1899 -0.5015  0.6940
 8191TIP3    H146064   5.360   5.470   1.720  0.8233 -1.1181  0.5385
 8191TIP3    H246065   5.319   5.333   1.671  0.1669 -0.6374 -0.2643
 8192TIP3   OH246066   0.227   6.574  11.754  0.0369  0.1558  0.6135
 8192TIP3    H146067   0.308   6.574  11.703  1.9071  0.1450  3.4031
 8192TIP3    H246068   0.252   6.541  11.840 -2.6242  1.5928  2.0752
 8193TIP3   OH246069   6.196   5.061  16.015  0.0830  0.4136 -0.0866
 8193TIP3    H146070   6.130   5.120  15.978  0.4776  0.3498 -0.9152
 8193TIP3    H246071   6.270   5.118  16.035 -0.1823  0.4698  0.7610
 8194TIP3   OH246072   1.902   2.607  14.609 -0.2481 -0.3694  0.1040
 8194TIP3    H146073   1.885   2.541  14.676  1.6642 -2.0595 -0.9573
 8194TIP3    H246074   1.878   2.690  14.650 -0.6139 -1.4884  2.3068
 8195TIP3   OH246075   5.692   2.351   0.597 -0.1478  0.3359  0.1383
 8195TIP3    H146076   5.783   2.361   0.625 -1.0540  0.2303  3.4801
 8195TIP3    H246077   5.685   2.258   0.574  0.6337  0.4193 -0.5058
 8196TIP3   OH246078   5.988   6.665   5.661  0.2887  0.3133 -0.9597
 8196TIP3    H146079   5.943   6.711   5.590  0.3260 -0.0548 -1.2260
 8196TIP3    H246080   5.986   6.726   5.735 -0.9302  0.1891 -0.8630
 8197TIP3   OH246081   3.241   4.076  11.510 -0.3268 -0.7397 -1.1819
 8197TIP3    H146082   3.212   4.132  11.437  3.4256  0.7901 -1.7607
 8197TIP3    H246083   3.324   4.039  11.480  0.5363 -1.4088  1.6896
 8198TIP3   OH246084   1.222   3.381   0.576 -0.0272 -0.1972 -0.0596
 8198TIP3    H146085   1.173   3.301   0.559 -0.0463 -0.0115 -0.9160
 8198TIP3    H246086   1.217   3.392   0.671  2.3527 -2.7197  0.4756
 8199TIP3   OH246087   0.841   1.402  16.087  0.0319  0.5402 -0.5134
 8199TIP3    H146088   0.756   1.381  16.047  0.6175 -0.2158 -1.4069
 8199TIP3    H246089   0.891   1.444  16.017  0.8199 -0.1396 -0.3794
 8200TIP3   OH246090   5.180   1.089   2.638  0.0444  0.5768 -0.3414
 8200TIP3    H146091   5.182   1.147   2.715 -0.3328  2.0812 -1.4064
 8200TIP3    H246092   5.263   1.104   2.595  0.5235 -0.7481  0.0712
 8201TIP3   OH246093   5.026   2.097   4.731 -0.2213 -0.5340 -0.3988
 8201TIP3    H146094   5.059   2.184   4.706 -3.1989  1.4413  1.7855
 8201TIP3    H246095   5.039   2.093   4.826 -1.9153 -1.5755 -0.1653
 8202TIP3   OH246096   3.684   5.088  13.245 -0.5059 -0.4271 -0.6803
 8202TIP3    H146097   3.697   5.059  13.154 -2.8863 -0.3772 -1.1161
 8202TIP3    H246098   3.723   5.175  13.248  1.4448 -1.2369 -1.0327
 8203TIP3   OH246099   4.095   4.235   3.154 -0.3745 -0.2871 -0.4744
 8203TIP3    H146100   4.035   4.269   3.088 -0.6926  0.4577  0.1766
 8203TIP3    H246101   4.181   4.241   3.114 -0.2591  2.4389  0.0052
 8204TIP3   OH246102   5.933   0.319  14.231  0.3915  0.3723  0.2316
 8204TIP3    H146103   5.925   0.224  14.216  1.0280  0.3328  0.1058
 8204TIP3    H246104   5.848   0.354  14.206 -0.0197 -0.2251  0.7382
 8205TIP3   OH246105   2.858   3.883  11.754 -0.2648  0.2733 -0.6460
 8205TIP3    H146106   2.804   3.857  11.679  2.9065  0.3054 -3.1647
 8205TIP3    H246107   2.923   3.942  11.717  1.9669 -0.3549  1.9613
 8206TIP3   OH246108   5.623   3.262  12.702  0.3966 -0.0815  0.3772
 8206TIP3    H146109   5.578   3.302  12.627 -1.2025 -0.9128  0.8440
 8206TIP3    H246110   5.628   3.332  12.767 -0.1308  0.0456  0.2812
 8207TIP3   OH246111   2.884   0.384   6.066  0.0106 -0.0538 -0.1692
 8207TIP3    H146112   2.948   0.454   6.079 -0.7524  0.4051  1.3947
 8207TIP3    H246113   2.920   0.309   6.113  1.0631 -0.9302 -2.2430
 8208TIP3   OH246114   4.871   5.000   3.098  0.3200  0.2935  0.4765
 8208TIP3    H146115   4.937   5.066   3.122  3.2967 -1.6358 -1.7397
 8208TIP3    H246116   4.834   5.032   3.016 -0.1275  0.4219  0.7232
 8209TIP3   OH246117   2.295   6.170   0.502  0.2378  0.2569 -0.4534
 8209TIP3    H146118   2.279   6.093   0.447  0.1759 -1.1595  1.4341
 8209TIP3    H246119   2.386   6.161   0.530 -0.7184 -1.1766  2.6210
 8210TIP3   OH246120   6.116   5.205  16.653  0.0735  0.2581  0.1131
 8210TIP3    H146121   6.095   5.255  16.574  3.1233  1.4859 -0.0430
 8210TIP3    H246122   6.106   5.114  16.627 -0.0677  0.6563 -1.3380
 8211TIP3   OH246123   3.476   4.336   4.501  0.3858 -0.1762  0.2746
 8211TIP3    H146124   3.512   4.255   4.464 -0.3441 -0.3652 -0.0513
 8211TIP3    H246125   3.413   4.306   4.566  0.4393  0.1414  0.4764
 8212TIP3   OH246126   6.501   3.455  15.165 -0.2194  0.1405  0.4584
 8212TIP3    H146127   6.407   3.453  15.147 -0.2977  1.0030  0.7225
 8212TIP3    H246128   6.542   3.441  15.079 -0.5818 -0.4353  0.3729
 8213TIP3   OH246129   5.915   3.701  13.728  0.5203  0.4581 -0.5402
 8213TIP3    H146130   5.865   3.716  13.808  1.1662  2.3071 -0.4478
 8213TIP3    H246131   5.954   3.615  13.741  0.9793  0.9055  1.3436
 8214TIP3   OH246132   1.206   4.731   2.547 -0.6042 -0.1131 -0.1019
 8214TIP3    H146133   1.218   4.636   2.555 -1.3406 -0.2768 -0.8379
 8214TIP3    H246134   1.112   4.743   2.535 -0.3106  0.5297 -2.1548
 8215TIP3   OH246135   0.657   5.036   2.451  0.0973 -0.4309 -0.2199
 8215TIP3    H146136   0.641   5.053   2.358  0.5028 -0.8642 -0.3744
 8215TIP3    H246137   0.663   4.941   2.457  3.3882 -0.3293 -0.3426
 8216TIP3   OH246138   0.799   5.564   0.861 -0.1586 -0.2425  0.4360
 8216TIP3    H146139   0.732   5.510   0.820 -1.6221  0.2145  2.0879
 8216TIP3    H246140   0.752   5.641   0.893  1.1305  0.0899  1.6722
 8217TIP3   OH246141   5.808   2.320  13.769 -0.4325 -0.1523  0.0160
 8217TIP3    H146142   5.726   2.361  13.796 -0.0517 -0.0269  1.0455
 8217TIP3    H246143   5.837   2.370  13.693 -0.6755  0.6009  0.4127
 8218TIP3   OH246144   1.184   2.262  12.399 -0.1389  0.2738  0.4100
 8218TIP3    H146145   1.132   2.253  12.318  0.9348  1.0262 -0.3936
 8218TIP3    H246146   1.245   2.188  12.397 -1.5135 -0.9593  1.6597
 8219TIP3   OH246147   5.471   5.656   1.275  0.3647 -0.1881 -0.2892
 8219TIP3    H146148   5.404   5.725   1.265 -1.1898 -1.3971  1.2002
 8219TIP3    H246149   5.518   5.681   1.354  0.9188  0.0296 -0.6830
 8220TIP3   OH246150   4.647   2.514   0.991 -0.0057  0.8751 -0.0891
 8220TIP3    H146151   4.683   2.572   0.924  1.6611 -0.5411 -0.4802
 8220TIP3    H246152   4.717   2.504   1.055  0.2436 -1.5717 -0.6192
 8221TIP3   OH246153   3.585   5.069   2.925 -0.5402 -0.3036  0.0235
 8221TIP3    H146154   3.541   5.026   2.852  1.7202 -1.3509 -0.8129
 8221TIP3    H246155   3.582   5.005   2.996 -0.4362 -0.3383 -0.0038
 8222TIP3   OH246156   2.262   6.354   1.984 -0.2084  0.3948  0.1684
 8222TIP3    H146157   2.337   6.296   1.996 -0.8631  0.0083  2.9319
 8222TIP3    H246158   2.300   6.442   1.981  0.7761  0.0354 -3.8880
 8223TIP3   OH246159   2.918   0.656  13.276 -0.1215  0.0640  0.0313
 8223TIP3    H146160   2.991   0.630  13.332  0.2026 -1.2108 -0.9315
 8223TIP3    H246161   2.856   0.700  13.335  1.1169  0.5872  0.9748
 8224TIP3   OH246162   6.842   4.182  10.983  0.0455  0.3761  0.1076
 8224TIP3    H146163   6.821   4.158  10.893 -1.8714 -1.7969  1.0382
 8224TIP3    H246164   6.935   4.161  10.992 -0.3450 -1.9504 -0.6495
 8225TIP3   OH246165   5.908   0.749   2.861 -0.5374 -0.0685 -0.0444
 8225TIP3    H146166   5.853   0.671   2.869 -2.4045  1.1481 -0.4014
 8225TIP3    H246167   5.962   0.733   2.784 -2.4960 -0.1303 -1.4916
 8226TIP3   OH246168   4.965   2.344  14.999 -0.1071  0.3475 -0.2034
 8226TIP3    H146169   4.882   2.325  15.041 -0.1784  1.3535  0.1329
 8226TIP3    H246170   4.979   2.270  14.939 -2.4401  1.2834 -2.0960
 8227TIP3   OH246171   5.267   6.394   1.025  0.0701 -0.4962  0.1758
 8227TIP3    H146172   5.340   6.430   1.075 -0.2120 -1.6599  1.4983
 8227TIP3    H246173   5.231   6.325   1.081 -1.4779 -0.5647 -0.8230
 8228TIP3   OH246174   6.487   4.590  11.717 -0.2606 -0.0402  0.0613
 8228TIP3    H146175   6.551   4.540  11.666  1.1252  2.6476 -1.0355
 8228TIP3    H246176   6.515   4.579  11.808  0.5761 -0.4774 -0.2413
 8229TIP3   OH246177   1.160   6.221  11.682 -0.5497 -0.5289  0.5172
 8229TIP3    H146178   1.180   6.128  11.674 -1.7423 -0.8752  1.2408
 8229TIP3    H246179   1.181   6.257  11.596  2.3659 -0.9273  0.9607
 8230TIP3   OH246180   5.362   0.873   0.135  0.1971  0.2015 -0.4239
 8230TIP3    H146181   5.347   0.967   0.134  3.0931  0.7599 -0.3933
 8230TIP3    H246182   5.372   0.851   0.228  0.3301  0.0216 -0.4802
 8231TIP3   OH246183   4.409   4.407   5.735  0.0200 -0.5293 -0.1077
 8231TIP3    H146184   4.470   4.345   5.776 -0.9293 -0.3889  1.6261
 8231TIP3    H246185   4.375   4.360   5.659  2.1807 -0.6406 -1.0795
 8232TIP3   OH246186   4.636   1.792  11.835  0.5283 -0.8607  0.1777
 8232TIP3    H146187   4.657   1.712  11.787 -2.2412 -1.9515  0.6050
 8232TIP3    H246188   4.623   1.859  11.767 -1.0917 -1.8175 -0.5107
 8233TIP3   OH246189   6.272   0.197   3.478 -0.4029  0.1570  0.1156
 8233TIP3    H146190   6.186   0.197   3.437 -0.7449 -2.1797  0.6939
 8233TIP3    H246191   6.303   0.107   3.469  1.3942  0.6237  1.1310
 8234TIP3   OH246192   6.540   6.024  16.065 -0.1689  0.1555  0.4066
 8234TIP3    H146193   6.592   6.067  15.998 -0.8222  2.4024  1.2408
 8234TIP3    H246194   6.458   6.074  16.068 -1.6224 -2.0849  0.4637
 8235TIP3   OH246195   2.426   1.721  15.419  0.1033  0.3296 -0.3291
 8235TIP3    H146196   2.356   1.668  15.383 -0.9093  0.1603  1.7482
 8235TIP3    H246197   2.478   1.660  15.471  1.6276  0.5327 -1.5261
 8236TIP3   OH246198   2.901   2.000   6.212 -0.0342 -0.1539 -0.2874
 8236TIP3    H146199   2.810   1.976   6.195  0.0531 -0.1367 -0.7772
 8236TIP3    H246200   2.951   1.920   6.194 -0.0766 -0.5721  1.2757
 8237TIP3   OH246201   1.685   3.760   1.077 -0.2164 -0.1769  0.1851
 8237TIP3    H146202   1.740   3.692   1.037 -0.7685 -0.0534 -0.8299
 8237TIP3    H246203   1.684   3.739   1.170  0.3928 -1.0060  0.0135
 8238TIP3   OH246204   1.374   5.397  13.880  0.4626 -0.1365  0.1937
 8238TIP3    H146205   1.429   5.467  13.847  0.2872  0.5721  1.3241
 8238TIP3    H246206   1.353   5.343  13.804  2.0396  0.0423 -0.3869
 8239TIP3   OH246207   6.221   0.879   0.895  0.0098 -0.2409 -0.2456
 8239TIP3    H146208   6.154   0.926   0.845 -1.8079 -1.0751  1.2780
 8239TIP3    H246209   6.286   0.855   0.830 -0.3914  1.8954 -1.5551
 8240TIP3   OH246210   6.365   2.666  13.782  0.2761  0.0089 -0.7985
 8240TIP3    H146211   6.346   2.679  13.689 -0.4942  0.5765 -0.5746
 8240TIP3    H246212   6.460   2.668  13.788  0.3604 -0.6413 -1.6574
 8241TIP3   OH246213   0.683   3.345  11.034 -0.0862 -0.0771 -0.0365
 8241TIP3    H146214   0.768   3.301  11.042 -0.1522 -0.0026  1.5460
 8241TIP3    H246215   0.693   3.404  10.960  0.7335 -1.1707 -0.8198
 8242TIP3   OH246216   6.477   6.841  13.593  0.2443 -0.5353 -0.1831
 8242TIP3    H146217   6.427   6.876  13.667  1.2548  0.5387  0.0146
 8242TIP3    H246218   6.528   6.770  13.630  1.8289  0.9049  0.5139
 8243TIP3   OH246219   0.799   2.496   0.339  0.1219 -0.5972  0.1170
 8243TIP3    H146220   0.778   2.420   0.285  0.1328 -0.1590 -0.5193
 8243TIP3    H246221   0.729   2.500   0.404  0.5312 -1.5893  0.6343
 8244TIP3   OH246222   1.180   4.768  14.528 -0.0997  0.5026  0.1941
 8244TIP3    H146223   1.259   4.768  14.474 -1.2398  0.9546 -1.5898
 8244TIP3    H246224   1.138   4.684  14.509 -0.5946  0.7367  0.2430
 8245TIP3   OH246225   2.819   0.591   0.298 -0.0505  0.1768 -0.6010
 8245TIP3    H146226   2.868   0.657   0.249  0.6978  0.0595 -0.0233
 8245TIP3    H246227   2.873   0.512   0.292 -0.0514  0.1068  0.2274
 8246TIP3   OH246228   2.011   4.982  14.912  0.2610 -0.5654 -0.0788
 8246TIP3    H146229   1.972   4.926  14.846 -3.5834  0.1356  1.3595
 8246TIP3    H246230   1.998   5.071  14.880  0.2858 -0.2885  0.6456
 8247TIP3   OH246231   4.459   2.547  11.687 -0.2674 -0.1618  0.3626
 8247TIP3    H146232   4.479   2.508  11.773 -0.9835 -2.2664 -0.3515
 8247TIP3    H246233   4.528   2.514  11.630  0.7620  2.0076  0.2612
 8248TIP3   OH246234   0.855   2.657  15.072 -0.1311 -0.3602 -0.5607
 8248TIP3    H146235   0.871   2.595  15.143  2.0644 -0.3758 -0.9935
 8248TIP3    H246236   0.816   2.604  15.002 -1.6713 -0.4743  0.3380
 8249TIP3   OH246237   4.540   1.259   3.513  0.0761  0.7633 -0.2349
 8249TIP3    H146238   4.600   1.326   3.546  0.9243  0.3027 -0.8138
 8249TIP3    H246239   4.590   1.178   3.516  0.0234  0.6172 -2.1980
 8250TIP3   OH246240   1.808   6.539  13.904 -0.2542 -0.2566 -0.4765
 8250TIP3    H146241   1.839   6.630  13.899 -1.5633  0.1520 -2.8611
 8250TIP3    H246242   1.830   6.511  13.992  0.7707  2.1687  0.1253
 8251TIP3   OH246243   3.776   0.330   5.152  0.3820 -0.2344  0.5719
 8251TIP3    H146244   3.725   0.254   5.123 -0.3401 -0.3370  2.0484
 8251TIP3    H246245   3.851   0.331   5.092 -1.0141 -0.4193 -1.2733
 8252TIP3   OH246246   3.665   5.790  10.552 -0.0630  0.0890 -0.2222
 8252TIP3    H146247   3.697   5.715  10.602 -1.0581  0.2786  0.7379
 8252TIP3    H246248   3.637   5.853  10.618 -2.8714 -0.2697 -0.9293
 8253TIP3   OH246249   3.346   0.839  11.411 -0.3115  0.4707  0.1486
 8253TIP3    H146250   3.302   0.758  11.440  2.9965 -0.6629  2.6352
 8253TIP3    H246251   3.421   0.808  11.360  1.3373  1.8558  1.6159
 8254TIP3   OH246252   6.408   1.005  16.381  0.0416 -0.1389 -0.2757
 8254TIP3    H146253   6.349   0.994  16.455 -0.9879 -1.4828 -1.2376
 8254TIP3    H246254   6.351   0.995  16.304  0.9380  1.8781 -1.2704
 8255TIP3   OH246255   5.106   1.397   4.810 -0.3679 -0.0044  0.0328
 8255TIP3    H146256   5.124   1.371   4.720 -2.5725 -0.5086 -0.3226
 8255TIP3    H246257   5.185   1.373   4.858  0.4416 -0.7003 -1.5683
 8256TIP3   OH246258   6.806   1.993  15.007  0.7561 -0.0185 -1.2028
 8256TIP3    H146259   6.791   1.963  15.097  0.1016  0.2557 -1.2162
 8256TIP3    H246260   6.781   2.085  15.008 -1.8022 -0.5926 -2.2389
 8257TIP3   OH246261   1.501   6.499  13.132 -0.0411  0.4184 -0.2979
 8257TIP3    H146262   1.522   6.518  13.041  3.1899  0.2011  0.2496
 8257TIP3    H246263   1.569   6.437  13.159 -1.8547 -0.7691  1.8500
 8258TIP3   OH246264   3.647   1.315  17.029 -0.4761  0.7926 -0.1200
 8258TIP3    H146265   3.566   1.267  17.043 -0.2828  0.7771  1.0189
 8258TIP3    H246266   3.652   1.326  16.934 -0.8716 -0.8147 -0.3450
 8259TIP3   OH246267   3.305   5.979   5.846  0.1265 -0.6841 -0.2474
 8259TIP3    H146268   3.363   6.055   5.842 -0.5578 -0.1701 -0.6463
 8259TIP3    H246269   3.357   5.907   5.809  0.1846 -0.0121 -1.5570
 8260TIP3   OH246270   4.965   1.225   3.445 -0.0945 -0.5475  0.6839
 8260TIP3    H146271   4.951   1.139   3.404 -1.0671 -1.0714  2.0277
 8260TIP3    H246272   4.924   1.287   3.385  0.2480 -1.0754 -0.1043
 8261TIP3   OH246273   1.653   3.914  12.718  0.6130  0.0680 -0.1165
 8261TIP3    H146274   1.595   3.852  12.673  2.3223 -1.2538 -0.5914
 8261TIP3    H246275   1.603   3.996  12.720 -0.5456 -0.5144 -2.1724
 8262TIP3   OH246276   3.086   1.730  14.540 -0.1185  0.3214  0.0030
 8262TIP3    H146277   3.096   1.821  14.569  0.3422  0.0012  0.8943
 8262TIP3    H246278   3.044   1.685  14.613 -2.1181  0.1859 -1.1475
 8263TIP3   OH246279   2.298   5.759  14.064 -0.1874 -0.4185  0.5148
 8263TIP3    H146280   2.296   5.715  13.979 -0.0252 -0.9184  0.7692
 8263TIP3    H246281   2.259   5.696  14.125 -1.8419  0.5613  0.5339
 8264TIP3   OH246282   5.580   3.134  12.991 -0.0608  0.3826  0.2180
 8264TIP3    H146283   5.671   3.155  13.010  0.2194 -0.3301 -0.3133
 8264TIP3    H246284   5.584   3.066  12.924 -1.0003  1.3796 -0.9050
 8265TIP3   OH246285   3.057   5.611  12.885  0.1031 -0.2064  0.3141
 8265TIP3    H146286   3.041   5.631  12.977 -1.4131 -1.5910  0.3850
 8265TIP3    H246287   3.098   5.524  12.886 -1.4345 -0.9842 -0.3458
 8266TIP3   OH246288   0.964   1.454  12.690 -0.1972 -0.5771  0.1173
 8266TIP3    H146289   0.872   1.475  12.671 -0.0938 -0.2314 -0.0004
 8266TIP3    H246290   0.974   1.363  12.661 -0.8225 -1.0258  1.2469
 8267TIP3   OH246291   3.499   5.708   2.583  0.5078 -0.2427  0.1961
 8267TIP3    H146292   3.501   5.756   2.500  0.1181  0.9580  0.8603
 8267TIP3    H246293   3.534   5.622   2.561 -0.0593 -0.1207 -1.3199
 8268TIP3   OH246294   6.424   5.314   3.941 -0.4338  0.0598  0.6093
 8268TIP3    H146295   6.333   5.335   3.922 -0.3027 -0.0592 -0.1652
 8268TIP3    H246296   6.419   5.240   4.002 -0.8496 -0.4884 -0.0763
 8269TIP3   OH246297   5.436   0.725  15.310 -0.7156  0.3128 -0.6376
 8269TIP3    H146298   5.354   0.729  15.260 -0.9208  0.0684 -0.3278
 8269TIP3    H246299   5.411   0.753  15.398 -0.1506  1.7440 -0.8981
 8270TIP3   OH246300   6.206   3.588  11.352  0.3628  0.1444 -0.4261
 8270TIP3    H146301   6.262   3.511  11.350  2.9073  1.8784 -1.8768
 8270TIP3    H246302   6.140   3.572  11.284 -0.1464 -1.3591  0.3812
 8271TIP3   OH246303   0.911   3.822  11.108 -0.3011  0.5295 -0.1414
 8271TIP3    H146304   0.969   3.748  11.125 -1.4434 -0.5626 -0.8570
 8271TIP3    H246305   0.917   3.875  11.188 -0.7433 -1.2198  1.1141
 8272TIP3   OH246306   5.476   5.605   0.336  0.4987  0.5925  0.0163
 8272TIP3    H146307   5.410   5.606   0.405  1.2913 -0.0585  0.8166
 8272TIP3    H246308   5.436   5.652   0.263 -0.4218  1.1512  0.8634
 8273TIP3   OH246309   1.210   4.120   4.142 -0.0618 -0.0369 -0.4615
 8273TIP3    H146310   1.233   4.213   4.134  1.5424 -0.3463  0.2569
 8273TIP3    H246311   1.289   4.074   4.114 -0.5219 -1.1902  0.1096
 8274TIP3   OH246312   4.980   4.555  15.329 -0.0608  0.6836  0.0598
 8274TIP3    H146313   5.002   4.639  15.291  2.7066 -0.0651 -0.1774
 8274TIP3    H246314   4.907   4.523  15.276  0.3725  1.9071 -1.3458
 8275TIP3   OH246315   4.907   3.973   4.842 -0.7172  0.5150 -0.2204
 8275TIP3    H146316   4.986   4.005   4.798  1.1362 -2.3942  0.6637
 8275TIP3    H246317   4.927   3.980   4.936 -0.6472 -1.8552  0.0197
 8276TIP3   OH246318   3.825   1.602  12.151  0.0055  0.6476  0.8642
 8276TIP3    H146319   3.846   1.682  12.103 -1.6313  1.1189  0.8662
 8276TIP3    H246320   3.909   1.558  12.163  0.7087  1.5104 -0.6620
 8277TIP3   OH246321   1.305   0.497  11.036 -0.2315 -0.4811  0.0615
 8277TIP3    H146322   1.332   0.587  11.051  1.5047 -1.0492  0.5900
 8277TIP3    H246323   1.260   0.472  11.117  1.0161 -0.6729  0.7206
 8278TIP3   OH246324   4.321   2.471   5.961 -0.6748 -0.2929  0.6266
 8278TIP3    H146325   4.406   2.505   5.933 -0.6273 -0.7279  0.2442
 8278TIP3    H246326   4.340   2.383   5.993 -1.3185 -1.3237 -1.6389
 8279TIP3   OH246327   5.502   1.007  14.439 -0.7764  0.1793 -0.0205
 8279TIP3    H146328   5.485   0.960  14.521 -0.7441  0.4140  0.1206
 8279TIP3    H246329   5.474   0.946  14.370 -2.8745  0.8290  0.2122
 8280TIP3   OH246330   2.768   1.743   1.296 -0.0025 -0.1239  0.1243
 8280TIP3    H146331   2.839   1.684   1.271  0.7098  0.7239  0.1064
 8280TIP3    H246332   2.692   1.713   1.245 -0.3005 -2.4536  1.7751
 8281TIP3   OH246333   2.527   1.343  11.877 -0.0107  0.3896  0.0909
 8281TIP3    H146334   2.518   1.248  11.876 -0.3742  0.3996 -2.3013
 8281TIP3    H246335   2.446   1.375  11.915 -0.8099 -0.2279 -1.0334
 8282TIP3   OH246336   6.690   1.728   1.246  0.4057 -0.0964 -0.2665
 8282TIP3    H146337   6.777   1.701   1.273  0.8834  0.5247 -1.1584
 8282TIP3    H246338   6.639   1.729   1.327  0.9038 -1.5911  0.1010
 8283TIP3   OH246339   1.496   6.603  11.100 -0.0797 -0.1142 -0.0825
 8283TIP3    H146340   1.591   6.609  11.109 -0.1137  3.3005 -0.6901
 8283TIP3    H246341   1.482   6.525  11.047  2.2071 -1.7766  1.5665
 8284TIP3   OH246342   2.413   6.648  15.926  0.3596  0.2332 -0.2266
 8284TIP3    H146343   2.437   6.555  15.927  2.0386  0.6311  1.1888
 8284TIP3    H246344   2.382   6.663  15.836  0.5794 -1.5480 -0.6477
 8285TIP3   OH246345   1.677   0.141  10.695 -0.2394  0.2628 -0.1716
 8285TIP3    H146346   1.639   0.061  10.730 -0.6427 -0.8251 -2.8716
 8285TIP3    H246347   1.771   0.133  10.711 -0.3300 -0.5392 -0.0320
 8286TIP3   OH246348   0.407   1.791  10.793  0.4979 -0.3152 -0.3205
 8286TIP3    H146349   0.438   1.882  10.792  0.0457 -0.1592 -0.5712
 8286TIP3    H246350   0.463   1.747  10.857 -1.1098  0.8100  2.0178
 8287TIP3   OH246351   0.161   6.679  15.971  0.5758 -0.4923  0.4415
 8287TIP3    H146352   0.134   6.758  15.923  1.2103  0.5479  1.7379
 8287TIP3    H246353   0.118   6.687  16.056  0.9858 -1.3460  0.7420
 8288TIP3   OH246354   4.391   3.578   5.162 -0.2339 -0.2261 -0.1908
 8288TIP3    H146355   4.312   3.527   5.146 -0.9608  0.7313  0.2727
 8288TIP3    H246356   4.362   3.669   5.161  1.5167  0.4968 -4.1657
 8289TIP3   OH246357   0.329   0.714  12.673 -0.4570 -0.2568  0.0598
 8289TIP3    H146358   0.287   0.633  12.703 -0.8437  0.4120  1.3979
 8289TIP3    H246359   0.306   0.779  12.739  0.9347  0.6513 -0.3089
 8290TIP3   OH246360   4.423   2.099  10.773 -0.1415  0.0509  0.6477
 8290TIP3    H146361   4.425   2.004  10.772 -1.5508  0.0017 -0.4098
 8290TIP3    H246362   4.356   2.121  10.837 -0.7984  0.2687 -0.0895
 8291TIP3   OH246363   0.796   3.767   0.177 -0.0919 -0.0100  0.3419
 8291TIP3    H146364   0.852   3.735   0.106 -0.0875 -0.2061  0.4305
 8291TIP3    H246365   0.761   3.850   0.146 -1.5269 -0.9382 -0.6403
 8292TIP3   OH246366   6.257   6.784   2.123  0.2964  0.3342 -0.7849
 8292TIP3    H146367   6.353   6.783   2.113  0.4871  2.7179 -0.0212
 8292TIP3    H246368   6.244   6.823   2.210 -1.3752  0.6096 -1.1432
 8293TIP3   OH246369   4.539   2.959  11.799 -0.1946  0.1336 -0.0400
 8293TIP3    H146370   4.592   2.907  11.859 -1.1962  0.4292  1.1359
 8293TIP3    H246371   4.552   2.918  11.714  0.8364 -0.6275  0.4667
 8294TIP3   OH246372   6.822   0.961  14.667  0.0622 -0.3252  0.0139
 8294TIP3    H146373   6.798   0.978  14.576  3.2164 -0.5089 -0.9522
 8294TIP3    H246374   6.911   0.927  14.662  0.7546  0.7249  3.2784
 8295TIP3   OH246375   5.893   4.868   4.490  0.4055  0.4221 -0.2225
 8295TIP3    H146376   5.866   4.960   4.490 -0.4295  0.2132 -1.7800
 8295TIP3    H246377   5.973   4.865   4.437  1.3617  0.4594  1.1662
 8296TIP3   OH246378   5.542   4.868  11.529 -0.3101 -0.6497 -0.2260
 8296TIP3    H146379   5.458   4.910  11.547  0.4996  1.0187 -0.0943
 8296TIP3    H246380   5.575   4.912  11.450  0.1236 -1.7938 -0.7147
 8297TIP3   OH246381   2.159   4.274   6.599  0.3707 -0.2645  0.0677
 8297TIP3    H146382   2.102   4.271   6.676  2.3878  0.1406  1.6641
 8297TIP3    H246383   2.230   4.213   6.620  2.2902  1.7344 -0.3443
 8298TIP3   OH246384   3.942   3.020   0.301 -0.5487 -0.3839 -0.4162
 8298TIP3    H146385   4.008   3.010   0.232 -0.4180 -0.9785 -0.2199
 8298TIP3    H246386   3.973   2.962   0.371 -0.3335  0.6848  0.4085
 8299TIP3   OH246387   3.638   0.545   1.986  0.1774 -0.5106  0.2521
 8299TIP3    H146388   3.610   0.624   1.938 -0.7846 -0.6290  0.6033
 8299TIP3    H246389   3.731   0.560   2.004 -0.2573  1.1202  1.3767
 8300TIP3   OH246390   5.556   5.167  14.434 -0.3879 -0.1590  0.5295
 8300TIP3    H146391   5.509   5.251  14.430 -1.6507 -0.8068  0.9781
 8300TIP3    H246392   5.545   5.139  14.525  0.4505 -0.5823  0.5050
 8301TIP3   OH246393   6.673   5.298   3.159  0.0188  0.0511 -1.1761
 8301TIP3    H146394   6.709   5.272   3.244  1.1336  0.2973 -1.5680
 8301TIP3    H246395   6.725   5.373   3.131 -2.5239  2.2210 -0.5316
 8302TIP3   OH246396   2.222   3.291  15.843  0.4469  0.5722 -0.5408
 8302TIP3    H146397   2.127   3.280  15.835  0.1990  1.2086  1.0447
 8302TIP3    H246398   2.236   3.385  15.835  0.9577  0.4759 -0.8107
 8303TIP3   OH246399   0.746   3.750  15.631 -0.0947 -0.2728  0.2911
 8303TIP3    H146400   0.731   3.672  15.685 -0.2251 -2.4258 -2.5767
 8303TIP3    H246401   0.698   3.732  15.550  0.9130  2.2723 -0.9821
 8304TIP3   OH246402   4.187   4.571   2.679  0.2792  0.1135  0.6785
 8304TIP3    H146403   4.126   4.621   2.733 -2.6055 -1.9898 -0.3757
 8304TIP3    H246404   4.214   4.497   2.734 -0.4479 -0.5030  0.2357
 8305TIP3   OH246405   5.520   3.336  14.519 -0.2073  1.0652  0.5598
 8305TIP3    H146406   5.596   3.382  14.554  0.2920  1.7628 -1.3280
 8305TIP3    H246407   5.556   3.260  14.474 -0.8507  0.1191  1.5682
 8306TIP3   OH246408   5.424   5.016   1.409  0.4612  0.0781  0.0734
 8306TIP3    H146409   5.469   4.954   1.466  0.9943  0.4997  0.1249
 8306TIP3    H246410   5.456   5.102   1.438  0.5408  0.3108 -0.6807
 8307TIP3   OH246411   2.704   1.084   3.053 -0.0766  0.3096 -0.0653
 8307TIP3    H146412   2.766   1.030   3.101  0.3066  0.5272 -0.3094
 8307TIP3    H246413   2.687   1.035   2.972 -1.2586 -0.3965  0.5789
 8308TIP3   OH246414   2.373   6.804  14.331  0.1232 -0.1563  0.4062
 8308TIP3    H146415   2.330   6.719  14.333 -0.0969 -0.0281  1.1782
 8308TIP3    H246416   2.433   6.799  14.256 -0.4478 -0.7113 -0.0184
 8309TIP3   OH246417   4.283   4.723  13.297  0.4383 -0.0682 -0.6726
 8309TIP3    H146418   4.196   4.688  13.277  0.4291  0.0044 -0.7586
 8309TIP3    H246419   4.319   4.747  13.212  0.7823 -0.6569 -0.6999
 8310TIP3   OH246420   3.356   6.585  14.527  0.4705 -0.4969 -0.1228
 8310TIP3    H146421   3.388   6.495  14.529  0.7485 -0.3858  0.6126
 8310TIP3    H246422   3.423   6.633  14.480 -0.0914 -0.8252 -1.2911
 8311TIP3   OH246423   6.133   1.090   4.365  0.0977  0.4191 -0.4794
 8311TIP3    H146424   6.088   1.160   4.317  0.9812  1.7599  0.5651
 8311TIP3    H246425   6.081   1.078   4.444 -0.3130 -0.4547 -0.8777
 8312TIP3   OH246426   4.989   0.110  14.078 -0.1067  0.1955 -0.1897
 8312TIP3    H146427   5.059   0.046  14.066 -2.3882 -2.2430 -1.5628
 8312TIP3    H246428   5.013   0.183  14.021  1.5543 -0.3549 -0.2223
 8313TIP3   OH246429   5.623   1.661   2.326 -0.1350  0.4587  0.1925
 8313TIP3    H146430   5.717   1.672   2.343 -0.3400  0.4615  1.4074
 8313TIP3    H246431   5.619   1.606   2.248  0.9085 -1.8878  1.6705
 8314TIP3   OH246432   0.952   1.848  14.997  0.1274  0.5037  0.2500
 8314TIP3    H146433   0.864   1.811  14.989  0.0976  0.8237 -1.1524
 8314TIP3    H246434   1.004   1.799  14.934  1.5415 -1.2348  2.6069
 8315TIP3   OH246435   3.825   1.183  12.746  0.4667  0.1905 -0.0362
 8315TIP3    H146436   3.738   1.222  12.752  0.1879 -0.5479  1.3219
 8315TIP3    H246437   3.835   1.135  12.829  1.3863 -1.3246 -0.9666
 8316TIP3   OH246438   4.374   2.325  14.558 -0.0496 -0.0443 -0.6476
 8316TIP3    H146439   4.414   2.281  14.483  0.8732  0.2128 -0.3229
 8316TIP3    H246440   4.382   2.263  14.630  3.0834  1.2848  0.3346
 8317TIP3   OH246441   6.088   5.536  13.437  0.3545  0.1716  0.2285
 8317TIP3    H146442   6.138   5.577  13.367  0.1589 -0.4324 -0.2774
 8317TIP3    H246443   6.146   5.469  13.473  1.3257  1.9119  2.1826
 8318TIP3   OH246444   4.562   0.656  11.304  0.4289  0.2492  0.5590
 8318TIP3    H146445   4.634   0.620  11.251 -0.1685  0.9957 -0.8328
 8318TIP3    H246446   4.488   0.597  11.287  0.1402  0.6861  0.2729
 8319TIP3   OH246447   4.089   0.863   3.007  0.4118 -0.5761 -0.2737
 8319TIP3    H146448   4.103   0.946   3.051  0.4428  1.4244 -3.6506
 8319TIP3    H246449   4.176   0.824   2.999  0.7801  0.3307 -0.8275
 8320TIP3   OH246450   4.913   0.611   3.581  0.5015  0.2033 -0.2283
 8320TIP3    H146451   4.886   0.683   3.523  0.7050  1.4245  1.1155
 8320TIP3    H246452   4.841   0.603   3.643  0.5388 -0.6981 -0.2941
 8321TIP3   OH246453   0.953   1.307  14.355 -0.2440  0.8112 -0.2929
 8321TIP3    H146454   0.893   1.266  14.416  0.0220  0.1157 -0.4845
 8321TIP3    H246455   0.998   1.374  14.407 -0.0879  0.2961  0.2505
 8322TIP3   OH246456   2.884   2.426  15.561 -0.2338 -0.1457  0.4839
 8322TIP3    H146457   2.977   2.426  15.585  0.0363 -0.5761 -0.5060
 8322TIP3    H246458   2.841   2.381  15.634  0.4769 -0.8676  0.4738
 8323TIP3   OH246459   1.515   6.196   1.544 -0.2306 -0.1986 -0.7974
 8323TIP3    H146460   1.583   6.242   1.593 -0.0640 -0.9924 -0.2542
 8323TIP3    H246461   1.452   6.169   1.611 -0.8371  0.1100 -1.2355
 8324TIP3   OH246462   4.022   0.461   1.018 -0.2968 -0.0672 -0.2185
 8324TIP3    H146463   4.022   0.544   0.970 -0.0691  0.5478  0.8183
 8324TIP3    H246464   4.114   0.447   1.041 -0.4632 -0.1103  0.4395
 8325TIP3   OH246465   0.687   6.255  11.097 -0.2314  0.1227  0.1260
 8325TIP3    H146466   0.778   6.234  11.116 -0.8310 -1.4058  1.5123
 8325TIP3    H246467   0.672   6.223  11.008  0.1868 -1.0476  0.4620
 8326TIP3   OH246468   4.461   5.826  12.690  0.2092 -0.1029  0.2164
 8326TIP3    H146469   4.468   5.746  12.743  1.6013 -1.5808 -2.0246
 8326TIP3    H246470   4.527   5.885  12.727 -0.4390 -0.1898  1.5512
 8327TIP3   OH246471   3.128   4.454  12.769  0.3536 -0.3886 -0.3308
 8327TIP3    H146472   3.052   4.405  12.800  1.2799 -1.3040  0.5732
 8327TIP3    H246473   3.143   4.421  12.681 -0.5336  0.1144 -0.6913
 8328TIP3   OH246474   5.900   2.595  15.209  0.2529  0.2204  0.0736
 8328TIP3    H146475   5.877   2.610  15.301  0.7877  0.5047  0.1680
 8328TIP3    H246476   5.837   2.530  15.179  1.9544 -2.3256  1.5413
 8329TIP3   OH246477   1.026   2.900   3.220 -0.5389 -0.0785  0.9628
 8329TIP3    H146478   1.081   2.978   3.208  2.0683 -1.9722 -0.4796
 8329TIP3    H246479   0.999   2.876   3.132 -0.6160 -1.2579  1.2946
 8330TIP3   OH246480   4.616   2.810   0.243  0.3741  0.1034  0.1682
 8330TIP3    H146481   4.537   2.769   0.279  0.4988  0.1767  0.5328
 8330TIP3    H246482   4.685   2.746   0.257  0.2083 -0.3546 -1.0080
 8331TIP3   OH246483   4.489   6.368   3.426 -0.4755  0.3103 -0.1710
 8331TIP3    H146484   4.430   6.347   3.354 -0.5485  2.1788 -0.7256
 8331TIP3    H246485   4.440   6.344   3.505 -1.3173  0.3255 -0.6762
 8332TIP3   OH246486   3.424   4.269  14.871  0.4358  0.8250 -0.3903
 8332TIP3    H146487   3.459   4.186  14.902 -1.3434  0.2220  0.1429
 8332TIP3    H246488   3.405   4.318  14.951  0.5883  1.3559 -0.6759
 8333TIP3   OH246489   2.823   2.905  12.840  0.0371  0.2735 -0.4843
 8333TIP3    H146490   2.773   2.830  12.871 -0.9807  1.2629  0.3350
 8333TIP3    H246491   2.784   2.927  12.756  1.1272 -0.8221 -1.3204
 8334TIP3   OH246492   4.042   2.413  12.550  0.3337  0.3894 -0.5561
 8334TIP3    H146493   4.106   2.362  12.600  1.4040 -0.6116 -2.7713
 8334TIP3    H246494   3.974   2.349  12.527 -0.4981  0.9989  0.1772
 8335TIP3   OH246495   4.651   0.663  14.659 -0.2110  0.5284 -0.7130
 8335TIP3    H146496   4.623   0.635  14.746  0.0179 -1.5164 -1.2331
 8335TIP3    H246497   4.574   0.706  14.622 -0.7863  0.1097 -0.0339
 8336TIP3   OH246498   1.969   6.197   3.992 -0.2599 -0.5871  0.1559
 8336TIP3    H146499   2.005   6.202   3.904  1.4421  0.5015  0.8399
 8336TIP3    H246500   1.933   6.284   4.009  0.5694 -0.3799  0.9562
 8337TIP3   OH246501   5.467   1.618  12.689 -0.1249  0.1789 -0.8389
 8337TIP3    H146502   5.440   1.544  12.744 -0.4414  0.9777  0.1020
 8337TIP3    H246503   5.446   1.590  12.599 -2.9934  0.2446 -0.2819
 8338TIP3   OH246504   0.849   6.082  12.106  0.3891 -0.6196  0.0810
 8338TIP3    H146505   0.757   6.101  12.091  0.8562  1.4701 -0.3524
 8338TIP3    H246506   0.896   6.149  12.058  2.1268 -0.7928  1.4303
 8339TIP3   OH246507   1.699   0.507  15.973 -0.2518  0.1391 -0.1973
 8339TIP3    H146508   1.667   0.474  15.889 -1.6739  0.8365  0.0311
 8339TIP3    H246509   1.698   0.430  16.030 -0.8394 -0.0139 -0.4033
 8340TIP3   OH246510   6.756   4.992  15.893 -0.3003  0.1075  0.1658
 8340TIP3    H146511   6.720   5.054  15.829 -0.3829 -1.2737 -1.1761
 8340TIP3    H246512   6.850   5.006  15.888 -0.1735 -0.9618 -1.3840
 8341TIP3   OH246513   6.548   4.076   0.584  0.0920 -0.6779  0.1207
 8341TIP3    H146514   6.623   4.103   0.531  0.1783  1.3727  1.1771
 8341TIP3    H246515   6.472   4.113   0.540 -0.1137 -1.2042  0.0284
 8342TIP3   OH246516   2.488   6.517   3.239  0.5768 -0.2375 -0.8999
 8342TIP3    H146517   2.413   6.529   3.181  0.4002 -0.7844 -0.7926
 8342TIP3    H246518   2.536   6.444   3.201  0.2226 -0.8934 -0.1289
 8343TIP3   OH246519   0.597   2.603   1.626  0.6673  0.1163  0.5360
 8343TIP3    H146520   0.576   2.585   1.534  0.0180 -0.0197  0.7000
 8343TIP3    H246521   0.690   2.626   1.626  0.9795 -1.0844  0.0127
 8344TIP3   OH246522   0.498   4.908  16.831 -0.1161  0.1460  0.4873
 8344TIP3    H146523   0.489   4.999  16.857 -0.9592 -0.1629  1.3164
 8344TIP3    H246524   0.586   4.883  16.861  0.3216  0.8089 -0.1912
 8345TIP3   OH246525   6.126   5.947   4.673  0.3309 -0.4303 -0.5425
 8345TIP3    H146526   6.169   5.903   4.746  3.8190  2.6181 -0.4447
 8345TIP3    H246527   6.177   5.921   4.596 -1.3315 -1.1625 -1.4284
 8346TIP3   OH246528   3.551   3.777  14.730  0.2276 -0.7901  0.5618
 8346TIP3    H146529   3.597   3.852  14.768 -1.3842 -0.6799  2.4243
 8346TIP3    H246530   3.556   3.709  14.797 -2.6963 -0.5950  1.1003
 8347TIP3   OH246531   0.606   1.730  11.046  0.3293  0.1765 -0.3098
 8347TIP3    H146532   0.638   1.657  10.994 -0.5279 -0.9528  0.6768
 8347TIP3    H246533   0.682   1.758  11.097  0.8983  0.5951 -1.3716
 8348TIP3   OH246534   1.797   4.798   6.234 -0.6098 -0.2840  0.2229
 8348TIP3    H146535   1.880   4.763   6.267 -1.1454  0.0131  2.0147
 8348TIP3    H246536   1.812   4.892   6.226  0.0238 -0.5093 -2.1134
 8349TIP3   OH246537   0.413   5.176  15.487  0.3121  0.3267 -0.1064
 8349TIP3    H146538   0.485   5.198  15.545 -0.7894  0.4753  1.2378
 8349TIP3    H246539   0.452   5.117  15.422  1.7569  0.8656  0.2472
 8350TIP3   OH246540   4.273   2.553   1.259 -0.4603  0.2340  0.0107
 8350TIP3    H146541   4.324   2.538   1.180  0.7283 -1.0825  0.9665
 8350TIP3    H246542   4.201   2.490   1.254 -1.2317  1.1557 -0.6952
 8351TIP3   OH246543   1.753   1.306   0.736 -0.5745  0.0488 -0.2883
 8351TIP3    H146544   1.698   1.259   0.673 -1.5137 -0.9932  1.2410
 8351TIP3    H246545   1.691   1.341   0.800  0.4073  0.5498  0.4079
 8352TIP3   OH246546   6.395   3.272   4.290 -0.2860 -0.0120  0.6229
 8352TIP3    H146547   6.340   3.195   4.278 -2.2521  1.2307  1.1851
 8352TIP3    H246548   6.356   3.339   4.234  0.6888  0.9157  1.0157
 8353TIP3   OH246549   1.314   6.126   5.664  0.8218  0.9276  0.1159
 8353TIP3    H146550   1.274   6.179   5.733  1.3798  1.8500 -0.2498
 8353TIP3    H246551   1.269   6.154   5.584 -1.5166 -1.8029  0.3265
 8354TIP3   OH246552   5.504   1.450  11.284  0.0750 -0.3314  0.4345
 8354TIP3    H146553   5.449   1.396  11.341 -1.2459  0.4179 -0.0914
 8354TIP3    H246554   5.593   1.415  11.296 -0.4778 -1.4536  1.4383
 8355TIP3   OH246555   5.322   4.063   2.134 -0.1246  0.2637 -0.1260
 8355TIP3    H146556   5.264   4.132   2.104  0.0116 -0.1216 -1.3141
 8355TIP3    H246557   5.269   4.010   2.193 -1.2631 -0.5616 -1.8149
 8356TIP3   OH246558   5.980   3.944  11.014 -0.2632 -0.5362  0.3954
 8356TIP3    H146559   6.064   3.956  11.058 -0.1726 -1.4478  0.5025
 8356TIP3    H246560   6.003   3.924  10.924 -0.3519 -0.9309  0.4577
 8357TIP3   OH246561   6.742   4.169  15.068  0.2548  0.2260  0.6480
 8357TIP3    H146562   6.659   4.216  15.074  0.6082  1.0321 -0.3910
 8357TIP3    H246563   6.725   4.100  15.004  0.5536  0.7931 -0.0521
 8358TIP3   OH246564   3.967   3.089  14.840 -0.0701  0.4327 -0.3691
 8358TIP3    H146565   3.880   3.126  14.849 -0.2707 -0.0910 -0.1168
 8358TIP3    H246566   4.026   3.163  14.857 -0.4475  1.0238 -1.5132
 8359TIP3   OH246567   1.001   0.380   4.211  0.2146 -0.4456  0.0700
 8359TIP3    H146568   0.993   0.462   4.162 -1.3041 -0.2788  0.5303
 8359TIP3    H246569   0.950   0.395   4.291 -2.4841 -2.6936 -1.0461
 8360TIP3   OH246570   3.320   4.022   2.884  0.6392 -0.2161 -0.1289
 8360TIP3    H146571   3.341   4.014   2.977  1.2974 -1.4574 -0.3526
 8360TIP3    H246572   3.274   3.941   2.863 -1.3652  0.9476 -0.4529
 8361TIP3   OH246573   6.577   1.548   6.126  0.2642 -0.1780  0.8495
 8361TIP3    H146574   6.515   1.601   6.076 -0.1101 -0.1094  1.3824
 8361TIP3    H246575   6.645   1.611   6.153  1.5628 -0.5683 -1.2550
 8362TIP3   OH246576   6.841   2.284  13.199  0.2783  0.3769  0.3638
 8362TIP3    H146577   6.906   2.216  13.181  0.8117  0.9665  0.0128
 8362TIP3    H246578   6.891   2.356  13.237  0.0164  1.2327 -0.8422
 8363TIP3   OH246579   4.569   4.175  11.132 -0.6649 -1.1819 -0.1391
 8363TIP3    H146580   4.636   4.185  11.200 -0.8341 -1.4137  0.0624
 8363TIP3    H246581   4.532   4.088  11.148 -0.3399 -1.4594 -0.8623
 8364TIP3   OH246582   0.833   4.727   5.496 -0.7686  0.0593  0.3437
 8364TIP3    H146583   0.762   4.667   5.472 -0.9136 -0.1703  1.3226
 8364TIP3    H246584   0.845   4.714   5.590  2.3773 -1.8934 -0.1832
 8365TIP3   OH246585   4.077   0.926   6.344 -0.2619 -0.3132  0.0961
 8365TIP3    H146586   4.127   0.860   6.295 -0.7792 -0.5390 -0.1365
 8365TIP3    H246587   3.991   0.886   6.358 -0.7271  0.4838 -0.4197
 8366TIP3   OH246588   2.627   3.595   4.378 -0.4487  0.5844  0.5601
 8366TIP3    H146589   2.684   3.529   4.337 -1.3526  0.1774 -0.0837
 8366TIP3    H246590   2.627   3.668   4.316 -1.0687  0.3480  0.2674
 8367TIP3   OH246591   0.811   1.626  12.385 -0.0200  0.4481 -0.0853
 8367TIP3    H146592   0.797   1.592  12.474 -0.1174  0.5161 -0.0748
 8367TIP3    H246593   0.867   1.702  12.397 -1.3609  1.4390  0.0889
 8368TIP3   OH246594   1.630   0.879   3.665  0.4246  0.3106  0.2338
 8368TIP3    H146595   1.596   0.960   3.703  0.9797  0.4460  0.4489
 8368TIP3    H246596   1.720   0.872   3.698  0.5984 -0.0592 -0.2906
 8369TIP3   OH246597   0.076   0.658  12.862 -0.0789  0.4926  0.0388
 8369TIP3    H146598   0.069   0.753  12.862  2.5514  0.8033  2.0520
 8369TIP3    H246599   0.080   0.635  12.955  0.3578 -1.4870 -0.4334
 8370TIP3   OH246600   4.904   6.016   5.414  0.6224 -0.4096  0.1735
 8370TIP3    H146601   4.870   6.105   5.420  1.0338 -0.1564 -0.9828
 8370TIP3    H246602   4.999   6.027   5.408  0.6896 -0.9395  0.1688
 8371TIP3   OH246603   5.731   0.605   0.194  0.2479 -0.2039  0.1454
 8371TIP3    H146604   5.759   0.684   0.241 -0.8767  0.4699 -0.2670
 8371TIP3    H246605   5.725   0.634   0.102  0.2320 -0.8906 -0.0757
 8372TIP3   OH246606   4.438   0.778  14.191  0.5301  0.5282  0.3541
 8372TIP3    H146607   4.354   0.781  14.238 -0.3985 -1.4290 -1.0856
 8372TIP3    H246608   4.446   0.688  14.160  1.7642  1.3960 -2.0696
 8373TIP3   OH246609   6.395   4.084   3.207 -0.5371  0.9176  0.3500
 8373TIP3    H146610   6.367   4.148   3.273 -0.4108  1.2671  0.0719
 8373TIP3    H246611   6.471   4.041   3.246 -0.6244  0.9341  0.5406
 8374TIP3   OH246612   3.248   1.248   6.370  0.0928  0.2337  0.0756
 8374TIP3    H146613   3.168   1.275   6.324  0.6394  2.5003  0.3609
 8374TIP3    H246614   3.241   1.153   6.375 -0.8213 -0.0161 -3.2076
 8375TIP3   OH246615   4.528   5.438  15.480  0.0217 -0.0602 -0.3206
 8375TIP3    H146616   4.537   5.518  15.532  1.5554 -1.1478  1.2321
 8375TIP3    H246617   4.454   5.392  15.520  0.5015 -0.3811  0.2226
 8376TIP3   OH246618   4.489   2.106   4.438  0.0471 -0.5623 -0.2846
 8376TIP3    H146619   4.542   2.125   4.361 -3.1029  0.8499 -2.2970
 8376TIP3    H246620   4.442   2.025   4.416  0.9687 -1.5716  1.2715
 8377TIP3   OH246621   6.318   2.601   1.177 -0.3528 -0.0286  0.5339
 8377TIP3    H146622   6.408   2.570   1.175 -0.0525  0.7940  0.7020
 8377TIP3    H246623   6.270   2.540   1.121  0.4901  0.0822 -0.3369
 8378TIP3   OH246624   5.462   3.911   3.224 -0.2517  0.2557  0.0063
 8378TIP3    H146625   5.452   3.816   3.226 -1.4325  0.3554 -0.3645
 8378TIP3    H246626   5.540   3.929   3.278  0.5059 -0.9729 -0.6496
 8379TIP3   OH246627   0.580   4.691   1.728 -0.3517 -0.3981  0.2785
 8379TIP3    H146628   0.493   4.722   1.756  0.0410  0.0173  1.0919
 8379TIP3    H246629   0.640   4.760   1.758  0.2878 -0.8208 -0.0182
 8380TIP3   OH246630   6.235   4.571   3.247  0.2428 -0.2435 -0.2127
 8380TIP3    H146631   6.144   4.549   3.267  0.5957 -0.2323  1.6410
 8380TIP3    H246632   6.259   4.514   3.175 -1.4287  0.2600 -1.2168
 8381TIP3   OH246633   1.903   6.355   0.276  0.4292 -0.4194 -0.4828
 8381TIP3    H146634   1.845   6.340   0.202  1.2402  0.4278 -1.3249
 8381TIP3    H246635   1.847   6.346   0.353 -0.8730  0.5445 -1.2696
 8382TIP3   OH246636   1.272   0.491  14.780 -0.6354 -0.4964 -0.2490
 8382TIP3    H146637   1.313   0.492  14.693 -1.6672 -1.1884 -0.7669
 8382TIP3    H246638   1.183   0.461  14.764 -0.4295 -2.0430  1.2256
 8383TIP3   OH246639   6.701   4.565   6.421  0.4959  0.1858 -0.1915
 8383TIP3    H146640   6.689   4.495   6.485 -1.1930 -0.0615 -0.7239
 8383TIP3    H246641   6.648   4.637   6.454  1.1931  0.7568 -0.3074
 8384TIP3   OH246642   4.184   6.282  16.212  0.1173  0.2508 -0.3792
 8384TIP3    H146643   4.263   6.229  16.200  0.2187  0.3479 -0.1472
 8384TIP3    H246644   4.129   6.259  16.138  0.7770  0.9215 -1.0996
 8385TIP3   OH246645   6.484   0.998   2.309  0.8620  0.2245  0.4455
 8385TIP3    H146646   6.462   1.070   2.368 -0.1236 -1.4538  2.2528
 8385TIP3    H246647   6.404   0.982   2.260  0.9825  0.1591  0.2693
 8386TIP3   OH246648   4.388   6.543   0.924 -0.0252 -0.2958 -0.0016
 8386TIP3    H146649   4.483   6.545   0.930  0.0697  2.4407 -1.1839
 8386TIP3    H246650   4.370   6.497   0.842  0.2034 -1.1161  0.3867
 8387TIP3   OH246651   3.857   2.374   5.046  0.5300 -0.1628 -0.6330
 8387TIP3    H146652   3.883   2.444   4.986  2.8405 -1.6299 -1.4882
 8387TIP3    H246653   3.880   2.407   5.133  0.5403  0.5791 -0.9113
 8388TIP3   OH246654   0.965   0.789  13.403 -0.1884 -0.4268  0.5668
 8388TIP3    H146655   0.935   0.849  13.334 -1.4434 -1.5152  0.1110
 8388TIP3    H246656   1.058   0.809  13.413 -0.1316  0.2602 -0.9422
 8389TIP3   OH246657   3.998   2.567  14.603  0.1713  0.3437 -0.0265
 8389TIP3    H146658   3.952   2.575  14.687  0.2164 -0.8113  0.1196
 8389TIP3    H246659   4.054   2.490  14.613 -1.0657 -0.8364 -1.7010
 8390TIP3   OH246660   2.194   4.473  16.992  0.0161  0.3294 -0.1326
 8390TIP3    H146661   2.167   4.518  17.072  0.3221 -0.3444  0.3593
 8390TIP3    H246662   2.117   4.423  16.965  0.2565 -0.3594  0.4028
 8391TIP3   OH246663   5.093   6.777   2.795 -0.5642 -0.3358 -0.4194
 8391TIP3    H146664   5.105   6.728   2.877 -0.0187  1.6586  0.7699
 8391TIP3    H246665   5.154   6.735   2.734 -0.0246 -1.0611  0.5751
 8392TIP3   OH246666   0.645   6.587   0.687  0.1927 -0.6419 -0.0152
 8392TIP3    H146667   0.593   6.536   0.749 -1.1810 -0.0521 -0.6555
 8392TIP3    H246668   0.705   6.638   0.742 -1.1926  0.0892  0.8693
 8393TIP3   OH246669   4.026   0.032  11.800 -0.2457  0.4609  0.1787
 8393TIP3    H146670   4.033   0.090  11.724 -2.2206 -0.8005 -1.0391
 8393TIP3    H246671   3.992   0.088  11.870 -0.3632  1.1868 -0.4427
 8394TIP3   OH246672   0.606   3.438   0.522  0.6049 -0.2793 -0.0509
 8394TIP3    H146673   0.697   3.448   0.550  0.7941 -1.8369  0.0015
 8394TIP3    H246674   0.612   3.423   0.428  0.3018  0.7237 -0.2381
 8395TIP3   OH246675   0.690   5.210   0.640 -0.2379  0.5688 -0.7252
 8395TIP3    H146676   0.784   5.219   0.660  0.3305  0.2507 -2.9903
 8395TIP3    H246677   0.650   5.288   0.679  0.8248  0.3852  0.8606
 8396TIP3   OH246678   5.163   5.171  13.768  0.3589 -0.2713  0.4914
 8396TIP3    H146679   5.158   5.141  13.677  0.8480 -0.6627  0.5888
 8396TIP3    H246680   5.253   5.152  13.794 -0.0945 -1.2435  1.4212
 8397TIP3   OH246681   2.441   0.976  16.950 -0.3640 -0.2258  0.5919
 8397TIP3    H146682   2.517   1.025  16.919 -0.3334 -0.4527  0.3062
 8397TIP3    H246683   2.477   0.891  16.978 -0.6142 -0.6510 -0.3174
 8398TIP3   OH246684   3.375   1.867  13.580 -0.5270  0.4215 -0.1930
 8398TIP3    H146685   3.372   1.778  13.614 -0.5431 -0.2129 -1.7864
 8398TIP3    H246686   3.397   1.921  13.656 -0.1566 -0.9729  0.7200
 8399TIP3   OH246687   6.628   3.110  13.158 -0.2403 -0.3156 -0.1770
 8399TIP3    H146688   6.682   3.083  13.233 -3.0606  0.5198  2.3625
 8399TIP3    H246689   6.606   3.201  13.177 -2.2842 -0.5502 -1.2171
 8400TIP3   OH246690   5.475   1.342   1.586 -0.1514 -0.5675 -0.0402
 8400TIP3    H146691   5.501   1.417   1.639  0.1319  0.1927 -1.2150
 8400TIP3    H246692   5.382   1.329   1.606 -0.2898  0.3163 -0.0792
 8401TIP3   OH246693   4.660   3.232  12.639  0.7830 -0.4134 -0.1636
 8401TIP3    H146694   4.700   3.304  12.687  1.5781 -0.0418 -1.3375
 8401TIP3    H246695   4.635   3.269  12.555 -0.1489 -1.1571 -0.2319
 8402TIP3   OH246696   3.812   5.445   4.526  0.7532 -0.7599  1.0382
 8402TIP3    H146697   3.752   5.381   4.564 -0.4875  0.5773  1.4337
 8402TIP3    H246698   3.893   5.435   4.577  0.6014 -1.9986  1.0690
 8403TIP3   OH246699   5.395   4.968   4.774  0.4354  0.7018 -0.0852
 8403TIP3    H146700   5.318   4.917   4.800  0.8563  0.3625  0.5460
 8403TIP3    H246701   5.404   5.034   4.843  0.1338  1.3785 -0.6859
 8404TIP3   OH246702   6.012   0.175  12.469  0.0495  0.1702  0.5622
 8404TIP3    H146703   6.098   0.187  12.509 -0.3765  1.8694  1.0802
 8404TIP3    H246704   5.950   0.185  12.542 -0.6522  1.3383 -0.1519
 8405TIP3   OH246705   1.110   6.419  14.810 -0.2695  0.5164 -0.3358
 8405TIP3    H146706   1.072   6.369  14.737  0.4511  2.4093 -2.1119
 8405TIP3    H246707   1.034   6.450  14.859 -0.8334  0.1650 -0.9633
 8406TIP3   OH246708   0.204   0.996   5.133 -0.3920 -0.8157 -0.1501
 8406TIP3    H146709   0.250   1.064   5.082 -1.7885 -0.9640 -1.6874
 8406TIP3    H246710   0.271   0.961   5.192  0.3223  2.0026  0.8375
 8407TIP3   OH246711   2.461   0.629  15.210 -0.0410  0.3309  0.2767
 8407TIP3    H146712   2.553   0.621  15.184 -0.0028 -0.6610  0.6842
 8407TIP3    H246713   2.416   0.657  15.130  0.8756  2.7556  0.5365
 8408TIP3   OH246714   3.857   2.095  16.772  0.3840 -0.4579 -0.0611
 8408TIP3    H146715   3.827   2.045  16.848 -1.2521 -0.5741 -0.7461
 8408TIP3    H246716   3.901   2.171  16.809  0.0529 -0.7722  1.0054
 8409TIP3   OH246717   0.958   2.916  11.921  0.0971  0.0613 -0.0130
 8409TIP3    H146718   0.984   2.976  11.992  2.1316 -0.2425 -0.4423
 8409TIP3    H246719   0.944   2.973  11.846  2.4888  0.0411 -0.5461
 8410TIP3   OH246720   4.584   0.285   3.050  0.4819 -0.3444  0.0946
 8410TIP3    H146721   4.533   0.206   3.067 -0.3343 -0.2935 -1.8744
 8410TIP3    H246722   4.654   0.257   2.990  0.5161  0.3164 -0.1890
 8411TIP3   OH246723   5.018   3.315  12.353  0.4179 -0.1640  0.3815
 8411TIP3    H146724   5.099   3.266  12.339  0.5177  0.0508  0.2087
 8411TIP3    H246725   5.037   3.370  12.429  1.3477  1.8335 -1.2198
 8412TIP3   OH246726   6.805   6.684  11.434  0.6337 -0.0133 -0.1274
 8412TIP3    H146727   6.833   6.629  11.507  2.3149  1.0051  0.0433
 8412TIP3    H246728   6.834   6.772  11.458 -1.4200  0.8676 -0.6882
 8413TIP3   OH246729   2.002   2.923  15.746  0.2571 -0.4702 -0.1188
 8413TIP3    H146730   2.030   2.975  15.670 -0.4703  0.8169  0.4663
 8413TIP3    H246731   1.921   2.882  15.718 -1.0748  1.5577  0.5505
 8414TIP3   OH246732   4.692   3.735  16.361 -0.0167 -0.2767 -0.1353
 8414TIP3    H146733   4.693   3.641  16.380  1.2805 -0.5723 -1.4745
 8414TIP3    H246734   4.613   3.748  16.308  0.4047 -0.8475 -0.9264
 8415TIP3   OH246735   2.681   4.290   4.374 -0.1191 -0.4017 -0.0699
 8415TIP3    H146736   2.597   4.253   4.347 -0.3423  0.7137 -0.9885
 8415TIP3    H246737   2.723   4.316   4.292  0.8123 -0.2919  0.4312
 8416TIP3   OH246738   5.113   0.314  13.944 -0.8306 -0.2679 -0.3545
 8416TIP3    H146739   5.193   0.341  13.898 -0.3538 -1.5542 -0.3337
 8416TIP3    H246740   5.044   0.369  13.907  0.1655  1.4377  0.1854
 8417TIP3   OH246741   6.803   5.857  13.099 -0.1185  0.3119 -0.0283
 8417TIP3    H146742   6.802   5.952  13.107  0.9483  0.3170  0.2353
 8417TIP3    H246743   6.858   5.827  13.171 -0.4149 -0.5025 -0.1284
 8418TIP3   OH246744   3.414   1.617  11.049 -0.1091  0.3000 -0.7290
 8418TIP3    H146745   3.497   1.569  11.053  0.5741  1.3730 -1.3066
 8418TIP3    H246746   3.375   1.590  10.966 -1.2227 -1.5292  0.3238
 8419TIP3   OH246747   2.223   5.439  16.971  0.1071 -0.4107  0.7741
 8419TIP3    H146748   2.128   5.432  16.961  0.0363  1.4082 -0.3394
 8419TIP3    H246749   2.248   5.513  16.915  2.4227 -1.9204 -0.3713
 8420TIP3   OH246750   2.677   1.465  15.205 -0.4926  0.2810  0.0608
 8420TIP3    H146751   2.581   1.468  15.206 -0.5490 -0.9426  0.2666
 8420TIP3    H246752   2.700   1.425  15.289  0.0638 -1.6593 -0.9473
 8421TIP3   OH246753   3.895   2.539   3.616  0.3041 -0.5284 -0.2702
 8421TIP3    H146754   3.829   2.583   3.563  2.3423  0.7182 -1.9327
 8421TIP3    H246755   3.925   2.607   3.677 -1.1779 -1.6203  1.8232
 8422TIP3   OH246756   2.965   1.656  14.801  0.2020 -0.1317  0.3705
 8422TIP3    H146757   3.045   1.605  14.813  1.3864  1.5821  0.1806
 8422TIP3    H246758   2.902   1.617  14.861  1.4860 -0.9220  1.2538
 8423TIP3   OH246759   2.784   2.782  15.619  0.0373  0.1207  0.4852
 8423TIP3    H146760   2.835   2.702  15.608 -0.5677 -0.1754 -0.2335
 8423TIP3    H246761   2.848   2.847  15.648  0.4541 -0.7197  1.5155
 8424TIP3   OH246762   6.573   2.813   1.338 -0.2383 -0.8015  0.7389
 8424TIP3    H146763   6.492   2.801   1.387 -1.8896 -1.1813 -1.9129
 8424TIP3    H246764   6.587   2.907   1.337  0.3786 -0.8276  2.6602
 8425TIP3   OH246765   1.602   6.683  12.916  0.1009  0.1486  0.5602
 8425TIP3    H146766   1.535   6.749  12.899  0.1005 -0.0736 -0.3281
 8425TIP3    H246767   1.642   6.710  12.999  2.1369  3.0055 -1.1618
 8426TIP3   OH246768   3.539   3.156  12.373  0.6856  0.3301 -0.1011
 8426TIP3    H146769   3.588   3.199  12.303 -1.2821  1.7910 -0.7035
 8426TIP3    H246770   3.479   3.097  12.327 -0.4761  1.1489  0.2955
 8427TIP3   OH246771   3.960   3.842  15.798 -0.4833  0.2395 -0.2714
 8427TIP3    H146772   3.892   3.776  15.803 -1.3888  1.1792  0.2424
 8427TIP3    H246773   4.036   3.802  15.841 -1.2637 -0.1723  0.7583
 8428TIP3   OH246774   3.313   0.078  15.824  0.1525  0.2990  0.6543
 8428TIP3    H146775   3.326   0.004  15.765 -1.0899 -0.6321  1.4895
 8428TIP3    H246776   3.400   0.098  15.858  0.8684  0.7752 -1.3520
 8429TIP3   OH246777   5.533   0.065   3.714  0.0132  0.5097  0.0024
 8429TIP3    H146778   5.566   0.091   3.800 -0.5212 -0.7627  0.6144
 8429TIP3    H246779   5.602   0.090   3.653 -0.5461  3.5679  0.4581
 8430TIP3   OH246780   4.454   2.475   3.734  0.1499  0.0952  0.0717
 8430TIP3    H146781   4.513   2.534   3.687 -0.3594  0.3637 -0.2381
 8430TIP3    H246782   4.369   2.519   3.731 -0.4157 -1.0197 -0.8497
 8431TIP3   OH246783   4.259   5.538  13.725 -0.1989  0.2041 -0.2225
 8431TIP3    H146784   4.286   5.578  13.642  0.9672 -0.3989 -0.1546
 8431TIP3    H246785   4.209   5.606  13.770 -1.0996  0.4470 -1.5313
 8432TIP3   OH246786   5.043   3.755   4.142  0.9574 -0.7580 -0.2646
 8432TIP3    H146787   4.971   3.796   4.094  1.1591 -0.0211  0.0577
 8432TIP3    H246788   5.118   3.813   4.129  1.1687 -0.8619  0.4501
 8433TIP3   OH246789   5.744   4.033  16.905  0.0092  0.4574  0.0602
 8433TIP3    H146790   5.694   4.076  16.975  0.8073  0.2297  0.8031
 8433TIP3    H246791   5.823   4.087  16.896 -0.1807  0.5954 -0.8170
 8434TIP3   OH246792   0.005   1.681  13.150  0.3039 -0.6680 -0.0801
 8434TIP3    H146793  -0.028   1.709  13.236 -0.7778 -0.1858 -0.6383
 8434TIP3    H246794   0.088   1.727  13.140  0.7506 -1.2027  0.9648
 8435TIP3   OH246795   2.699   2.735  12.043 -0.2886  0.3091  0.1432
 8435TIP3    H146796   2.699   2.714  12.136 -2.0134 -0.3712  0.0285
 8435TIP3    H246797   2.782   2.700  12.010  1.2584  2.2650  1.7247
 8436TIP3   OH246798   0.321   1.416  13.762  0.5255  0.0326  0.1768
 8436TIP3    H146799   0.358   1.497  13.725  2.7496 -1.6760 -1.6205
 8436TIP3    H246800   0.293   1.366  13.686 -2.5002 -0.2572  1.3445
 8437TIP3   OH246801   1.047   1.296   1.506 -0.1985  0.0829  0.3865
 8437TIP3    H146802   0.997   1.298   1.424 -0.6197  2.1406  0.6412
 8437TIP3    H246803   1.124   1.243   1.485 -0.4803  0.2484 -1.2289
 8438TIP3   OH246804   1.400   3.894  10.461 -0.5044  0.2912  0.4491
 8438TIP3    H146805   1.432   3.804  10.461  1.7473  1.0261  0.3917
 8438TIP3    H246806   1.415   3.925  10.372 -0.8401  0.8436  0.5780
 8439TIP3   OH246807   0.534   1.364   1.418 -0.0866  0.1619 -0.2194
 8439TIP3    H146808   0.468   1.386   1.484 -0.4590  1.2566 -0.9433
 8439TIP3    H246809   0.611   1.414   1.444  0.5920 -1.3246  0.7826
 8440TIP3   OH246810   3.133   5.897  16.002 -0.4832  0.3000  0.0456
 8440TIP3    H146811   3.127   5.832  16.073  0.1307  0.1906  0.0029
 8440TIP3    H246812   3.179   5.851  15.932 -2.0381  0.0546 -0.8522
 8441TIP3   OH246813   0.089   4.866   1.697 -0.1304  0.3375  0.1766
 8441TIP3    H146814   0.104   4.872   1.791 -0.6891  0.6242  0.2522
 8441TIP3    H246815   0.123   4.781   1.672 -1.9710 -0.7147  1.0350
 8442TIP3   OH246816   5.406   4.635   1.472 -0.4068  0.0807  0.2648
 8442TIP3    H146817   5.326   4.684   1.451 -1.8469 -2.1297  0.3274
 8442TIP3    H246818   5.433   4.597   1.389 -1.0072 -1.3638  0.6957
 8443TIP3   OH246819   4.432   6.821  15.190  0.2154  0.0210 -0.5511
 8443TIP3    H146820   4.386   6.885  15.136 -1.0653 -0.6639 -0.3089
 8443TIP3    H246821   4.447   6.865  15.273  1.6451  0.8670 -1.2196
 8444TIP3   OH246822   2.726   4.286   3.057 -0.0703 -0.1973 -0.5800
 8444TIP3    H146823   2.701   4.249   2.973  1.0605 -0.6445 -0.7478
 8444TIP3    H246824   2.644   4.313   3.098 -0.7869 -1.5159 -1.0985
 8445TIP3   OH246825   1.600   2.410   6.521  0.2157  0.3201 -0.4437
 8445TIP3    H146826   1.665   2.433   6.587  1.3032  0.0732 -1.3894
 8445TIP3    H246827   1.618   2.319   6.500 -1.6428 -0.3350  0.5758
 8446TIP3   OH246828   3.141   4.391   1.057 -0.1914 -0.6107  0.3536
 8446TIP3    H146829   3.061   4.408   1.107 -1.0791 -1.5735 -0.6927
 8446TIP3    H246830   3.111   4.369   0.969  1.3322  0.8187 -0.5848
 8447TIP3   OH246831   3.737   6.701  16.329  0.2199  0.3520 -0.1235
 8447TIP3    H146832   3.666   6.760  16.304 -0.0401  1.0216  1.9909
 8447TIP3    H246833   3.694   6.626  16.369  0.6503 -0.1225 -0.5356
 8448TIP3   OH246834   3.699   2.514   3.073  0.4630  0.0379  0.5345
 8448TIP3    H146835   3.779   2.545   3.115  0.3401  1.0356  0.0767
 8448TIP3    H246836   3.712   2.533   2.980  0.6744 -2.0002  0.0967
 8449TIP3   OH246837   0.217   2.810  14.355 -0.1280 -0.3783  0.0987
 8449TIP3    H146838   0.309   2.782  14.351  0.0786  0.1989  0.7514
 8449TIP3    H246839   0.219   2.903  14.334 -0.5037 -0.2473  0.6203
 8450TIP3   OH246840   6.543   4.035  16.113 -0.1658  0.1791  0.1800
 8450TIP3    H146841   6.581   4.073  16.193  0.2856 -0.0284  0.0667
 8450TIP3    H246842   6.537   3.941  16.132 -1.1282  0.2724  0.3998
 8451TIP3   OH246843   2.597   0.533  12.238 -0.7347  0.3498  0.0485
 8451TIP3    H146844   2.534   0.601  12.259 -1.2709  0.5340 -1.9166
 8451TIP3    H246845   2.669   0.579  12.193 -0.3605 -0.1748  0.0961
 8452TIP3   OH246846   6.550   1.215   0.530 -0.1883  0.1556  0.4310
 8452TIP3    H146847   6.553   1.244   0.439 -0.8751 -0.2936  0.2566
 8452TIP3    H246848   6.582   1.125   0.527 -1.7649 -0.4316  0.3721
 8453TIP3   OH246849   2.789   4.890   5.203 -0.8346  0.4298 -0.3446
 8453TIP3    H146850   2.838   4.926   5.277 -0.7856  0.3621 -0.3440
 8453TIP3    H246851   2.758   4.805   5.235 -0.6148  0.2972 -0.4841
 8454TIP3   OH246852   1.828   2.525   3.020  0.0823  0.0693  0.1507
 8454TIP3    H146853   1.914   2.544   3.057  0.4569 -1.5302  0.1689
 8454TIP3    H246854   1.817   2.431   3.031 -2.6744  0.4974  2.2585
 8455TIP3   OH246855   6.020   6.392   4.892 -0.0782 -0.5283 -0.4430
 8455TIP3    H146856   5.992   6.474   4.852  1.1652 -0.7128 -1.7963
 8455TIP3    H246857   6.090   6.416   4.951  0.7686 -0.6670 -1.3698
 8456TIP3   OH246858   1.511   6.666  16.061  0.8010  0.4645 -0.1452
 8456TIP3    H146859   1.448   6.617  16.007 -0.1233  0.4149  0.9332
 8456TIP3    H246860   1.589   6.611  16.062  0.9415  0.6036 -1.6543
 8457TIP3   OH246861   3.141   3.821  13.378  0.1386 -0.1023 -0.3544
 8457TIP3    H146862   3.104   3.736  13.353 -0.1971 -0.7317  2.0078
 8457TIP3    H246863   3.223   3.827  13.329  0.9240 -2.5220  0.5002
 8458TIP3   OH246864   3.629   6.738   0.853  0.0257 -0.0763  0.0486
 8458TIP3    H146865   3.590   6.825   0.867  0.2476  0.1750 -0.8171
 8458TIP3    H246866   3.688   6.726   0.927  0.1494  0.6180  0.0722
 8459TIP3   OH246867   4.309   2.778  11.731  0.7473  0.2592 -0.2910
 8459TIP3    H146868   4.393   2.743  11.702 -0.0910 -1.9962 -0.1517
 8459TIP3    H246869   4.247   2.706  11.719 -0.9132  1.4035  0.9238
 8460TIP3   OH246870   6.260   0.017   4.406  0.6410 -0.1897  0.1080
 8460TIP3    H146871   6.253  -0.078   4.396  1.0888 -0.4150  1.6705
 8460TIP3    H246872   6.271   0.049   4.317 -0.8861 -1.4671 -0.5961
 8461TIP3   OH246873   4.358   2.846   1.606 -0.6671 -0.1648  0.9993
 8461TIP3    H146874   4.347   2.856   1.512  3.2629  1.4694  0.5125
 8461TIP3    H246875   4.375   2.753   1.619  2.7988  0.0672 -0.6797
 8462TIP3   OH246876   1.563   3.699  10.715  0.2108  0.1944  0.1010
 8462TIP3    H146877   1.599   3.707  10.627 -1.6988  0.3823 -0.7168
 8462TIP3    H246878   1.468   3.702  10.702 -0.1410 -0.8975  2.0577
 8463TIP3   OH246879   6.527   0.969  14.553  0.0767 -0.1568 -0.0987
 8463TIP3    H146880   6.506   1.062  14.558 -0.6006 -0.3809  2.0339
 8463TIP3    H246881   6.556   0.956  14.462  1.4295  2.3727 -0.1298
 8464TIP3   OH246882   1.777   2.823  16.176  0.5132 -0.2135 -0.2833
 8464TIP3    H146883   1.866   2.788  16.178  0.2672 -0.9894 -1.9340
 8464TIP3    H246884   1.724   2.758  16.223  0.9117  0.6388  1.4124
 8465TIP3   OH246885   2.478   6.464   1.447 -0.4296  0.5492 -0.4139
 8465TIP3    H146886   2.479   6.493   1.538 -0.5033  2.0213 -0.8654
 8465TIP3    H246887   2.514   6.375   1.450  1.2415  1.2245  0.8244
 8466TIP3   OH246888   2.561   4.467  14.200 -0.2307 -0.2621 -0.4439
 8466TIP3    H146889   2.498   4.522  14.152 -2.3182 -2.7534 -0.8113
 8466TIP3    H246890   2.518   4.450  14.284  0.7019 -0.7658 -0.0627
 8467TIP3   OH246891   2.290   4.937   3.661  0.1958 -0.4363 -0.1527
 8467TIP3    H146892   2.324   4.936   3.750  0.4258 -1.2133 -0.2400
 8467TIP3    H246893   2.319   4.854   3.623 -2.8262 -1.8063  0.1937
 8468TIP3   OH246894   0.282   4.562  17.059  0.0475 -0.2209  0.0605
 8468TIP3    H146895   0.355   4.523  17.009  1.8213  2.1290  0.6308
 8468TIP3    H246896   0.248   4.630  17.002  0.0355  0.4304  0.8327
 8469TIP3   OH246897   4.730   0.466   0.910 -0.1155 -0.4699  0.9151
 8469TIP3    H146898   4.773   0.509   0.983  3.3179  1.6481 -1.9919
 8469TIP3    H246899   4.670   0.532   0.875 -0.8689 -1.0494  1.0724
 8470TIP3   OH246900   5.277   4.338   4.660 -0.4882 -0.2264  0.0873
 8470TIP3    H146901   5.290   4.405   4.593  0.3804  1.0793  1.4872
 8470TIP3    H246902   5.253   4.388   4.739 -1.9912 -1.7412  0.6538
 8471TIP3   OH246903   2.299   4.414   0.991  0.3607  0.2175  0.3881
 8471TIP3    H146904   2.374   4.443   1.042  1.1041  1.5536 -1.3453
 8471TIP3    H246905   2.223   4.433   1.046  0.8557  4.7240 -0.1017
 8472TIP3   OH246906   3.009   0.900   6.153 -0.5385  0.5637  0.0369
 8472TIP3    H146907   3.073   0.962   6.118 -0.0372 -0.0287 -0.0956
 8472TIP3    H246908   2.960   0.951   6.219 -1.0793  1.5021 -1.0560
 8473TIP3   OH246909   5.633   5.581  17.026  0.4936  0.6011 -0.0538
 8473TIP3    H146910   5.599   5.671  17.023  0.8623  0.7083 -1.7025
 8473TIP3    H246911   5.699   5.584  17.095  0.8795  1.7471 -0.4371
 8474TIP3   OH246912   6.655   2.061  11.359 -0.6405 -0.0710  0.7461
 8474TIP3    H146913   6.649   1.996  11.429  1.1585  0.1439  1.1566
 8474TIP3    H246914   6.740   2.103  11.372 -0.3959  0.2283 -1.3490
 8475TIP3   OH246915   4.264   4.329   1.694 -0.4862 -0.1675  0.0523
 8475TIP3    H146916   4.212   4.273   1.636 -0.4955  0.1690 -0.2730
 8475TIP3    H246917   4.251   4.418   1.659  0.0201 -0.0372  0.1786
 8476TIP3   OH246918   6.636   1.379  13.411  0.3878  0.3757 -0.2750
 8476TIP3    H146919   6.574   1.424  13.469 -0.0357 -1.7292  1.0067
 8476TIP3    H246920   6.722   1.407  13.442  0.1303  1.1780 -0.2582
 8477TIP3   OH246921   4.142   2.179   5.182 -0.2976 -0.0077 -0.0270
 8477TIP3    H146922   4.144   2.084   5.171 -0.4559  0.0641 -0.6918
 8477TIP3    H246923   4.191   2.194   5.263  0.7701 -0.5657 -0.5406
 8478TIP3   OH246924   2.649   2.364  12.889  0.3793 -0.2566 -0.2583
 8478TIP3    H146925   2.691   2.426  12.830  0.2264  0.4249  0.3352
 8478TIP3    H246926   2.573   2.332  12.840 -1.4406  2.4660  0.5306
 8479TIP3   OH246927   6.458   1.800  12.446  0.9157  0.4462  0.6112
 8479TIP3    H146928   6.426   1.733  12.507  0.0125 -0.8902 -1.2070
 8479TIP3    H246929   6.546   1.771  12.422  0.2517 -0.5677 -0.7345
 8480TIP3   OH246930   4.040   4.390  15.703  0.4392  0.4129 -0.9349
 8480TIP3    H146931   4.102   4.317  15.706  1.3394  1.1676  1.8411
 8480TIP3    H246932   3.954   4.348  15.713  0.8805 -0.3431 -0.1375
 8481TIP3   OH246933   3.689   6.289   2.183  0.7768 -0.3718  0.2593
 8481TIP3    H146934   3.636   6.366   2.164 -0.2106 -0.8139  1.1028
 8481TIP3    H246935   3.652   6.220   2.128 -0.5926 -1.0764  1.9793
 8482TIP3   OH246936   0.706   0.340  16.275 -0.1381  0.1082 -0.2812
 8482TIP3    H146937   0.699   0.351  16.180 -0.2755  0.8253 -0.1925
 8482TIP3    H246938   0.653   0.411  16.311  0.3801  0.1875  0.3340
 8483TIP3   OH246939   1.064   3.989  16.982  0.1508 -0.1793 -0.0432
 8483TIP3    H146940   1.154   3.975  16.953  0.6137  2.5147 -0.1314
 8483TIP3    H246941   1.066   4.074  17.027 -2.2652 -0.2438  0.3057
 8484TIP3   OH246942   0.292   0.429   1.239 -0.2207  0.2510 -0.0466
 8484TIP3    H146943   0.275   0.487   1.314  0.5426 -0.0650  0.3920
 8484TIP3    H246944   0.386   0.440   1.222  0.1533 -1.5008  0.6317
 8485TIP3   OH246945   0.422   5.813  13.433 -0.6297  0.1373 -0.4918
 8485TIP3    H146946   0.506   5.858  13.424  0.4009 -1.7928 -1.0169
 8485TIP3    H246947   0.392   5.802  13.343 -2.6133  2.7434 -0.2704
 8486TIP3   OH246948   6.135   0.116  14.335 -0.3681 -0.0612  0.4711
 8486TIP3    H146949   6.097   0.202  14.321  0.0317  0.3810  1.8991
 8486TIP3    H246950   6.218   0.133  14.380  0.4904 -1.1190 -0.6454
 8487TIP3   OH246951   0.490   0.622  14.499 -0.0763  0.3881  0.4082
 8487TIP3    H146952   0.570   0.666  14.471  1.0662 -2.0744 -0.5502
 8487TIP3    H246953   0.452   0.588  14.418 -0.8342 -0.4298  1.0807
 8488TIP3   OH246954   2.054   2.381   1.570  0.3276 -0.3617 -0.3023
 8488TIP3    H146955   1.969   2.399   1.530  0.6950 -2.5084 -2.2938
 8488TIP3    H246956   2.033   2.343   1.656 -0.6228  0.7327 -0.0244
 8489TIP3   OH246957   5.808   5.331  16.828  0.4535  0.3651 -0.2210
 8489TIP3    H146958   5.856   5.381  16.761  1.6759  1.2376  1.2297
 8489TIP3    H246959   5.716   5.346  16.807  0.7761 -0.0368 -2.1452
 8490TIP3   OH246960   1.085   2.790   5.560  0.6282  0.0210 -0.2101
 8490TIP3    H146961   1.022   2.721   5.580 -0.8408  1.1954 -0.6816
 8490TIP3    H246962   1.162   2.768   5.613 -0.5939 -0.7896  1.2977
 8491TIP3   OH246963   3.831   2.694   0.345  0.0989 -0.2282 -0.2461
 8491TIP3    H146964   3.906   2.751   0.361 -1.0111  1.4845 -0.9274
 8491TIP3    H246965   3.865   2.627   0.285  1.5438 -0.6125  0.9354
 8492TIP3   OH246966   3.376   2.705   1.966 -0.1998  0.1348  0.2052
 8492TIP3    H146967   3.424   2.766   1.909 -0.9097  0.1534 -0.3939
 8492TIP3    H246968   3.439   2.636   1.985  0.6717  1.1171  1.0157
 8493TIP3   OH246969   6.624   6.198  15.073  0.2541 -0.5821 -0.5675
 8493TIP3    H146970   6.606   6.228  14.984 -3.1761  1.1234  0.5352
 8493TIP3    H246971   6.657   6.276  15.117  1.2840 -1.2449 -0.1409
 8494TIP3   OH246972   2.331   2.123  10.332 -0.6818  0.5284 -0.7323
 8494TIP3    H146973   2.373   2.209  10.341  1.9866 -0.7058 -0.3281
 8494TIP3    H246974   2.327   2.089  10.421 -1.9705  0.3025 -0.8579
 8495TIP3   OH246975   2.960   2.966  12.190 -0.4226 -0.0951  0.4691
 8495TIP3    H146976   2.890   3.030  12.200 -0.6913 -0.5955  1.9729
 8495TIP3    H246977   2.947   2.904  12.261  0.6636 -1.0497 -0.1244
 8496TIP3   OH246978   2.541   6.537  16.569 -0.4902  0.0755 -0.0063
 8496TIP3    H146979   2.525   6.628  16.591 -0.0551  0.6079 -1.7452
 8496TIP3    H246980   2.456   6.503  16.542 -0.5005  0.1713 -0.0899
 8497TIP3   OH246981   5.588   3.913  15.429  0.1929  0.3974  0.7465
 8497TIP3    H146982   5.547   3.931  15.513 -3.2523 -4.5969  0.5611
 8497TIP3    H246983   5.632   3.829  15.440  3.5100  1.5941 -1.4710
 8498TIP3   OH246984   4.146   2.856   2.701 -0.2194  0.5753  0.0426
 8498TIP3    H146985   4.051   2.851   2.712 -0.1004  0.0487  0.8745
 8498TIP3    H246986   4.177   2.767   2.715  0.3302  0.5782 -1.0400
 8499TIP3   OH246987   4.262   4.620   5.924 -0.4728 -0.3806  0.1751
 8499TIP3    H146988   4.195   4.574   5.873  1.0893 -0.0797 -2.3091
 8499TIP3    H246989   4.250   4.712   5.903  0.2791 -0.2639  0.2091
 8500TIP3   OH246990   0.295   4.884   1.343 -0.1104 -0.6161  0.2626
 8500TIP3    H146991   0.298   4.862   1.250  0.5216 -0.3899  0.2244
 8500TIP3    H246992   0.279   4.800   1.386  0.0247 -0.7929 -0.0262
 8501TIP3   OH246993   5.104   3.036  16.065 -0.0380  0.2265 -0.3481
 8501TIP3    H146994   5.112   2.947  16.098 -2.5207  0.8117  2.2000
 8501TIP3    H246995   5.165   3.087  16.119 -0.7398  0.4753  0.2290
 8502TIP3   OH246996   4.795   5.683   4.020 -0.2944  0.2962  0.3913
 8502TIP3    H146997   4.723   5.727   4.065  0.9825  0.2259  2.7122
 8502TIP3    H246998   4.834   5.751   3.965  0.0946  1.4149  1.9756
 8503TIP3   OH246999   6.219   2.200   0.164  0.1754  0.3383 -0.6332
 8503TIP3    H147000   6.203   2.292   0.183 -0.9740  0.1435 -0.6124
 8503TIP3    H247001   6.314   2.195   0.152  0.2561  1.5213 -0.6542
 8504TIP3   OH247002   1.202   5.164  12.214  0.3447  0.6809 -0.0199
 8504TIP3    H147003   1.121   5.134  12.255  0.6519 -1.5614 -0.9058
 8504TIP3    H247004   1.266   5.165  12.285  0.8120 -2.9275 -0.2191
 8505TIP3   OH247005   1.972   5.809  12.455 -0.0136  0.7165 -0.0390
 8505TIP3    H147006   1.941   5.721  12.474  1.4411  0.6446  2.3784
 8505TIP3    H247007   1.944   5.862  12.530 -0.4085  2.2238 -1.1959
 8506TIP3   OH247008   1.722   1.312   3.119 -0.7799  0.0699 -0.4425
 8506TIP3    H147009   1.789   1.265   3.168  0.2326  0.9472 -0.9313
 8506TIP3    H247010   1.690   1.249   3.054 -1.0973 -0.6356  0.3788
 8507TIP3   OH247011   3.181   2.263   3.939 -0.2953 -0.3135  0.6422
 8507TIP3    H147012   3.242   2.190   3.923  0.2786 -0.0089  1.4246
 8507TIP3    H247013   3.182   2.275   4.034  0.1471  1.1718  0.4691
 8508TIP3   OH247014   3.841   2.632  12.671 -0.8273  0.2031 -0.4366
 8508TIP3    H147015   3.900   2.560  12.646 -1.9784 -1.2290  0.7589
 8508TIP3    H247016   3.890   2.679  12.739 -1.3368 -1.5318  1.2217
 8509TIP3   OH247017   0.662   6.651  12.522  0.1527 -0.5024  0.0328
 8509TIP3    H147018   0.752   6.658  12.489  0.4629  0.5997  1.0143
 8509TIP3    H247019   0.671   6.614  12.609 -0.0784  1.7351  1.0763
 8510TIP3   OH247020   0.290   1.934   4.328 -0.1648 -0.0982 -0.2343
 8510TIP3    H147021   0.343   1.901   4.401 -2.3858 -0.4843  1.3160
 8510TIP3    H247022   0.329   2.018   4.305  1.6604 -0.7933  0.1644
 8511TIP3   OH247023   3.064   2.447  13.750  0.3360  0.6364  0.4967
 8511TIP3    H147024   3.057   2.479  13.839  0.2995  1.7895  0.1004
 8511TIP3    H247025   3.151   2.476  13.721  0.7158 -0.5041  0.4382
 8512TIP3   OH247026   0.774   1.474   0.475 -0.1103 -0.0822 -0.1443
 8512TIP3    H147027   0.726   1.478   0.392 -0.8618  2.2980  0.3152
 8512TIP3    H247028   0.713   1.432   0.536 -0.4648  0.2316 -0.2772
 8513TIP3   OH247029   1.919   1.390   0.023  0.0052 -0.0690  0.0192
 8513TIP3    H147030   1.913   1.312  -0.033 -0.0531  0.4522 -0.7101
 8513TIP3    H247031   1.859   1.371   0.095 -0.7002 -0.3246 -0.6184
 8514TIP3   OH247032   4.516   5.469   5.565 -0.0457  0.1232  0.2916
 8514TIP3    H147033   4.485   5.403   5.628  0.0082  1.2971  1.6045
 8514TIP3    H247034   4.605   5.441   5.543 -0.0943 -0.3530  0.6818
 8515TIP3   OH247035   4.277   1.028  11.576  0.1389 -0.3585  0.0491
 8515TIP3    H147036   4.289   1.005  11.484  1.8986  2.2298 -0.4962
 8515TIP3    H247037   4.208   1.094  11.575  1.1338  0.7426  0.3048
 8516TIP3   OH247038   4.408   3.609  15.559  0.6744  0.1032  0.8306
 8516TIP3    H147039   4.478   3.672  15.539  0.8560 -0.8831 -2.1429
 8516TIP3    H247040   4.330   3.647  15.519  0.4902 -0.8783  0.2326
 8517TIP3   OH247041   2.507   5.723   1.144  0.1777 -0.2137  0.1310
 8517TIP3    H147042   2.507   5.782   1.219 -0.0738 -0.5587  0.4089
 8517TIP3    H247043   2.434   5.663   1.161 -0.8367  0.6055 -1.1126
 8518TIP3   OH247044   5.148   4.983  15.445  0.3215 -0.5292 -0.3479
 8518TIP3    H147045   5.236   5.020  15.437 -0.2841  0.9063 -0.5131
 8518TIP3    H247046   5.091   5.058  15.460 -0.7158 -1.5743  1.2376
 8519TIP3   OH247047   5.904   3.762  13.289 -0.1502 -0.1984 -0.2248
 8519TIP3    H147048   5.958   3.802  13.221  0.1655 -1.7835 -0.9408
 8519TIP3    H247049   5.881   3.835  13.347  0.8627  0.9043 -1.1592
 8520TIP3   OH247050   2.216   6.320  15.830 -0.2740 -0.0508  0.0449
 8520TIP3    H147051   2.160   6.395  15.808 -0.7400  0.1113  1.7083
 8520TIP3    H247052   2.305   6.354  15.823 -0.3960  0.0862 -1.1823
 8521TIP3   OH247053   0.551   5.483   3.257 -0.0132  0.2588  0.5030
 8521TIP3    H147054   0.544   5.577   3.246 -0.5176  0.5335  2.6803
 8521TIP3    H247055   0.619   5.472   3.324  1.8748 -1.0928 -1.5013
 8522TIP3   OH247056   0.752   4.016   1.896  0.2856 -0.2081  0.3102
 8522TIP3    H147057   0.784   4.047   1.811  2.7442 -1.7822  0.5758
 8522TIP3    H247058   0.657   4.027   1.890  0.5040  1.3639 -1.9449
 8523TIP3   OH247059   1.439   2.276  15.595 -0.4563  0.1058  0.4081
 8523TIP3    H147060   1.470   2.347  15.651 -2.8558  1.7325 -0.1597
 8523TIP3    H247061   1.489   2.285  15.514 -0.8595  1.3144  0.2750
 8524TIP3   OH247062   4.851   4.529  16.479 -0.6599  0.3482 -0.0610
 8524TIP3    H147063   4.820   4.460  16.538  1.1000 -0.9598 -0.5654
 8524TIP3    H247064   4.883   4.598  16.537 -0.5931 -0.1471  0.5067
 8525TIP3   OH247065   3.609   6.411  11.614 -0.4620 -0.5025  0.0331
 8525TIP3    H147066   3.656   6.485  11.576 -0.6136 -0.7538 -0.6731
 8525TIP3    H247067   3.568   6.368  11.538  2.7363 -3.5706 -0.2245
 8526TIP3   OH247068   1.957   3.223   1.441  0.5825  0.9592 -0.5630
 8526TIP3    H147069   1.914   3.138   1.445 -0.5511  1.5462  0.4682
 8526TIP3    H247070   2.005   3.222   1.358 -0.5529 -0.1483 -1.2413
 8527TIP3   OH247071   6.630   0.899  13.532  0.0091 -0.4500  0.0379
 8527TIP3    H147072   6.621   0.898  13.437  0.1620  0.7828 -0.0082
 8527TIP3    H247073   6.546   0.867  13.564 -0.2333 -0.3757 -0.5108
 8528TIP3   OH247074   0.717   0.785  12.323 -0.6821  0.4091 -0.1681
 8528TIP3    H147075   0.786   0.768  12.387 -0.0652 -1.5067 -1.2751
 8528TIP3    H247076   0.716   0.707  12.267 -1.7695  1.6580 -1.9841
 8529TIP3   OH247077   4.620   6.482   3.855  0.0742 -0.3481 -0.1595
 8529TIP3    H147078   4.646   6.463   3.765  2.1552  0.4494  0.2039
 8529TIP3    H247079   4.579   6.568   3.850 -0.2390 -0.5120 -0.4133
 8530TIP3   OH247080   2.052   2.885   4.810 -0.0163  0.1175  0.0577
 8530TIP3    H147081   1.997   2.807   4.821  0.3326 -0.3287 -1.1801
 8530TIP3    H247082   2.053   2.926   4.896 -2.0324 -0.0236  0.2049
 8531TIP3   OH247083   0.585   4.376  16.425 -0.0061 -0.3127 -0.0782
 8531TIP3    H147084   0.500   4.398  16.387 -0.4348  0.6373  1.3440
 8531TIP3    H247085   0.645   4.375  16.351 -0.9047  0.9098 -0.8547
 8532TIP3   OH247086   4.026   1.740   4.330  0.2994  0.3468  0.1292
 8532TIP3    H147087   3.973   1.820   4.330 -0.4742 -0.1276 -0.8702
 8532TIP3    H247088   3.986   1.686   4.398  0.1122  0.3840  0.0523
 8533TIP3   OH247089   4.875   4.611  14.292 -0.6281  0.2071  0.7851
 8533TIP3    H147090   4.863   4.520  14.265 -0.0464  0.9439 -2.3715
 8533TIP3    H247091   4.795   4.655  14.264  0.7166  1.3493 -1.5119
 8534TIP3   OH247092   4.737   4.965   1.689 -0.2846  0.0659 -0.4337
 8534TIP3    H147093   4.784   5.028   1.744  0.6773 -0.2182 -0.8913
 8534TIP3    H247094   4.673   4.924   1.747 -2.0854  2.5777 -0.4770
 8535TIP3   OH247095   2.707   5.502   4.674 -0.1446 -0.0609  0.1996
 8535TIP3    H147096   2.617   5.479   4.653 -0.2467  0.1666  0.3879
 8535TIP3    H247097   2.737   5.433   4.733  0.0522 -0.5505 -0.4556
 8536TIP3   OH247098   0.928   2.499   1.735  0.4314  0.4110 -0.3904
 8536TIP3    H147099   0.987   2.445   1.681  2.8299  1.1904  1.2675
 8536TIP3    H247100   0.892   2.437   1.798  5.1222  0.7339  3.1667
 8537TIP3   OH247101   5.444   4.652  15.912  0.3182  0.2429  0.0129
 8537TIP3    H147102   5.511   4.585  15.923 -0.8927 -2.0147 -4.3649
 8537TIP3    H247103   5.490   4.726  15.873  0.6557 -0.4256 -0.8752
 8538TIP3   OH247104   6.629   2.461   4.488  0.2067  0.5926  0.3153
 8538TIP3    H147105   6.557   2.519   4.466  1.9386  1.9803 -2.2248
 8538TIP3    H247106   6.672   2.503   4.562 -0.5567  0.6600  0.7345
 8539TIP3   OH247107   5.408   1.023   4.820  0.8027  0.2820  0.3746
 8539TIP3    H147108   5.488   0.973   4.801  0.3979  0.7932 -3.4145
 8539TIP3    H247109   5.339   0.976   4.774 -0.9036  0.6947  2.3514
 8540TIP3   OH247110   2.622   2.153  15.031 -0.1184  0.0396  0.0389
 8540TIP3    H147111   2.659   2.195  14.953 -0.1690  3.0593  1.5020
 8540TIP3    H247112   2.534   2.126  15.004  0.2439  0.0618 -1.2464
 8541TIP3   OH247113   3.696   2.501  12.067  0.5438 -0.2575  0.2925
 8541TIP3    H147114   3.725   2.497  11.976  1.4135 -0.0648  0.5529
 8541TIP3    H247115   3.760   2.557  12.111 -0.2161  0.1547  0.8958
 8542TIP3   OH247116   1.738   0.213   3.909  0.5045 -0.0867  0.6718
 8542TIP3    H147117   1.685   0.243   3.835  0.2431 -0.8061  0.5584
 8542TIP3    H247118   1.682   0.227   3.986  0.4055 -0.2343  0.6264
 8543TIP3   OH247119   2.405   1.404   5.324 -0.4806  0.5015  0.5380
 8543TIP3    H147120   2.403   1.469   5.395 -2.1456  0.9082  0.1431
 8543TIP3    H247121   2.375   1.451   5.247 -0.4129 -0.4084 -0.0577
 8544TIP3   OH247122   0.087   1.085   4.494  0.0589 -0.4464  0.3009
 8544TIP3    H147123   0.008   1.067   4.445 -0.4297  1.2342  0.4191
 8544TIP3    H247124   0.063   1.155   4.555  1.1389 -1.1745  1.6458
 8545TIP3   OH247125   4.072   2.154  15.879  0.1834  0.5632 -0.2088
 8545TIP3    H147126   4.081   2.069  15.922  0.0204  0.1580 -0.9774
 8545TIP3    H247127   4.096   2.139  15.788 -0.9288  1.0915 -0.6111
 8546TIP3   OH247128   2.048   5.768  16.381 -0.5433 -0.0463 -0.2125
 8546TIP3    H147129   2.029   5.861  16.374 -1.0086 -0.2099 -1.3576
 8546TIP3    H247130   1.980   5.726  16.329  0.8320 -0.8979 -1.4012
 8547TIP3   OH247131   2.149   0.154  15.294 -0.3348  0.2311  0.2342
 8547TIP3    H147132   2.180   0.124  15.209 -0.4729 -0.3785  0.3897
 8547TIP3    H247133   2.109   0.239  15.277 -0.2636  0.1613 -0.2883
 8548TIP3   OH247134   4.478   1.162   5.616  0.5487 -0.1844  0.1300
 8548TIP3    H147135   4.393   1.188   5.582  0.0779 -1.5801  0.1647
 8548TIP3    H247136   4.534   1.238   5.602 -0.8018  0.9092  0.4989
 8549TIP3   OH247137   3.633   1.277   6.261  0.1377 -0.1242 -0.3612
 8549TIP3    H147138   3.660   1.186   6.275  0.3819 -0.4927 -2.7598
 8549TIP3    H247139   3.564   1.292   6.326  1.6679 -1.2350  1.6309
 8550TIP3   OH247140   3.084   0.504  16.776 -0.0013 -0.1267 -0.1425
 8550TIP3    H147141   3.064   0.424  16.727 -1.0604 -0.1198  0.2483
 8550TIP3    H247142   3.093   0.572  16.709 -1.1688 -0.1682 -0.3667
 8551TIP3   OH247143   2.381   0.238   3.592 -0.8031  0.3319  0.3104
 8551TIP3    H147144   2.454   0.299   3.599 -0.4610 -0.0289 -0.0630
 8551TIP3    H247145   2.370   0.203   3.681  0.0635 -0.2764  0.1923
 8552TIP3   OH247146   0.358   5.438  15.544  0.6111 -0.1136 -0.1333
 8552TIP3    H147147   0.384   5.492  15.469 -2.1077 -1.1632 -2.0031
 8552TIP3    H247148   0.359   5.348  15.511  0.1259 -0.6800  1.3184
 8553TIP3   OH247149   4.447   4.068  11.401  0.5478 -0.0322  0.3579
 8553TIP3    H147150   4.384   4.014  11.450  1.6756 -1.7309  0.0097
 8553TIP3    H247151   4.452   4.027  11.315  1.2988  0.7667  0.0087
 8554TIP3   OH247152   3.321   1.586   4.378 -0.0248  0.2319 -0.0202
 8554TIP3    H147153   3.269   1.647   4.431  0.4040  2.2777 -1.7933
 8554TIP3    H247154   3.391   1.557   4.436  0.5065  2.4921  0.5872
 8555TIP3   OH247155   2.437   3.156  15.978  0.3382  0.1585  0.0575
 8555TIP3    H147156   2.353   3.191  15.947 -0.7400 -2.2658 -0.0235
 8555TIP3    H247157   2.498   3.172  15.907  0.2352  2.7156  0.4428
 8556TIP3   OH247158   6.583   5.645   4.985  0.3360  0.0023 -0.3496
 8556TIP3    H147159   6.501   5.610   5.020  1.0735 -0.1333  1.3699
 8556TIP3    H247160   6.613   5.579   4.922  0.6445 -1.4954  1.2874
 8557TIP3   OH247161   5.855   2.949   2.803 -0.3057  0.0392 -0.0002
 8557TIP3    H147162   5.934   2.929   2.853 -0.8196 -0.6212  0.5654
 8557TIP3    H247163   5.888   2.978   2.717  0.5452 -1.8360 -0.3575
 8558TIP3   OH247164   4.650   0.348   2.413 -0.0499  0.0622 -0.5961
 8558TIP3    H147165   4.679   0.430   2.453 -1.0839 -0.0043  0.3326
 8558TIP3    H247166   4.707   0.337   2.336  1.9052  0.2718  0.7500
 8559TIP3   OH247167   2.692   3.469  13.035 -0.2290 -0.5288  0.1761
 8559TIP3    H147168   2.675   3.561  13.014 -0.0885 -0.8186 -1.2880
 8559TIP3    H247169   2.611   3.424  13.013  0.3283 -1.0188 -0.9516
 8560TIP3   OH247170   4.108   5.159   4.030 -0.6979  0.2952 -0.2312
 8560TIP3    H147171   4.172   5.228   4.012 -0.1322 -0.4559 -1.2433
 8560TIP3    H247172   4.116   5.141   4.123  1.5565 -0.6962 -0.5554
 8561TIP3   OH247173   1.032   3.972  11.335 -0.1947  0.5317 -0.2809
 8561TIP3    H147174   1.076   3.945  11.415  0.4422 -0.8773 -1.0680
 8561TIP3    H247175   0.939   3.963  11.356 -0.0720  1.1570  0.6065
 8562TIP3   OH247176   2.147   3.747   2.072 -1.0413  0.7582  0.5540
 8562TIP3    H147177   2.114   3.709   1.991  0.2204  1.4206 -0.2921
 8562TIP3    H247178   2.144   3.842   2.057 -0.4517  0.8777  1.1359
 8563TIP3   OH247179   1.462   5.966  13.243  0.2221  0.3431  0.4717
 8563TIP3    H147180   1.404   6.024  13.194  1.2905 -0.7218 -2.2831
 8563TIP3    H247181   1.414   5.945  13.323 -2.5116  0.7197 -0.9560
 8564TIP3   OH247182   2.865   5.760   1.484 -0.2747 -0.8536  1.2151
 8564TIP3    H147183   2.774   5.790   1.479 -0.8976 -2.8263 -2.6189
 8564TIP3    H247184   2.914   5.825   1.432  0.4446 -0.2135  2.6392
 8565TIP3   OH247185   1.889   0.705   2.643 -0.9226  0.3580  0.1685
 8565TIP3    H147186   1.917   0.793   2.622  2.4923 -0.6769 -0.2324
 8565TIP3    H247187   1.869   0.665   2.559 -1.1321  0.3551  0.2196
 8566TIP3   OH247188   2.597   2.736   5.622  0.2453 -0.0419  0.3024
 8566TIP3    H147189   2.518   2.700   5.662 -0.0656  0.1847 -0.0895
 8566TIP3    H247190   2.592   2.707   5.530 -0.2075  1.2893 -0.1158
 8567TIP3   OH247191   5.873   1.115   0.769  0.6865 -0.1837 -0.0841
 8567TIP3    H147192   5.817   1.055   0.718  0.3255 -2.0658  2.3652
 8567TIP3    H247193   5.837   1.202   0.750 -0.7158 -0.9969 -1.4362
 8568TIP3   OH247194   2.816   5.105   5.528 -0.1623 -0.8970 -0.7482
 8568TIP3    H147195   2.837   5.198   5.519  1.7910 -0.8129  2.9249
 8568TIP3    H247196   2.725   5.104   5.559  0.0760 -0.1170  0.0199
 8569TIP3   OH247197   3.636   2.878   0.445  0.3871  0.1701 -0.2953
 8569TIP3    H147198   3.715   2.825   0.440  0.7268  0.6420 -0.0402
 8569TIP3    H247199   3.565   2.820   0.417  0.5691 -0.8031  1.1621
 8570TIP3   OH247200   0.585   1.410   5.537  0.7090  0.1936  0.2741
 8570TIP3    H147201   0.587   1.314   5.540 -0.7626  0.1210 -0.1979
 8570TIP3    H247202   0.596   1.430   5.444 -0.0354  0.4332  0.2369
 8571TIP3   OH247203   6.250   1.301  16.242 -0.0285 -0.0179 -0.5514
 8571TIP3    H147204   6.219   1.303  16.332 -1.2303 -0.6297 -0.9300
 8571TIP3    H247205   6.333   1.349  16.244  1.2441 -2.0881  1.3544
 8572TIP3   OH247206   6.463   2.642   0.520  0.0158  0.7241  0.1454
 8572TIP3    H147207   6.474   2.584   0.596  0.5775  0.2200 -0.3104
 8572TIP3    H247208   6.553   2.666   0.495  0.3642 -3.2010 -3.4699
 8573TIP3   OH247209   5.914   0.741  17.070  0.5233 -0.5713  0.6240
 8573TIP3    H147210   5.870   0.775  16.992 -1.6009 -3.0292  0.6159
 8573TIP3    H247211   5.862   0.773  17.143 -0.2402 -1.9686  0.7247
 8574TIP3   OH247212   1.897   1.833   4.225  0.4833  0.1978  0.0688
 8574TIP3    H147213   1.886   1.829   4.320 -0.1234  2.1679  0.1201
 8574TIP3    H247214   1.816   1.796   4.190  0.0507  0.8711  0.3421
 8575TIP3   OH247215   0.849   6.818   0.801  0.5153 -0.9473  0.1029
 8575TIP3    H147216   0.892   6.734   0.783  2.6192  0.1640 -0.3830
 8575TIP3    H247217   0.910   6.864   0.859 -0.0088  0.6994 -0.5863
 8576TIP3   OH247218   0.851   4.113  12.469  0.3245 -0.0192 -0.2425
 8576TIP3    H147219   0.921   4.167  12.505 -0.6489  0.6066  0.7940
 8576TIP3    H247220   0.858   4.030  12.515  0.1765  0.1646  0.1144
 8577TIP3   OH247221   0.877   3.550   3.784 -0.4392 -0.3573  0.3058
 8577TIP3    H147222   0.888   3.597   3.701 -0.5528 -0.4578  0.2334
 8577TIP3    H247223   0.823   3.474   3.762 -0.0264 -0.6701  0.3715
 8578TIP3   OH247224   3.931   3.382  12.370 -0.0386  0.1721 -0.6619
 8578TIP3    H147225   3.927   3.373  12.465  1.3188  2.0261 -0.3663
 8578TIP3    H247226   3.872   3.454  12.350  1.8180  1.7546 -0.8002
 8579TIP3   OH247227   2.886   6.707  15.083 -0.3041 -0.1085 -0.1074
 8579TIP3    H147228   2.833   6.629  15.094  1.4239 -1.0647  2.3657
 8579TIP3    H247229   2.867   6.761  15.160  1.7492 -0.2028  0.5395
 8580TIP3   OH247230   5.100   1.513  15.186  0.4399  0.0857 -0.1999
 8580TIP3    H147231   5.145   1.568  15.250  0.4635  0.1268 -0.2514
 8580TIP3    H247232   5.124   1.423  15.211 -0.8458 -0.0007  0.8381
 8581TIP3   OH247233   0.369   5.131   0.460 -0.4027  0.1729  0.4961
 8581TIP3    H147234   0.382   5.150   0.552 -1.1023  0.8658  0.4641
 8581TIP3    H247235   0.372   5.036   0.454  0.0169  0.1406  1.1707
 8582TIP3   OH247236   2.128   3.611  14.697 -0.5119  0.1716 -0.0031
 8582TIP3    H147237   2.062   3.642  14.634 -1.1739 -0.5155  0.3360
 8582TIP3    H247238   2.194   3.568  14.643  0.0363  1.4671 -0.4114
 8583TIP3   OH247239   2.741   1.542   2.525 -0.2433  0.1789 -0.1419
 8583TIP3    H147240   2.763   1.488   2.601  0.9340 -0.7922 -1.1334
 8583TIP3    H247241   2.701   1.621   2.562  2.2692  0.7178  1.6313
 8584TIP3   OH247242   6.080   3.433  10.355  0.0766  0.6958  0.6946
 8584TIP3    H147243   6.079   3.369  10.285  0.0964 -0.5542  1.8002
 8584TIP3    H247244   6.023   3.503  10.324  0.9206  0.6949 -1.0052
 8585TIP3   OH247245   2.317   6.493  15.098 -1.0396 -0.2886 -0.0282
 8585TIP3    H147246   2.404   6.530  15.083 -1.0825  1.0174  2.3890
 8585TIP3    H247247   2.275   6.495  15.012  0.8247  0.3477 -0.9814
 8586TIP3   OH247248   4.966   5.040   5.409 -0.0217 -0.4648  0.3322
 8586TIP3    H147249   4.936   4.960   5.453  0.2234 -0.9812 -0.4222
 8586TIP3    H247250   4.959   5.108   5.476 -0.6756 -1.0246  0.8460
 8587TIP3   OH247251   0.222   3.751  15.425 -0.4353  0.3362 -0.0511
 8587TIP3    H147252   0.185   3.727  15.510  1.3963  0.2668  0.7774
 8587TIP3    H247253   0.268   3.672  15.397  2.1850  1.4810  0.7515
 8588TIP3   OH247254   1.078   3.694  13.617  0.0214 -0.4456  0.1080
 8588TIP3    H147255   1.055   3.781  13.586 -0.8759 -0.6596  0.1287
 8588TIP3    H247256   1.173   3.691  13.615  0.0542  0.5289  0.1024
 8589TIP3   OH247257   0.906   6.603  11.047 -0.5856  0.0825  0.4340
 8589TIP3    H147258   0.904   6.681  10.990  2.4725 -0.6140 -0.8079
 8589TIP3    H247259   0.870   6.533  10.993  0.8288 -0.2374 -0.1486
 8590TIP3   OH247260   1.458   4.271  11.511 -0.3517  0.0650 -0.5530
 8590TIP3    H147261   1.474   4.347  11.455  0.2305 -0.5145 -1.2015
 8590TIP3    H247262   1.543   4.249  11.548 -0.8527  0.8668  1.1657
 8591TIP3   OH247263   6.344   0.275  11.813 -0.0446 -0.2957 -0.0415
 8591TIP3    H147264   6.351   0.352  11.870  0.7611 -2.0930  2.4330
 8591TIP3    H247265   6.383   0.304  11.730  1.0738  1.6913  1.0908
 8592TIP3   OH247266   5.360   3.926   5.718  0.1083 -0.4422  0.3571
 8592TIP3    H147267   5.443   3.885   5.692  0.4577  1.0758 -1.0931
 8592TIP3    H247268   5.319   3.862   5.776  1.2237 -2.2716 -0.7539
 8593TIP3   OH247269   3.404   4.630   6.375 -0.2867  0.1535  0.0131
 8593TIP3    H147270   3.481   4.622   6.431 -0.3670 -1.3315 -0.0631
 8593TIP3    H247271   3.355   4.549   6.388 -0.2296 -0.3237 -2.3170
 8594TIP3   OH247272   0.005   6.738  11.733  0.5660 -0.4196 -0.5814
 8594TIP3    H147273   0.032   6.819  11.689  2.0522 -1.5706 -1.8994
 8594TIP3    H247274   0.070   6.673  11.706 -1.5809 -2.5269 -1.0591
 8595TIP3   OH247275   1.920   5.776  13.972 -0.9092 -0.3178 -0.5684
 8595TIP3    H147276   1.934   5.735  13.886 -1.5492  0.2693 -0.9644
 8595TIP3    H247277   1.828   5.801  13.972 -0.4518  1.5960 -0.5743
 8596TIP3   OH247278   3.620   0.918  12.893 -0.5034 -0.4383 -0.1989
 8596TIP3    H147279   3.650   0.976  12.963  0.6651 -0.9114 -0.2815
 8596TIP3    H247280   3.565   0.974  12.838 -0.3006  0.3008  0.3274
 8597TIP3   OH247281   1.670   0.408  13.358 -0.2881  0.2034 -0.0782
 8597TIP3    H147282   1.722   0.479  13.321  1.1719 -0.1100  1.2278
 8597TIP3    H247283   1.667   0.342  13.290  2.5840 -0.4903  0.3379
 8598TIP3   OH247284   3.448   3.789  12.453  0.1305 -0.4574 -0.6453
 8598TIP3    H147285   3.543   3.801  12.455 -0.0658  1.2386 -0.3449
 8598TIP3    H247286   3.428   3.748  12.538  0.2649  2.2653  0.8094
 8599TIP3   OH247287   1.507   0.222  10.489 -0.3468  0.2847 -0.0951
 8599TIP3    H147288   1.560   0.223  10.569 -0.1137 -0.4074 -0.2386
 8599TIP3    H247289   1.564   0.256  10.421  0.1336 -1.0531 -0.3788
 8600TIP3   OH247290   5.017   4.972  13.879 -0.5448  0.2674 -0.3266
 8600TIP3    H147291   5.067   5.049  13.850  0.4403  0.0497  0.6971
 8600TIP3    H247292   4.990   4.994  13.968  0.6873 -0.9692  0.3970
 8601TIP3   OH247293   1.956   3.027   0.005  0.2128 -0.3680 -0.0076
 8601TIP3    H147294   1.866   3.034   0.036 -1.2835 -3.0526 -3.0944
 8601TIP3    H247295   1.987   2.943   0.039  1.5176  0.4031  0.8074
 8602TIP3   OH247296   0.650   2.829   2.222 -0.1211  0.1908  0.3079
 8602TIP3    H147297   0.712   2.900   2.243  0.6536 -0.0167 -1.1545
 8602TIP3    H247298   0.568   2.875   2.203  0.1841  0.6485  0.0635
 8603TIP3   OH247299   3.529   5.891  11.269 -0.1012 -0.0390  0.0633
 8603TIP3    H147300   3.532   5.979  11.232  0.0776  1.1083  2.5432
 8603TIP3    H247301   3.618   5.876  11.302  0.2325 -1.7410 -1.4533
 8604TIP3   OH247302   4.414   2.999  16.292 -0.7123  0.2530 -0.0269
 8604TIP3    H147303   4.421   3.071  16.355  1.8232 -0.1724  0.2758
 8604TIP3    H247304   4.450   3.034  16.211 -0.3488 -0.3683 -0.1412
 8605TIP3   OH247305   6.750   1.185   3.510  0.3351  0.0499  0.2751
 8605TIP3    H147306   6.726   1.243   3.583  0.8731  1.8097 -0.8579
 8605TIP3    H247307   6.718   1.231   3.432 -0.0061 -1.6582 -0.6280
 8606TIP3   OH247308   2.192   5.286   2.795 -0.0415  0.3297 -0.4768
 8606TIP3    H147309   2.174   5.304   2.702  2.3792  0.2633 -1.0284
 8606TIP3    H247310   2.205   5.191   2.798 -0.3643  0.3011 -0.0212
 8607TIP3   OH247311   1.977   2.073   5.915  0.3891 -0.6952  0.0813
 8607TIP3    H147312   1.921   2.134   5.963  0.9455 -1.7904  2.2695
 8607TIP3    H247313   1.920   2.036   5.848 -0.6860  0.2892  0.4118
 8608TIP3   OH247314   5.756   0.790   2.296  0.1396 -0.5295 -0.3308
 8608TIP3    H147315   5.804   0.718   2.337  3.3848  2.5423  1.7267
 8608TIP3    H247316   5.695   0.819   2.363 -0.2189 -0.4755 -0.6745
 8609TIP3   OH247317   1.957   2.225  16.730 -0.0392  0.0968 -0.0990
 8609TIP3    H147318   1.936   2.132  16.729  0.0471  0.0789 -0.9643
 8609TIP3    H247319   2.053   2.228  16.730 -0.0252  0.1884  1.4216
 8610TIP3   OH247320   6.123   3.171   0.469 -0.6573  0.4745  0.1743
 8610TIP3    H147321   6.031   3.195   0.483 -1.7942 -2.3628 -1.3303
 8610TIP3    H247322   6.150   3.129   0.550 -1.8511 -1.5482 -0.3966
 8611TIP3   OH247323   3.087   6.065   1.424 -0.0992 -0.2844  0.3225
 8611TIP3    H147324   2.993   6.072   1.441 -0.6832  0.7284 -2.7679
 8611TIP3    H247325   3.101   5.973   1.404 -0.5447 -0.3550  0.3178
 8612TIP3   OH247326   6.440   0.962  12.103  0.7343  0.1712 -0.5602
 8612TIP3    H147327   6.404   1.046  12.132  1.1125  0.2913 -0.4286
 8612TIP3    H247328   6.523   0.985  12.061  1.5139 -0.2606  0.6940
 8613TIP3   OH247329   1.219   0.471  15.559 -0.8961  0.2224  0.1883
 8613TIP3    H147330   1.279   0.545  15.550 -1.7329  0.8158 -0.6775
 8613TIP3    H247331   1.230   0.421  15.479 -0.1185 -0.7742  0.8989
 8614TIP3   OH247332   1.803   3.310   0.485  0.5247  0.2961  0.2294
 8614TIP3    H147333   1.819   3.386   0.429 -0.2221  0.2186 -0.1002
 8614TIP3    H247334   1.882   3.257   0.476  1.1307  1.0976  0.5956
 8615TIP3   OH247335   2.008   4.052   2.002  0.3406 -0.3514  0.2093
 8615TIP3    H147336   1.991   4.139   1.966  0.5732 -0.8582 -1.1824
 8615TIP3    H247337   2.097   4.056   2.035  0.2364  0.0329  0.4439
 8616TIP3   OH247338   1.526   6.740   4.030 -0.6494 -0.1554 -0.0739
 8616TIP3    H147339   1.622   6.743   4.036 -0.6112  1.6432 -1.0101
 8616TIP3    H247340   1.501   6.666   4.086  1.1331  0.6334  1.9156
 8617TIP3   OH247341   2.229   3.248  11.187 -0.2519  0.0010  0.1587
 8617TIP3    H147342   2.261   3.158  11.198  2.9116  0.8741 -0.8044
 8617TIP3    H247343   2.248   3.269  11.095 -1.3341  1.5410  0.2453
 8618TIP3   OH247344   4.140   0.553   2.696  0.3587 -0.9835  0.2012
 8618TIP3    H147345   4.078   0.588   2.760  0.6252 -0.4736  0.1826
 8618TIP3    H247346   4.085   0.506   2.633 -0.1029  0.0873 -0.2296
 8619TIP3   OH247347   5.310   3.596  16.463 -0.5891 -0.0698 -0.4810
 8619TIP3    H147348   5.297   3.546  16.544 -0.1499 -0.3040 -0.5521
 8619TIP3    H247349   5.393   3.642  16.477 -0.8309  0.3912 -0.5447
 8620TIP3   OH247350   4.865   4.169  12.059 -0.2749 -0.0289 -0.4035
 8620TIP3    H147351   4.858   4.087  12.109 -0.5911  0.2557  0.0243
 8620TIP3    H247352   4.903   4.142  11.976  0.2688 -0.5173 -0.0138
 8621TIP3   OH247353   2.733   2.648  11.673 -0.3903  0.1036 -0.4802
 8621TIP3    H147354   2.783   2.677  11.596 -0.3655  1.1051 -0.1066
 8621TIP3    H247355   2.663   2.712  11.681 -1.0406 -0.6195 -0.2956
 8622TIP3   OH247356   4.283   0.058  11.488  0.1998  0.0696 -0.1823
 8622TIP3    H147357   4.300  -0.004  11.559 -1.9407 -1.1563 -0.6610
 8622TIP3    H247358   4.252   0.004  11.415  1.1810  1.4206 -1.6898
 8623TIP3   OH247359   5.477   3.404  12.491 -0.1098  0.7028  0.7827
 8623TIP3    H147360   5.396   3.402  12.440  0.2693  0.2627  0.1890
 8623TIP3    H247361   5.507   3.495  12.484 -0.6262  0.9098  1.1413
 8624TIP3   OH247362   3.768   4.490  14.429 -0.4029  0.1730 -0.5460
 8624TIP3    H147363   3.834   4.531  14.485 -0.7480 -0.6441  0.4958
 8624TIP3    H247364   3.691   4.546  14.437 -0.5025 -0.0281 -0.0589
 8625TIP3   OH247365   6.199   1.886   1.016 -0.3731 -0.0503  0.1636
 8625TIP3    H147366   6.262   1.898   0.944 -0.3164  0.4471  0.2951
 8625TIP3    H247367   6.118   1.927   0.984 -0.6939 -0.8640 -0.0860
 8626TIP3   OH247368   4.835   3.920   3.295  0.0965 -0.1796 -0.2004
 8626TIP3    H147369   4.815   3.831   3.322  1.3644 -0.5703 -0.4722
 8626TIP3    H247370   4.816   3.973   3.373  0.8880 -0.9069  0.5114
 8627TIP3   OH247371   1.826   1.310  12.382 -0.3553  0.4689  0.1467
 8627TIP3    H147372   1.792   1.221  12.378  0.6940  0.0827 -2.7183
 8627TIP3    H247373   1.917   1.300  12.409 -0.3714  0.7112  0.2906
 8628TIP3   OH247374   2.611   0.262   2.222 -0.4206 -0.1987 -0.5775
 8628TIP3    H147375   2.607   0.201   2.296  0.4176  1.2891  0.7458
 8628TIP3    H247376   2.523   0.299   2.218 -0.9402 -1.4363 -1.3960
 8629TIP3   OH247377   1.519   2.818   0.811  0.1061 -0.1778 -0.3061
 8629TIP3    H147378   1.553   2.798   0.899  2.0389  2.5919 -0.3120
 8629TIP3    H247379   1.431   2.782   0.812 -0.8417  1.6813  3.6378
 8630TIP3   OH247380   6.811   2.894   3.842  0.4573 -0.9040 -0.1241
 8630TIP3    H147381   6.862   2.816   3.823  1.1581 -0.3835 -0.4233
 8630TIP3    H247382   6.874   2.966   3.838 -0.5518 -0.0309 -2.0934
 8631TIP3   OH247383   6.727   1.977  13.879 -0.1451  1.0207  0.5604
 8631TIP3    H147384   6.722   1.983  13.784  1.9559  0.8968  0.3881
 8631TIP3    H247385   6.791   1.907  13.895  0.5528  1.9373  2.0263
 8632TIP3   OH247386   5.941   3.233   5.898  0.1118 -0.7044  0.1528
 8632TIP3    H147387   6.033   3.254   5.880 -0.0221  0.4047  0.6876
 8632TIP3    H247388   5.943   3.142   5.928  0.9632 -0.8640 -0.3407
 8633TIP3   OH247389   0.626   0.939  14.603 -1.0956 -0.3704 -0.5909
 8633TIP3    H147390   0.610   1.009  14.666 -1.5871 -1.4741  0.5532
 8633TIP3    H247391   0.658   0.984  14.525  1.5102  0.9291  1.0670
 8634TIP3   OH247392   0.524   5.063  15.998  0.2843  0.2092 -0.2668
 8634TIP3    H147393   0.539   5.133  15.934 -2.2725 -0.7219 -2.0403
 8634TIP3    H247394   0.461   5.101  16.059 -1.5106 -0.6006 -1.5287
 8635TIP3   OH247395   0.799   1.226   3.962 -0.1012  0.3752 -0.3167
 8635TIP3    H147396   0.839   1.196   3.881 -0.6620  1.0760 -0.8736
 8635TIP3    H247397   0.822   1.319   3.968 -2.3253  1.0487 -1.1355
 8636TIP3   OH247398   1.769   5.212  13.614  0.6182 -0.5441  0.4988
 8636TIP3    H147399   1.794   5.260  13.693 -3.0813  0.7427  1.0911
 8636TIP3    H247400   1.681   5.180  13.632 -1.4516  1.8284 -3.7840
 8637TIP3   OH247401   4.359   3.326  11.014  0.3009  0.5891  0.6859
 8637TIP3    H147402   4.269   3.321  10.982  1.3060 -0.3539 -2.3218
 8637TIP3    H247403   4.381   3.236  11.036  1.1714  0.3978 -0.8138
 8638TIP3   OH247404   2.033   0.515  16.079 -0.1423  0.5402 -0.0951
 8638TIP3    H147405   2.083   0.507  15.998  0.4791  0.4090  0.2909
 8638TIP3    H247406   2.089   0.475  16.145  0.2846  2.4730  0.7875
 8639TIP3   OH247407   5.464   1.703   0.554  0.0247  0.1770 -0.2544
 8639TIP3    H147408   5.399   1.646   0.596  0.1776  0.3660  0.2426
 8639TIP3    H247409   5.545   1.652   0.556 -0.0712  0.0036 -0.7336
 8640TIP3   OH247410   5.588   4.967   2.456  0.0089  0.0524  0.2727
 8640TIP3    H147411   5.633   4.886   2.433  0.1838  0.1961  0.1111
 8640TIP3    H247412   5.648   5.036   2.429  1.2657  0.2322  3.1552
 8641TIP3   OH247413   0.115   4.230   6.466  0.2428  0.1884  0.0163
 8641TIP3    H147414   0.169   4.260   6.393  0.6535  0.1208  0.2882
 8641TIP3    H247415   0.114   4.305   6.526  0.1305  0.1473  0.0652
 8642TIP3   OH247416   2.076   4.409   1.551 -0.1959 -0.2012 -0.1361
 8642TIP3    H147417   2.040   4.360   1.625  1.2778 -0.5653  0.3860
 8642TIP3    H247418   2.133   4.346   1.506 -0.7988  0.1258 -1.3798
 8643TIP3   OH247419   0.249   6.751  17.101 -0.1577 -0.1636  0.0768
 8643TIP3    H147420   0.275   6.674  17.151 -0.7612  0.2347  1.0457
 8643TIP3    H247421   0.324   6.810  17.107  0.0252 -0.3798 -0.0594
 8644TIP3   OH247422   6.009   0.573  11.338 -0.1159 -0.2728  0.0397
 8644TIP3    H147423   6.030   0.631  11.265  1.1766 -0.0508  0.5496
 8644TIP3    H247424   5.914   0.571  11.342 -0.1863  0.5874 -0.9520
 8645TIP3   OH247425   6.716   3.824  10.168 -0.7664  0.4421 -1.0420
 8645TIP3    H147426   6.768   3.778  10.101  1.0453 -0.5296  0.9086
 8645TIP3    H247427   6.626   3.797  10.151 -0.0222 -2.1090 -1.3534
 8646TIP3   OH247428   5.572   2.312  12.985 -0.3045  0.0676 -0.3928
 8646TIP3    H147429   5.504   2.250  13.012 -1.3051  1.3945  0.2682
 8646TIP3    H247430   5.581   2.298  12.890 -0.1797 -1.3670 -0.1914
 8647TIP3   OH247431   3.047   0.099  16.032 -0.0078 -0.8248  0.0666
 8647TIP3    H147432   3.054   0.003  16.028  1.9841 -0.6901 -2.2842
 8647TIP3    H247433   3.136   0.130  16.016 -0.6611  1.4375  0.5230
 8648TIP3   OH247434   0.656   3.045  10.918 -0.4200  0.4095 -0.0434
 8648TIP3    H147435   0.588   3.007  10.973  0.4220  0.0439  0.7708
 8648TIP3    H247436   0.698   3.111  10.973  1.3964 -0.9621  0.3464
 8649TIP3   OH247437   5.381   6.627  11.442  0.0806 -0.8365 -0.4974
 8649TIP3    H147438   5.379   6.680  11.362 -0.8852 -2.5434 -1.6616
 8649TIP3    H247439   5.331   6.678  11.505  2.5005  1.4860 -0.2744
 8650TIP3   OH247440   1.122   3.465  15.322  0.4663  0.1136  0.2016
 8650TIP3    H147441   1.124   3.536  15.258  1.0607 -0.6497 -0.6529
 8650TIP3    H247442   1.157   3.505  15.402  2.0109  0.4850 -0.6045
 8651TIP3   OH247443   6.566   3.791   1.121  0.5437 -0.0823 -0.2530
 8651TIP3    H147444   6.636   3.731   1.149  0.2930 -0.7565 -1.0320
 8651TIP3    H247445   6.607   3.878   1.125  1.1646 -0.3769  0.1101
 8652TIP3   OH247446   4.737   2.778   2.021 -0.0490 -0.3060 -0.1253
 8652TIP3    H147447   4.663   2.761   2.080 -0.7106  1.3130 -0.4276
 8652TIP3    H247448   4.696   2.806   1.939  0.8894 -0.5021 -0.6717
 8653TIP3   OH247449   6.494   2.436   5.024 -0.0440  0.4078  0.0647
 8653TIP3    H147450   6.550   2.509   5.048 -0.3527  0.9945 -0.9649
 8653TIP3    H247451   6.415   2.476   4.988 -0.1554 -0.4164 -0.6672
 8654TIP3   OH247452   3.321   0.198   3.574 -0.5119  0.1437  0.5013
 8654TIP3    H147453   3.293   0.108   3.556 -1.0776  0.5783 -1.0077
 8654TIP3    H247454   3.348   0.232   3.488  1.7814  0.7374  1.3947
 8655TIP3   OH247455   1.954   5.149   6.331  0.1103 -0.7040  0.3990
 8655TIP3    H147456   1.996   5.068   6.299 -1.1560 -0.7348 -1.3315
 8655TIP3    H247457   1.867   5.148   6.291  0.8308  2.6413 -1.5894
 8656TIP3   OH247458   1.585   0.587   5.544 -0.3527  0.4743 -0.3181
 8656TIP3    H147459   1.626   0.511   5.502 -0.1704  0.8778 -0.8878
 8656TIP3    H247460   1.586   0.567   5.637  0.6809  0.2519 -0.3699
 8657TIP3   OH247461   5.777   5.694   4.064  0.0221 -0.2331  0.3965
 8657TIP3    H147462   5.841   5.753   4.103 -0.5238  1.3737 -0.9772
 8657TIP3    H247463   5.813   5.606   4.076  2.3086  0.5871 -0.0204
 8658TIP3   OH247464   0.324   2.746  11.696 -0.5483  0.2224  0.0739
 8658TIP3    H147465   0.385   2.736  11.769  1.4276  2.1614 -1.1776
 8658TIP3    H247466   0.318   2.658  11.658 -1.2901 -0.7270  2.2471
 8659TIP3   OH247467   3.526   3.250   5.482  0.0877 -0.0322  0.3172
 8659TIP3    H147468   3.591   3.192   5.444  1.9181  0.0256  3.0675
 8659TIP3    H247469   3.565   3.337   5.478 -0.7919  0.3625  0.0384
 8660TIP3   OH247470   3.323   6.828   5.677 -0.6063  0.6988 -0.5741
 8660TIP3    H147471   3.232   6.846   5.657 -0.7330  1.2806  0.4637
 8660TIP3    H247472   3.350   6.765   5.610 -0.9250  2.6555 -2.6676
 8661TIP3   OH247473   5.245   4.575   0.262  0.0524 -0.3704  0.1685
 8661TIP3    H147474   5.224   4.607   0.350 -0.2685  0.7542 -0.2989
 8661TIP3    H247475   5.331   4.536   0.271  0.8658  1.4156  0.6224
 8662TIP3   OH247476   3.935   1.356   0.383 -0.3369  0.7228  0.0851
 8662TIP3    H147477   3.891   1.296   0.322  1.6923 -1.7869  0.9208
 8662TIP3    H247478   3.992   1.410   0.328 -1.3185  1.1244 -0.5660
 8663TIP3   OH247479   1.564   0.070  11.192 -0.0255  0.2209  0.0867
 8663TIP3    H147480   1.564   0.059  11.287  0.5691  1.3942  0.2364
 8663TIP3    H247481   1.476   0.044  11.165 -0.3809  0.4227  1.0206
 8664TIP3   OH247482   1.767   3.428   3.938  0.1839 -0.2305 -0.6275
 8664TIP3    H147483   1.851   3.453   3.899  0.2044  0.7095 -0.0166
 8664TIP3    H247484   1.744   3.502   3.994 -1.3378 -0.2188 -1.2244
 8665TIP3   OH247485   3.767   1.883  16.896 -0.2842 -0.6988 -0.0537
 8665TIP3    H147486   3.740   1.876  16.988  0.5729  2.4349  0.5566
 8665TIP3    H247487   3.685   1.881  16.847 -0.8753 -0.7620  0.9064
 8666TIP3   OH247488   0.059   3.594   3.113 -0.1983  0.0063  0.1605
 8666TIP3    H147489   0.077   3.550   3.030  1.1116 -0.2833  0.5655
 8666TIP3    H247490   0.123   3.557   3.174 -1.4354 -0.1391  1.4346
 8667TIP3   OH247491   4.208   1.590   5.513  0.1719  0.1264 -0.3530
 8667TIP3    H147492   4.133   1.620   5.463 -0.1580 -0.1537 -0.0284
 8667TIP3    H247493   4.189   1.616   5.604 -0.1281 -1.0537 -0.0625
 8668TIP3   OH247494   4.514   4.584   2.226 -0.3317  0.6299  0.8798
 8668TIP3    H147495   4.521   4.497   2.265  1.1714  0.1615 -0.3298
 8668TIP3    H247496   4.453   4.631   2.283  0.0771 -0.6999  2.4944
 8669TIP3   OH247497   0.799   1.269   3.349  0.4768 -0.2261 -0.6746
 8669TIP3    H147498   0.835   1.308   3.270  2.0365  0.9987  0.5500
 8669TIP3    H247499   0.797   1.341   3.413 -0.2898 -1.2632  0.5350
 8670TIP3   OH247500   0.652   2.926  13.948 -0.4420  0.3643 -0.1517
 8670TIP3    H147501   0.668   3.016  13.921 -0.1134 -0.0259 -1.3107
 8670TIP3    H247502   0.654   2.876  13.867 -2.4024 -0.4535  0.2532
 8671TIP3   OH247503   6.276   3.916  16.878  0.6272  0.1271  0.0534
 8671TIP3    H147504   6.239   3.964  16.804  0.7699 -0.6457 -0.5214
 8671TIP3    H247505   6.202   3.908  16.939  0.3581  0.2774 -0.2467
 8672TIP3   OH247506   0.755   4.013  15.050 -0.0858 -0.4138  0.1460
 8672TIP3    H147507   0.664   3.993  15.072  0.1212 -0.7669  0.7093
 8672TIP3    H247508   0.807   3.964  15.114  0.5025 -0.1954 -0.1498
 8673TIP3   OH247509   0.659   4.356  12.653  0.6582 -0.5160  0.1944
 8673TIP3    H147510   0.605   4.428  12.621  0.1709 -1.3732 -0.9795
 8673TIP3    H247511   0.597   4.286  12.672  1.2452 -1.0984 -0.0121
 8674TIP3   OH247512   5.079   2.666   4.815  0.1594  0.3101  0.9793
 8674TIP3    H147513   5.046   2.590   4.862 -2.2641  0.2223 -0.6999
 8674TIP3    H247514   5.021   2.738   4.841  1.1034  1.1005  0.9500
 8675TIP3   OH247515   3.153   5.252   6.617 -0.1781  0.2868  0.2110
 8675TIP3    H147516   3.071   5.251   6.667  0.2590 -0.0557  0.9261
 8675TIP3    H247517   3.211   5.192   6.664  1.5074  2.7298  1.4898
 8676TIP3   OH247518   4.344   1.901  16.991  0.2090 -0.6360 -0.6061
 8676TIP3    H147519   4.385   1.974  16.945 -1.0041  0.3169 -0.2291
 8676TIP3    H247520   4.251   1.924  16.994  0.2299 -0.6018  2.4129
 8677TIP3   OH247521   3.585   0.538   3.164 -0.0127  0.7439 -0.0039
 8677TIP3    H147522   3.514   0.532   3.100 -0.9743  0.1174  1.0841
 8677TIP3    H247523   3.634   0.616   3.139 -0.3346  0.4822 -1.5228
 8678TIP3   OH247524   5.120   5.218   3.750  0.1283 -0.3488  0.1485
 8678TIP3    H147525   5.177   5.142   3.768 -0.1369 -0.6730 -0.3328
 8678TIP3    H247526   5.174   5.275   3.694 -0.0060 -0.6529 -0.3024
 8679TIP3   OH247527   2.071   3.579   5.743  0.3894  0.4506  0.0809
 8679TIP3    H147528   2.140   3.521   5.776 -1.1721 -0.9472  1.0570
 8679TIP3    H247529   2.048   3.634   5.817  0.0332  0.4674 -0.0389
 8680TIP3   OH247530   0.623   6.567   5.097  0.1013 -0.3808 -0.0655
 8680TIP3    H147531   0.621   6.656   5.062 -2.1546 -1.1492 -2.2327
 8680TIP3    H247532   0.679   6.518   5.036 -2.4291 -1.3425 -1.8111
 8681TIP3   OH247533   4.885   2.769  11.580 -0.4430 -0.4543  0.6361
 8681TIP3    H147534   4.929   2.789  11.497  1.0518  0.3087  1.5579
 8681TIP3    H247535   4.952   2.787  11.646 -2.3290  1.3225  2.1701
 8682TIP3   OH247536   3.052   4.832   4.076 -0.4130  0.7022 -0.2641
 8682TIP3    H147537   3.021   4.806   4.163 -0.5594 -0.8644 -0.7492
 8682TIP3    H247538   3.147   4.837   4.086 -0.3967  0.1473 -0.1038
 8683TIP3   OH247539   0.192   3.471  15.377  0.3180  0.2690  0.9191
 8683TIP3    H147540   0.106   3.449  15.413 -0.2809  1.2949  0.1710
 8683TIP3    H247541   0.243   3.389  15.384 -0.9153 -0.5335  0.8134
 8684TIP3   OH247542   1.509   2.579  15.278 -0.3574 -0.8619 -0.7509
 8684TIP3    H147543   1.474   2.503  15.231  0.8699 -1.3499 -0.9173
 8684TIP3    H247544   1.593   2.549  15.313  0.3255  0.5205 -1.1150
 8685TIP3   OH247545   3.721   1.070   4.266  0.0553  0.0445  0.2500
 8685TIP3    H147546   3.800   1.017   4.275 -0.2320 -0.1293  2.0658
 8685TIP3    H247547   3.655   1.010   4.230  0.1159 -0.4648  0.9670
 8686TIP3   OH247548   1.233   2.774   4.082 -0.7188 -0.3309 -0.5233
 8686TIP3    H147549   1.191   2.713   4.021  0.8575 -0.9722 -1.0007
 8686TIP3    H247550   1.324   2.777   4.055 -0.3498  0.7267  0.7381
 8687TIP3   OH247551   1.789   3.254  16.108 -0.8215 -0.5557 -0.1474
 8687TIP3    H147552   1.814   3.343  16.136 -0.3320 -0.8029  0.2136
 8687TIP3    H247553   1.820   3.249  16.017 -0.0709 -0.6502  0.1047
 8688TIP3   OH247554   4.475   1.145  15.473 -0.4934  0.5906  0.2785
 8688TIP3    H147555   4.536   1.125  15.544 -1.6805  1.6159  1.6439
 8688TIP3    H247556   4.531   1.162  15.397  0.7440 -2.2327  0.4575
 8689TIP3   OH247557   3.069   0.782   1.823  0.2497 -0.0761 -0.5061
 8689TIP3    H147558   2.981   0.745   1.833 -0.0757  1.1558  1.9284
 8689TIP3    H247559   3.128   0.709   1.842 -0.2283 -0.7016 -1.3404
 8690TIP3   OH247560   3.914   5.405   3.980  0.4719  0.2970 -0.0365
 8690TIP3    H147561   3.870   5.484   3.949 -0.0338 -0.8281 -2.3233
 8690TIP3    H247562   3.999   5.436   4.013  1.0535  1.6370 -2.5714
 8691TIP3   OH247563   6.725   5.797  14.867 -0.2994 -0.0845  0.6060
 8691TIP3    H147564   6.730   5.810  14.962  1.4526 -0.6634  0.6302
 8691TIP3    H247565   6.804   5.837  14.833  0.1841 -1.7695 -0.3637
 8692TIP3   OH247566   0.896   1.864  11.772  0.2540 -0.4914  0.3595
 8692TIP3    H147567   0.880   1.951  11.738 -0.0585 -0.2960  0.9898
 8692TIP3    H247568   0.949   1.821  11.705 -1.7222 -0.7009 -1.1608
 8693TIP3   OH247569   5.372   6.707   4.399  0.4137 -0.1163 -0.3347
 8693TIP3    H147570   5.332   6.720   4.485  0.0425 -0.3410 -0.4734
 8693TIP3    H247571   5.345   6.783   4.347 -0.8571 -0.8590 -0.8081
 8694TIP3   OH247572   3.833   4.766  10.553 -0.7160 -0.1411 -0.2279
 8694TIP3    H147573   3.865   4.857  10.556 -1.4823  0.1090  0.6940
 8694TIP3    H247574   3.876   4.729  10.476 -0.3807  0.9983 -0.6148
 8695TIP3   OH247575   4.813   2.927   2.317 -0.7692 -0.0999 -0.1884
 8695TIP3    H147576   4.860   2.918   2.234 -0.6918  1.5870 -0.3575
 8695TIP3    H247577   4.737   2.981   2.296  0.1294  1.7856  1.1195
 8696TIP3   OH247578   3.357   4.784  14.844 -0.4663  0.2194  0.1161
 8696TIP3    H147579   3.452   4.798  14.843 -0.2586 -1.0230 -0.7294
 8696TIP3    H247580   3.322   4.860  14.890  1.1198 -0.5151  2.7668
 8697TIP3   OH247581   4.074   2.621  14.871  0.4539  0.3271 -0.3875
 8697TIP3    H147582   4.079   2.652  14.961 -0.4996  0.1339 -0.2561
 8697TIP3    H247583   4.164   2.594  14.850  0.7704  0.7738  0.3537
 8698TIP3   OH247584   2.885   4.002   2.075  0.2737 -0.7332  0.4716
 8698TIP3    H147585   2.826   3.926   2.074  0.0300 -0.5623 -1.4133
 8698TIP3    H247586   2.899   4.023   1.983  0.3254  1.5386  0.9399
 8699TIP3   OH247587   6.224   6.652  15.565  0.1038 -0.8140  0.0317
 8699TIP3    H147588   6.258   6.568  15.533  1.1287 -0.7472  0.8918
 8699TIP3    H247589   6.190   6.696  15.487  0.8875 -1.4234 -0.6648
 8700TIP3   OH247590   5.994   0.883  13.767 -0.2293  0.2394 -0.0406
 8700TIP3    H147591   6.032   0.964  13.802  0.0938  0.4023 -0.7488
 8700TIP3    H247592   5.900   0.895  13.777 -0.1466  0.1578  1.0223
 8701TIP3   OH247593   6.561   4.275   4.480  0.2200 -0.5068  0.0090
 8701TIP3    H147594   6.501   4.269   4.554 -1.1559  1.0178 -0.9055
 8701TIP3    H247595   6.529   4.210   4.417 -1.2064  0.9822 -0.9004
 8702TIP3   OH247596   5.338   2.112   3.277 -0.1244  0.4115 -0.0431
 8702TIP3    H147597   5.422   2.066   3.279 -0.5591 -0.3848  0.6292
 8702TIP3    H247598   5.301   2.098   3.364 -0.0087  2.5824  0.4086
 8703TIP3   OH247599   0.745   4.274   0.191  0.5359 -0.2586 -0.1088
 8703TIP3    H147600   0.826   4.325   0.186 -0.2527  1.0686  0.3803
 8703TIP3    H247601   0.767   4.201   0.250  1.1200  0.5978  0.7674
 8704TIP3   OH247602   3.797   1.037   0.823 -0.5194  0.1143  0.1153
 8704TIP3    H147603   3.892   1.046   0.825 -0.4049 -0.9972  1.8488
 8704TIP3    H247604   3.782   0.949   0.788 -0.8065 -0.4575  1.6081
 8705TIP3   OH247605   3.595   2.070   5.871 -0.9918  0.4840 -0.5700
 8705TIP3    H147606   3.683   2.070   5.832 -1.2143  1.3456 -1.0953
 8705TIP3    H247607   3.580   1.978   5.894  0.1049  0.3433 -0.3256
 8706TIP3   OH247608   4.631   0.930  14.966 -0.1637 -0.3234 -0.0151
 8706TIP3    H147609   4.701   0.951  15.028  0.0988 -0.6208 -0.2086
 8706TIP3    H247610   4.674   0.926  14.881 -0.5000 -0.0564 -0.2005
 8707TIP3   OH247611   6.783   3.251   1.357 -0.1016 -0.2313 -0.1383
 8707TIP3    H147612   6.800   3.337   1.394  1.8944 -0.4431 -0.4651
 8707TIP3    H247613   6.748   3.269   1.269 -1.3924  0.2343  0.4574
 8708TIP3   OH247614   3.890   0.342   6.146 -0.4109  0.1521 -0.1421
 8708TIP3    H147615   3.859   0.432   6.150 -1.0765 -0.0888  0.3472
 8708TIP3    H247616   3.981   0.346   6.176 -0.2027  0.7604 -0.8500
 8709TIP3   OH247617   2.733   0.174   4.951  0.8315 -0.0600  0.3882
 8709TIP3    H147618   2.783   0.216   4.882  2.9153 -1.7640  0.7277
 8709TIP3    H247619   2.790   0.178   5.028 -1.0044  0.9079  1.7886
 8710TIP3   OH247620   1.085   3.672   0.630  0.3760 -0.2186  0.1452
 8710TIP3    H147621   1.118   3.756   0.596 -1.3176  0.3965 -0.0639
 8710TIP3    H247622   1.155   3.642   0.689  1.7264  0.5220 -1.0117
 8711TIP3   OH247623   5.449   5.268  16.659  0.0437 -0.0096  0.0030
 8711TIP3    H147624   5.413   5.288  16.572 -0.6738 -2.2447 -0.2768
 8711TIP3    H247625   5.488   5.350  16.688 -1.5668  1.3918 -1.5265
 8712TIP3   OH247626   0.936   0.232   1.193  0.2368  0.1484  0.4829
 8712TIP3    H147627   0.992   0.303   1.162  0.4235 -1.0151 -2.0979
 8712TIP3    H247628   0.886   0.270   1.265  0.7878  2.6901 -0.3888
 8713TIP3   OH247629   6.157   6.248  15.663  0.2972 -0.5264 -0.2279
 8713TIP3    H147630   6.232   6.273  15.610  0.2682  2.5880  0.9444
 8713TIP3    H247631   6.089   6.311  15.639 -1.4849 -2.3867 -0.2475
 8714TIP3   OH247632   5.625   6.686  16.701  0.6749 -0.3939  0.0457
 8714TIP3    H147633   5.677   6.702  16.780 -0.3354 -1.4931  0.9552
 8714TIP3    H247634   5.668   6.740  16.634  2.2526 -0.3322  1.0446
 8715TIP3   OH247635   6.269   5.611   1.736 -0.3757  0.0379 -0.4338
 8715TIP3    H147636   6.346   5.636   1.686  0.4600 -0.4721  0.5778
 8715TIP3    H247637   6.250   5.686   1.792 -0.6245  0.1706 -0.6957
 8716TIP3   OH247638   0.544   4.617   4.832 -0.0935 -0.7869 -0.5767
 8716TIP3    H147639   0.620   4.635   4.778  0.7303 -0.1033  0.7634
 8716TIP3    H247640   0.579   4.599   4.919 -1.4854  0.5635  0.3239
 8717TIP3   OH247641   3.015   5.587   0.117  0.0692  0.2018  0.1148
 8717TIP3    H147642   3.026   5.497   0.087  0.3224  0.0243  0.7197
 8717TIP3    H247643   3.100   5.610   0.155 -0.1681  0.5008  0.4679
 8718TIP3   OH247644   1.269   6.826  12.689  0.4168  0.0650 -0.3458
 8718TIP3    H147645   1.348   6.836  12.742  1.6782  0.5997 -2.2118
 8718TIP3    H247646   1.284   6.882  12.613 -1.3972 -0.4914 -1.1674
 8719TIP3   OH247647   0.591   3.203   6.189  0.2133 -0.4125 -0.1860
 8719TIP3    H147648   0.647   3.243   6.256  0.0623 -1.9468  0.8919
 8719TIP3    H247649   0.518   3.265   6.180  0.3873 -0.0301  0.8457
 8720TIP3   OH247650   0.773   4.779  13.612  0.7151 -0.6761 -0.3365
 8720TIP3    H147651   0.689   4.794  13.655  0.3194 -0.6124 -1.1075
 8720TIP3    H247652   0.785   4.856  13.556  1.4828 -0.4896  0.0728
 8721TIP3   OH247653   1.342   5.678  13.108 -0.2154 -0.1574 -0.0593
 8721TIP3    H147654   1.420   5.730  13.125  0.0373 -0.2810 -0.8303
 8721TIP3    H247655   1.269   5.735  13.133  0.0911  0.1781  0.0815
 8722TIP3   OH247656   5.021   0.006  11.610  0.0936 -0.4444 -0.2247
 8722TIP3    H147657   5.006   0.082  11.554  1.4985 -0.2301 -0.3434
 8722TIP3    H247658   4.970   0.024  11.689  0.9198  0.9429  0.0196
 8723TIP3   OH247659   5.909   4.335  11.000 -0.1431 -0.1556  0.8847
 8723TIP3    H147660   5.965   4.282  10.943  1.2106  0.3538  1.7013
 8723TIP3    H247661   5.909   4.422  10.959 -0.3815 -0.1649  0.8641
 8724TIP3   OH247662   1.324   3.077   3.183 -0.5178 -0.1767  0.4246
 8724TIP3    H147663   1.387   3.149   3.177 -2.8616  1.9144 -1.9370
 8724TIP3    H247664   1.378   2.999   3.196  2.3053  1.7427  1.2458
 8725TIP3   OH247665   6.653   5.280  16.444  0.2110 -0.1683 -0.5305
 8725TIP3    H147666   6.582   5.238  16.492  1.1733 -1.7214 -0.3806
 8725TIP3    H247667   6.732   5.233  16.472  1.3383  1.5844 -0.5710
 8726TIP3   OH247668   2.671   4.640   1.697 -0.0091 -0.0882 -0.1373
 8726TIP3    H147669   2.586   4.599   1.708  0.6826 -1.9884 -1.3642
 8726TIP3    H247670   2.700   4.659   1.786 -0.9521 -1.1085  0.4104
 8727TIP3   OH247671   6.203   1.053  16.553  0.5463  0.2923 -0.0487
 8727TIP3    H147672   6.120   1.006  16.559  0.8906 -0.8635 -2.8207
 8727TIP3    H247673   6.178   1.140  16.521  0.2823  0.5958  0.9393
 8728TIP3   OH247674   1.661   5.624   0.528 -0.5078  0.3815 -0.1526
 8728TIP3    H147675   1.708   5.587   0.453  1.5902  0.7103  0.9238
 8728TIP3    H247676   1.634   5.711   0.499  0.6101  0.6520 -0.4415
 8729TIP3   OH247677   0.495   1.924   2.328  0.0997 -0.2060 -0.7426
 8729TIP3    H147678   0.453   1.926   2.242 -0.5443 -1.7506 -0.4909
 8729TIP3    H247679   0.432   1.967   2.387  0.3435  0.4400 -0.9395
 8730TIP3   OH247680   6.541   1.424  10.093  0.3339  0.0805  0.4145
 8730TIP3    H147681   6.628   1.448  10.124  0.0732  0.9608  0.4686
 8730TIP3    H247682   6.495   1.394  10.171  0.6227 -0.5176  0.3635
 8731TIP3   OH247683   2.501   0.147  11.098  0.1175  0.0535 -0.0408
 8731TIP3    H147684   2.489   0.154  11.192  1.1334 -0.0741  0.1170
 8731TIP3    H247685   2.576   0.088  11.088  1.7099  2.0812 -0.8219
 8732TIP3   OH247686   6.521   1.011   6.407 -0.2279 -0.9111 -0.4876
 8732TIP3    H147687   6.598   1.028   6.353 -1.4762  1.8071 -1.6034
 8732TIP3    H247688   6.450   0.997   6.344 -1.1391 -0.6804  0.4562
 8733TIP3   OH247689   0.974   6.439   4.059  0.1540 -0.3407  0.2138
 8733TIP3    H147690   1.031   6.443   4.136 -2.2355 -1.4668  2.1629
 8733TIP3    H247691   0.955   6.530   4.039 -0.7639 -0.0314  2.2545
 8734TIP3   OH247692   6.800   2.234   4.270  0.3475  0.8613 -0.2331
 8734TIP3    H147693   6.748   2.295   4.323 -0.1878  1.1084 -1.0218
 8734TIP3    H247694   6.859   2.192   4.333 -2.1925 -0.9980  1.0928
 8735TIP3   OH247695   4.065   5.312   5.834 -0.3602  0.6524 -0.5361
 8735TIP3    H147696   3.972   5.290   5.834 -0.4499  0.9148  1.1640
 8735TIP3    H247697   4.103   5.256   5.901 -0.2485  3.9657  2.4970
 8736TIP3   OH247698   6.346   3.990   6.113  0.5121  0.2117 -0.4932
 8736TIP3    H147699   6.327   3.898   6.135  1.6672  0.2275  0.7061
 8736TIP3    H247700   6.299   4.040   6.179  1.5156  0.3887  0.1043
 8737TIP3   OH247701   4.920   2.986   3.376  0.1329 -0.3462  0.6277
 8737TIP3    H147702   4.962   2.932   3.444  1.0450 -0.2065  0.1857
 8737TIP3    H247703   4.851   2.929   3.340 -0.0540 -0.5867  1.3498
 8738TIP3   OH247704   3.215   6.660  16.740 -0.2033  0.5414  0.8879
 8738TIP3    H147705   3.160   6.711  16.680 -0.4756  2.0510  2.3478
 8738TIP3    H247706   3.153   6.626  16.805  0.3341  0.7230  1.5096
 8739TIP3   OH247707   2.444   1.322   5.865  0.4684  0.2580 -0.4437
 8739TIP3    H147708   2.467   1.282   5.781 -0.1103 -0.5068 -0.2514
 8739TIP3    H247709   2.385   1.259   5.905 -0.0547  1.0869  0.1010
 8740TIP3   OH247710   1.095   5.742  16.447  0.0678  0.1303  0.2925
 8740TIP3    H147711   1.139   5.665  16.410 -0.4299  0.1615 -0.3789
 8740TIP3    H247712   1.003   5.717  16.454  0.2149 -0.0539  2.0137
 8741TIP3   OH247713   5.886   2.320   1.067 -0.0171 -0.1303  0.3808
 8741TIP3    H147714   5.859   2.372   1.142  0.3607 -0.0041  0.4325
 8741TIP3    H247715   5.905   2.233   1.103  0.0171 -0.1119  0.4071
 8742TIP3   OH247716   2.951   3.382   1.388  0.3718  0.2396  0.4913
 8742TIP3    H147717   2.949   3.449   1.320  1.5888  0.2573  0.4440
 8742TIP3    H247718   2.887   3.412   1.453 -0.0651  0.7470 -0.1597
 8743TIP3   OH247719   0.033   1.199  11.479  0.2535  0.5124 -0.1405
 8743TIP3    H147720   0.118   1.216  11.439 -0.4441  1.0673 -1.4627
 8743TIP3    H247721  -0.028   1.254  11.429 -0.9786 -0.3916  0.3251
 8744TIP3   OH247722   4.631   5.809  13.382 -0.1483 -0.2318 -0.9764
 8744TIP3    H147723   4.724   5.830  13.373 -0.1424 -0.4582 -1.4367
 8744TIP3    H247724   4.587   5.868  13.321 -0.2844 -0.3195 -0.9618
 8745TIP3   OH247725   3.681   5.800   2.349  0.2898  0.4439 -0.4895
 8745TIP3    H147726   3.721   5.874   2.394  0.5902  0.7644 -1.2555
 8745TIP3    H247727   3.611   5.839   2.295 -1.3743 -0.1538  1.1409
 8746TIP3   OH247728   4.475   2.650  16.058  0.2553  0.4751  0.2775
 8746TIP3    H147729   4.508   2.734  16.026 -0.2394  0.2577 -0.8412
 8746TIP3    H247730   4.384   2.647  16.029 -0.8204  1.0221  3.2313
 8747TIP3   OH247731   5.364   0.941   5.878  0.2268 -0.0983 -0.1616
 8747TIP3    H147732   5.300   0.885   5.922 -1.1506  2.2463  0.9687
 8747TIP3    H247733   5.447   0.924   5.924 -0.3867 -0.4442  0.8411
 8748TIP3   OH247734   6.310   6.569  16.595  0.2527  0.2032 -0.5455
 8748TIP3    H147735   6.233   6.530  16.553  0.6001 -0.0349 -0.9696
 8748TIP3    H247736   6.381   6.508  16.576  0.4770  0.2529  0.1310
 8749TIP3   OH247737   0.833   3.904  15.976  0.0940 -0.0635 -0.0505
 8749TIP3    H147738   0.910   3.866  15.932 -0.1467  0.8319 -1.3166
 8749TIP3    H247739   0.869   3.951  16.051  0.5496 -1.4089  0.6087
 8750TIP3   OH247740   2.515   1.266   3.107  0.3709 -0.0250 -0.5950
 8750TIP3    H147741   2.570   1.197   3.070  1.8054  0.8678 -0.2230
 8750TIP3    H247742   2.562   1.295   3.185 -1.7741 -0.7358  1.0553
 8751TIP3   OH247743   2.810   4.122   4.625 -0.3653 -0.3167  0.1869
 8751TIP3    H147744   2.843   4.174   4.552 -0.8390 -0.5118 -0.1731
 8751TIP3    H247745   2.874   4.051   4.635 -0.6492 -0.6743 -0.4824
 8752TIP3   OH247746   6.094   1.323  16.464 -0.7640 -0.2355  0.0111
 8752TIP3    H147747   6.102   1.361  16.551 -0.7512 -0.1122 -0.0452
 8752TIP3    H247748   6.040   1.384  16.415  0.0413  0.1912 -0.3626
 8753TIP3   OH247749   3.610   6.806   5.870  0.4638  0.0839 -0.2468
 8753TIP3    H147750   3.683   6.861   5.901  1.0849 -0.2117 -1.1284
 8753TIP3    H247751   3.532   6.860   5.882  0.7880  0.3018  0.9822
 8754TIP3   OH247752   0.877   2.646  11.858 -0.1315 -0.0117  0.4820
 8754TIP3    H147753   0.940   2.626  11.789 -0.3726  0.7489  0.0311
 8754TIP3    H247754   0.899   2.736  11.885 -0.3400 -0.1309  1.0640
 8755TIP3   OH247755   3.563   6.540   4.331 -0.1141  0.7134  0.1535
 8755TIP3    H147756   3.545   6.565   4.240  3.3664  0.5174 -0.7028
 8755TIP3    H247757   3.543   6.619   4.381 -0.3579  1.4254 -1.0130
 8756TIP3   OH247758   2.363   6.668  11.308  0.1297 -0.0379 -0.6073
 8756TIP3    H147759   2.380   6.610  11.382 -0.5162 -0.0035 -0.4274
 8756TIP3    H247760   2.442   6.722  11.302  0.2990 -0.2226 -0.1130
 8757TIP3   OH247761   1.252   2.767   4.786 -0.0143 -0.2975 -0.0552
 8757TIP3    H147762   1.165   2.805   4.775 -0.3163 -0.7245  0.7382
 8757TIP3    H247763   1.279   2.742   4.698 -0.2516  0.7870 -0.4441
 8758TIP3   OH247764   6.638   0.941   0.553  0.7906 -0.9240  0.1781
 8758TIP3    H147765   6.669   0.854   0.577  0.8111 -0.9799 -0.0490
 8758TIP3    H247766   6.636   0.941   0.457 -2.3205 -1.7756  0.1602
 8759TIP3   OH247767   1.340   3.406  12.892 -0.1473  0.6928 -0.7979
 8759TIP3    H147768   1.291   3.373  12.968  0.6640  1.2792 -0.0071
 8759TIP3    H247769   1.333   3.337  12.827 -1.1308  0.3160 -0.3118
 8760TIP3   OH247770   6.018   1.012  11.894 -0.2624 -0.3515 -0.0977
 8760TIP3    H147771   5.984   1.044  11.977  1.4688  0.8932  0.1729
 8760TIP3    H247772   6.022   1.090  11.838  2.8794 -0.1731  0.1796
 8761TIP3   OH247773   0.566   3.284  15.838 -0.0623 -0.2043 -0.6299
 8761TIP3    H147774   0.476   3.313  15.853 -0.1700 -0.9957  0.3520
 8761TIP3    H247775   0.588   3.232  15.916  1.4967  0.5748 -0.5146
 8762TIP3   OH247776   4.405   3.911  13.744  0.3387  0.0754 -0.0975
 8762TIP3    H147777   4.495   3.881  13.735  1.1575  1.9457  1.2126
 8762TIP3    H247778   4.363   3.843  13.798  1.2486 -0.2971  0.1689
 8763TIP3   OH247779   5.390   2.338  15.776 -0.2775  0.4388 -0.2512
 8763TIP3    H147780   5.372   2.391  15.853  2.9162  1.9018 -0.3660
 8763TIP3    H247781   5.455   2.275  15.805  2.1055  1.9577 -1.9513
 8764TIP3   OH247782   4.725   6.037   0.240 -0.0357 -0.3284  0.0892
 8764TIP3    H147783   4.665   6.035   0.315  0.8580  1.5090  0.8987
 8764TIP3    H247784   4.805   6.077   0.274 -0.3535  2.7240 -2.3140
 8765TIP3   OH247785   3.717   3.242   2.455 -0.3714 -0.0472  0.2665
 8765TIP3    H147786   3.805   3.205   2.460 -0.3216  0.1064  0.5118
 8765TIP3    H247787   3.669   3.201   2.527 -0.9599 -1.3517 -0.8311
 8766TIP3   OH247788   0.479   4.397   5.447  0.2392 -0.1112 -0.0649
 8766TIP3    H147789   0.456   4.306   5.464 -0.5403  0.1225  0.1595
 8766TIP3    H247790   0.514   4.429   5.530  0.7281 -0.2671 -0.2082
 8767TIP3   OH247791   3.568   5.764  16.890  0.0306 -0.0690  0.2042
 8767TIP3    H147792   3.483   5.787  16.852 -0.2274 -0.9681  0.1972
 8767TIP3    H247793   3.548   5.702  16.960  0.7034 -0.6111 -0.0639
 8768TIP3   OH247794   6.636   6.244  12.151  0.3279  0.7074  0.0506
 8768TIP3    H147795   6.719   6.220  12.110 -0.6248 -0.2500 -1.4168
 8768TIP3    H247796   6.570   6.194  12.103 -1.4228  3.5222 -0.6986
 8769TIP3   OH247797   2.068   5.494  15.907 -0.0993  0.0953 -0.0853
 8769TIP3    H147798   2.011   5.484  15.984 -0.4047  0.4714 -0.2598
 8769TIP3    H247799   2.008   5.518  15.836  0.2984  0.6357 -0.2373
 8770TIP3   OH247800   5.255   6.152   3.971  0.1736  0.3249  0.3251
 8770TIP3    H147801   5.194   6.116   3.908 -0.3410  0.9389  0.4690
 8770TIP3    H247802   5.203   6.212   4.025  1.2589  2.3534 -0.7698
 8771TIP3   OH247803   4.412   6.033  11.562 -0.5515  0.3099  0.2586
 8771TIP3    H147804   4.449   5.970  11.624  0.7905  0.5218 -0.2887
 8771TIP3    H247805   4.485   6.054  11.504 -1.5158  0.8825 -0.7686
 8772TIP3   OH247806   5.084   6.660   3.038  0.2717  0.6958  0.5492
 8772TIP3    H147807   5.165   6.667   3.088  1.3032 -1.4164 -0.7140
 8772TIP3    H247808   5.036   6.589   3.080  0.7126 -0.4507 -0.8295
 8773TIP3   OH247809   1.140   1.222  11.401 -0.2306  0.0751  0.5430
 8773TIP3    H147810   1.098   1.235  11.316  0.3644 -1.4367 -0.0137
 8773TIP3    H247811   1.197   1.146  11.389  3.3515  2.4048  0.9710
 8774TIP3   OH247812   1.241   0.620   1.005  0.6663 -0.0283 -0.1015
 8774TIP3    H147813   1.168   0.676   0.979 -0.0809 -1.3040 -0.8676
 8774TIP3    H247814   1.308   0.635   0.938  0.0056 -0.8963 -0.9852
 8775TIP3   OH247815   1.255   0.154  11.126 -0.3288 -0.6047 -0.1985
 8775TIP3    H147816   1.168   0.192  11.127  0.2981  1.0435 -2.2465
 8775TIP3    H247817   1.246   0.074  11.074 -0.8931 -1.2731  0.8972
 8776TIP3   OH247818   1.183   0.429  16.401 -0.0602  0.2143  0.0504
 8776TIP3    H147819   1.261   0.451  16.349 -0.8477  0.6957 -0.9733
 8776TIP3    H247820   1.186   0.334  16.409  0.5376  0.2114 -0.1306
 8777TIP3   OH247821   0.914   4.084   2.624  0.6178  0.3153 -0.4626
 8777TIP3    H147822   0.880   4.083   2.713  0.6351 -0.3289 -0.4560
 8777TIP3    H247823   0.841   4.052   2.570 -0.0433  2.4692 -0.9383
 8778TIP3   OH247824   0.799   5.851  13.156 -0.0191  0.0343  0.3631
 8778TIP3    H147825   0.791   5.762  13.121  3.6809 -0.4197  0.3571
 8778TIP3    H247826   0.839   5.840  13.242  2.6122  1.7087 -0.5561
 8779TIP3   OH247827   0.153   6.377   6.750  0.2107 -0.0632 -0.6711
 8779TIP3    H147828   0.191   6.379   6.837  0.2787 -2.3999 -0.5765
 8779TIP3    H247829   0.157   6.285   6.724 -1.1957  0.3307 -2.5258
 8780TIP3   OH247830   0.632   0.405  13.596 -0.1983  0.1450 -0.1304
 8780TIP3    H147831   0.564   0.368  13.653 -0.4852  0.0958 -0.4951
 8780TIP3    H247832   0.582   0.446  13.525  0.1550  0.2483 -0.3163
 8781TIP3   OH247833   4.995   6.771   1.261 -0.1929  0.1063 -0.1012
 8781TIP3    H147834   4.972   6.725   1.180 -0.4922  1.5896 -0.8875
 8781TIP3    H247835   5.075   6.728   1.291 -0.1277 -0.5259 -1.1228
 8782TIP3   OH247836   4.082   0.822  14.921 -0.0786 -0.5816  0.0314
 8782TIP3    H147837   4.064   0.775  15.003  0.5673  0.2801  0.6870
 8782TIP3    H247838   3.996   0.848  14.889 -0.4715 -2.3924 -0.4692
 8783TIP3   OH247839   3.446   1.893   0.896  0.2341  0.0186  0.0150
 8783TIP3    H147840   3.360   1.901   0.854 -0.2155 -0.4516  0.8363
 8783TIP3    H247841   3.445   1.960   0.965  0.6676  0.2500 -0.1982
 8784TIP3   OH247842   0.393   4.293   2.770 -0.0848  0.5025  0.1650
 8784TIP3    H147843   0.315   4.277   2.717 -0.8444  2.3233  0.6523
 8784TIP3    H247844   0.362   4.289   2.860  0.3289  1.4146  0.3594
 8785TIP3   OH247845   0.251   1.872  11.796 -0.0405  0.6420 -0.1954
 8785TIP3    H147846   0.215   1.961  11.793 -1.1488  0.1867 -1.4801
 8785TIP3    H247847   0.184   1.821  11.842 -0.3434  0.0966 -1.2155
 8786TIP3   OH247848   5.402   0.252  13.160 -0.0573 -0.4576  0.5852
 8786TIP3    H147849   5.391   0.167  13.116 -1.5467  0.7414 -1.5569
 8786TIP3    H247850   5.315   0.291  13.158  0.7173  1.3873  0.9674
 8787TIP3   OH247851   0.602   3.405  14.978  0.5933 -0.1453 -0.2193
 8787TIP3    H147852   0.605   3.336  15.044  0.5841  1.3685  1.4319
 8787TIP3    H247853   0.689   3.444  14.981  0.1266  0.9043 -0.0092
 8788TIP3   OH247854   4.894   1.168  14.066  0.1528  0.2930  0.0499
 8788TIP3    H147855   4.856   1.203  13.985 -0.8287  1.8258  1.1096
 8788TIP3    H247856   4.867   1.076  14.068 -1.4339  0.7113 -0.4690
 8789TIP3   OH247857   3.502   0.662  14.027 -0.2806  0.2304 -0.2848
 8789TIP3    H147858   3.480   0.569  14.039  0.0680 -0.0698 -1.8312
 8789TIP3    H247859   3.595   0.661  14.003  0.0764  1.0950  0.9505
 8790TIP3   OH247860   5.808   4.031  16.453  0.2666  0.0225 -0.2320
 8790TIP3    H147861   5.827   3.960  16.393  3.4892 -0.5281  1.2061
 8790TIP3    H247862   5.769   3.989  16.530  0.1539  0.1151 -0.2369
 8791TIP3   OH247863   3.060   6.441   0.218 -0.0862  0.0098 -0.4049
 8791TIP3    H147864   3.081   6.398   0.300 -0.6034  1.3725  0.4712
 8791TIP3    H247865   3.123   6.513   0.211 -0.5618  0.3955 -0.7975
 8792TIP3   OH247866   4.323   4.448  13.301 -0.2120  0.5997 -0.8747
 8792TIP3    H147867   4.332   4.541  13.277  0.3381  0.9226  0.4674
 8792TIP3    H247868   4.385   4.436  13.373  0.2010 -0.9895 -1.4528
 8793TIP3   OH247869   1.412   0.279  15.118  0.1796  0.3410 -0.3035
 8793TIP3    H147870   1.386   0.212  15.055 -3.9098 -0.7512  2.1244
 8793TIP3    H247871   1.379   0.361  15.081 -0.2192  0.0530 -0.5996
 8794TIP3   OH247872   2.392   6.372  13.162  0.8139  0.1091  0.2605
 8794TIP3    H147873   2.481   6.401  13.184  0.5636  0.0728  1.3915
 8794TIP3    H247874   2.336   6.419  13.223 -0.2359  2.1165 -2.1104
 8795TIP3   OH247875   5.051   4.027   4.424 -0.3301  0.3128  0.2054
 8795TIP3    H147876   5.059   3.932   4.413  1.5296  0.4522  0.0574
 8795TIP3    H247877   4.958   4.045   4.406 -0.1760 -1.1133 -2.6386
 8796TIP3   OH247878   3.260   1.871  10.797 -0.4188  0.0810  0.4620
 8796TIP3    H147879   3.254   1.779  10.823 -0.2034 -0.4005 -1.1118
 8796TIP3    H247880   3.324   1.909  10.858 -0.2893 -0.8727  0.9402
 8797TIP3   OH247881   4.130   1.691  16.049  0.4775 -0.0321  0.4584
 8797TIP3    H147882   4.197   1.633  16.010 -0.7075 -1.4303  0.4020
 8797TIP3    H247883   4.079   1.633  16.105  1.3323  1.6814  3.1661
 8798TIP3   OH247884   1.101   3.492  12.263 -0.0983 -0.1358  0.1015
 8798TIP3    H147885   1.140   3.575  12.235  3.0608 -1.5743 -0.1607
 8798TIP3    H247886   1.119   3.432  12.191 -0.5492 -1.5328  1.1162
 8799TIP3   OH247887   3.581   2.138   3.032 -0.4632  0.3713  0.3266
 8799TIP3    H147888   3.516   2.152   2.964  2.9861  3.4390 -2.7887
 8799TIP3    H247889   3.636   2.067   2.999  0.9036  1.5083  0.0163
 8800TIP3   OH247890   2.745   3.005  13.241  0.0462 -0.1406  0.7729
 8800TIP3    H147891   2.765   2.923  13.287 -0.6989 -0.1991  1.0041
 8800TIP3    H247892   2.714   3.064  13.310 -1.8597 -0.4857  0.2787
 8801TIP3   OH247893   6.150   1.152   0.682  0.4828 -0.1188 -0.2798
 8801TIP3    H147894   6.136   1.064   0.648  0.0809 -1.0616  2.0802
 8801TIP3    H247895   6.077   1.167   0.742  1.4624  1.0863  0.6852
 8802TIP3   OH247896   0.717   0.871   0.894  0.1940 -0.3145 -0.2603
 8802TIP3    H147897   0.771   0.945   0.921 -0.1142  0.8712 -2.5642
 8802TIP3    H247898   0.627   0.900   0.908 -0.0348  0.7745 -3.1404
 8803TIP3   OH247899   3.223   1.058   6.078 -0.0199  0.2684 -0.2612
 8803TIP3    H147900   3.241   1.148   6.051  0.7178 -0.0586 -0.8773
 8803TIP3    H247901   3.303   1.029   6.121 -0.3266 -0.0337  0.1103
 8804TIP3   OH247902   1.156   3.417   2.963  0.1998 -0.3796  0.3306
 8804TIP3    H147903   1.125   3.330   2.939 -3.1189  0.6042  0.6283
 8804TIP3    H247904   1.181   3.458   2.880  0.5750 -1.1738  0.0467
 8805TIP3   OH247905   5.172   3.211   1.831  0.0026  0.2148  0.2933
 8805TIP3    H147906   5.121   3.136   1.802  0.5794 -0.1729  0.2667
 8805TIP3    H247907   5.121   3.249   1.902 -1.0245  0.6899 -0.6588
 8806TIP3   OH247908   4.527   3.720   2.900  0.2962  0.1725  0.1711
 8806TIP3    H147909   4.571   3.639   2.925  0.4555 -0.2318 -1.2887
 8806TIP3    H247910   4.447   3.691   2.855 -0.2226  0.8541  0.6308
 8807TIP3   OH247911   2.497   5.957  13.638 -0.1712 -1.3554 -0.1092
 8807TIP3    H147912   2.478   6.023  13.572  0.3206 -0.6755  0.4137
 8807TIP3    H247913   2.582   5.982  13.673  0.0804 -2.3488  0.0084
 8808TIP3   OH247914   4.566   5.918   0.447  0.2411  0.5788 -0.5273
 8808TIP3    H147915   4.475   5.946   0.435  0.1016 -0.3924 -1.9694
 8808TIP3    H247916   4.563   5.823   0.436  0.7773 -0.1485  3.7087
 8809TIP3   OH247917   1.710   6.606   0.437  0.5238  0.2959 -0.6024
 8809TIP3    H147918   1.786   6.548   0.431  0.0711 -0.2226 -1.4362
 8809TIP3    H247919   1.644   6.565   0.382 -0.9365 -0.0886  1.3381
 8810TIP3   OH247920   3.568   5.543  14.257  0.0401  0.4543 -0.0112
 8810TIP3    H147921   3.556   5.478  14.188 -0.6902 -0.3362  0.8480
 8810TIP3    H247922   3.601   5.494  14.332 -0.1609  1.1335  0.5291
 8811TIP3   OH247923   0.035   4.647   6.017 -0.3252  0.0214  0.1197
 8811TIP3    H147924   0.115   4.696   6.037  0.4424 -0.9777 -0.4064
 8811TIP3    H247925   0.055   4.557   6.042 -1.2344 -0.2710 -0.1724
 8812TIP3   OH247926   0.964   2.511  13.153 -0.2724  0.1838  0.1186
 8812TIP3    H147927   0.948   2.423  13.185  3.1069 -0.8105 -0.4979
 8812TIP3    H247928   1.016   2.553  13.222 -1.7350  1.7013  0.3623
 8813TIP3   OH247929   0.246   0.178   1.053  0.4891 -0.1378  0.2296
 8813TIP3    H147930   0.186   0.247   1.083  0.3779 -0.0565 -0.1774
 8813TIP3    H247931   0.321   0.225   1.017  0.4987 -0.2322  0.1260
 8814TIP3   OH247932   2.906   1.191   5.147  0.9966 -0.2066 -0.1062
 8814TIP3    H147933   2.983   1.177   5.091  0.1565  3.7617 -2.6202
 8814TIP3    H247934   2.930   1.265   5.203  0.3022 -1.4990  2.0371
 8815TIP3   OH247935   2.053   0.149  16.648  0.5658  0.2972  0.4229
 8815TIP3    H147936   1.979   0.203  16.622  1.3449  1.8409  1.2522
 8815TIP3    H247937   2.015   0.079  16.702 -0.6954 -1.2369 -2.2415
 8816TIP3   OH247938   2.590   0.343   0.935 -0.4372 -0.0874 -0.9929
 8816TIP3    H147939   2.577   0.259   0.890  1.8005  0.3604 -2.6709
 8816TIP3    H247940   2.502   0.373   0.957 -1.3512 -2.3808 -1.2228
 8817TIP3   OH247941   2.326   4.889  12.601  0.3745 -0.1362 -0.2963
 8817TIP3    H147942   2.401   4.830  12.607  1.1191  0.7568 -0.5380
 8817TIP3    H247943   2.354   4.968  12.648  0.7792  1.3812 -2.9078
 8818TIP3   OH247944   6.631   5.616   6.014  0.6458  0.4904  0.1541
 8818TIP3    H147945   6.556   5.623   5.955  1.4033  0.0590 -0.9070
 8818TIP3    H247946   6.612   5.677   6.085 -0.2525  1.1089 -0.5907
 8819TIP3   OH247947   5.348   5.807  13.803  0.6805  0.1376 -0.1995
 8819TIP3    H147948   5.435   5.789  13.838 -0.7713 -2.0231  2.8584
 8819TIP3    H247949   5.335   5.742  13.734  0.9459 -0.7058  0.5148
 8820TIP3   OH247950   2.306   6.577  13.528 -0.0823 -0.5113 -0.6650
 8820TIP3    H147951   2.300   6.672  13.527  0.1267 -0.5046 -1.5366
 8820TIP3    H247952   2.324   6.555  13.620  1.9844  0.4017 -0.8147
 8821TIP3   OH247953   0.737   3.204   2.807  0.4559 -0.0489  0.0850
 8821TIP3    H147954   0.680   3.193   2.883 -0.2756  0.3329 -0.4014
 8821TIP3    H247955   0.698   3.148   2.739  1.2383 -0.5744  0.0536
 8822TIP3   OH247956   6.185   3.134  11.798  0.1153 -0.5454  0.0672
 8822TIP3    H147957   6.209   3.046  11.828  0.2232 -0.3590  0.5354
 8822TIP3    H247958   6.259   3.161  11.743  2.7056  1.2823  3.9469
 8823TIP3   OH247959   3.519   3.441   5.784  0.2018 -0.2298  0.1751
 8823TIP3    H147960   3.509   3.535   5.770  0.5272 -0.3556 -1.0906
 8823TIP3    H247961   3.591   3.433   5.847 -1.3517  0.4018  2.1151
 8824TIP3   OH247962   0.681   0.511   4.498 -0.5620 -0.1863  0.3993
 8824TIP3    H147963   0.700   0.457   4.421 -1.0340 -0.7383  0.6598
 8824TIP3    H247964   0.586   0.522   4.496 -0.3399  2.1341 -0.6298
 8825TIP3   OH247965   1.940   6.197  11.182  0.1483 -0.5296 -0.0054
 8825TIP3    H147966   1.902   6.258  11.119  1.8957 -0.6197 -1.2211
 8825TIP3    H247967   1.878   6.124  11.186  0.1636 -0.6842 -1.9078
 8826TIP3   OH247968   1.725   6.311   2.390  0.1993 -0.0071 -0.3258
 8826TIP3    H147969   1.637   6.341   2.368 -0.1165 -0.6591  0.0163
 8826TIP3    H247970   1.758   6.272   2.309  0.3911  0.7481 -0.6099
 8827TIP3   OH247971   2.014   0.101  13.298 -0.4872  0.3838  0.0554
 8827TIP3    H147972   1.972   0.017  13.281 -0.7246  0.4142  0.4767
 8827TIP3    H247973   2.026   0.140  13.212  0.4310 -0.4672 -0.2091
 8828TIP3   OH247974   2.922   3.486  12.635 -0.2512  0.2919 -0.4481
 8828TIP3    H147975   2.980   3.482  12.711 -1.1392 -0.9629  0.1966
 8828TIP3    H247976   2.923   3.578  12.609 -0.5192  0.9211  1.5736
 8829TIP3   OH247977   2.304   0.010  13.464 -0.1981  0.3897 -0.4236
 8829TIP3    H147978   2.322   0.075  13.397  1.7277 -1.2730 -1.6366
 8829TIP3    H247979   2.241   0.052  13.523  0.3092  2.9753 -1.6162
 8830TIP3   OH247980   2.665   1.164   0.214 -0.1471  0.1599 -0.3107
 8830TIP3    H147981   2.739   1.132   0.267  0.7803  1.3739 -0.8140
 8830TIP3    H247982   2.706   1.220   0.148 -1.5030  0.5572 -0.8417
 8831TIP3   OH247983   3.929   1.487  16.985  0.1679 -0.0528 -0.3528
 8831TIP3    H147984   3.942   1.523  16.897 -1.6454  1.3225 -0.1106
 8831TIP3    H247985   3.835   1.493  17.000  0.2504 -1.6548  1.1276
 8832TIP3   OH247986   1.676   1.090   6.502 -0.1269  0.0348  0.5249
 8832TIP3    H147987   1.669   1.181   6.472 -0.7283  0.0600  0.7204
 8832TIP3    H247988   1.587   1.068   6.531  0.1849 -0.3784  1.1707
 8833TIP3   OH247989   0.339   6.842   5.550  0.7761  0.2488  0.0134
 8833TIP3    H147990   0.415   6.811   5.600  0.6621  0.8038  0.5558
 8833TIP3    H247991   0.296   6.763   5.519  0.8413 -0.1195  0.8317
 8834TIP3   OH247992   2.831   4.414   2.707 -0.1329  0.0118  0.3297
 8834TIP3    H147993   2.884   4.449   2.635 -1.7884  0.1910 -0.8706
 8834TIP3    H247994   2.876   4.442   2.786  1.6785 -0.0642 -0.6231
 8835TIP3   OH247995   4.012   3.364   0.365  0.0504  0.5513 -0.2445
 8835TIP3    H147996   3.947   3.320   0.311 -0.3656  2.1509 -1.1230
 8835TIP3    H247997   4.004   3.323   0.451 -1.3455 -0.0505 -0.6294
 8836TIP3   OH247998   6.294   4.536  14.139 -0.4145  0.2920 -0.4854
 8836TIP3    H147999   6.332   4.478  14.073 -2.6127 -2.7525  0.6887
 8836TIP3    H248000   6.212   4.567  14.099  0.2966  1.9279 -0.7387
 8837TIP3   OH248001   4.045   0.552  12.985  0.3084 -0.0916 -0.0537
 8837TIP3    H148002   4.118   0.601  13.024  2.1091 -0.5762 -2.5501
 8837TIP3    H248003   3.967   0.601  13.009  1.5851  1.2555  1.5503
 8838TIP3   OH248004   5.509   2.048   0.166 -0.2163  1.1060 -0.5301
 8838TIP3    H148005   5.459   2.116   0.120  0.9094  1.8575 -0.6795
 8838TIP3    H248006   5.475   2.051   0.256 -0.9340  1.1000 -0.7916
 8839TIP3   OH248007   4.084   1.571  13.777  0.1247  0.3318  0.0353
 8839TIP3    H148008   4.018   1.639  13.762 -0.7841  0.1947  2.8528
 8839TIP3    H248009   4.034   1.496  13.808  1.5405  0.3943  2.7951
 8840TIP3   OH248010   5.220   5.655  11.236 -0.5116  0.3176  0.7342
 8840TIP3    H148011   5.264   5.740  11.225  1.4403 -0.8700 -2.0818
 8840TIP3    H248012   5.224   5.615  11.149 -1.7480 -2.5035  1.8432
 8841TIP3   OH248013   4.938   5.005  13.576 -0.2753 -0.0927  0.4710
 8841TIP3    H148014   4.873   5.073  13.557  0.1943  0.2167 -0.0641
 8841TIP3    H248015   4.949   5.008  13.671  2.6497  3.3736  0.2575
 8842TIP3   OH248016   5.527   0.463   5.444 -0.1570 -0.0190  0.1895
 8842TIP3    H148017   5.513   0.554   5.415  0.4920  0.2672  0.7412
 8842TIP3    H248018   5.500   0.410   5.369 -3.0084  0.4824  0.7365
 8843TIP3   OH248019   5.736   0.843  13.449 -0.2504 -0.0177  0.1361
 8843TIP3    H148020   5.782   0.876  13.372 -0.6248  0.2324  0.0189
 8843TIP3    H248021   5.715   0.752  13.427  0.3196 -0.1795  0.2519
 8844TIP3   OH248022   4.225   6.532  16.128  0.2613 -0.4550 -0.2165
 8844TIP3    H148023   4.203   6.445  16.160 -1.6046 -0.3144 -0.9692
 8844TIP3    H248024   4.320   6.538  16.137  0.2954 -2.0842  0.9989
 8845TIP3   OH248025   0.244   0.495  15.819 -0.5176 -0.0619 -0.4733
 8845TIP3    H148026   0.161   0.493  15.868  0.5288  2.8544  1.7314
 8845TIP3    H248027   0.298   0.429  15.860 -1.0814 -0.6140 -0.6036
 8846TIP3   OH248028   1.645   1.951  11.939 -0.6066 -0.4992 -0.3641
 8846TIP3    H148029   1.657   1.858  11.959 -1.7657 -0.9922 -1.7886
 8846TIP3    H248030   1.679   1.962  11.851  1.0580  0.8377  0.3771
 8847TIP3   OH248031   2.903   1.647  13.945 -0.0847 -0.0021  0.4526
 8847TIP3    H148032   2.945   1.711  13.888  0.0174 -0.5019 -0.0368
 8847TIP3    H248033   2.894   1.693  14.029 -2.0207  1.4305 -0.4664
 8848TIP3   OH248034   4.626   0.198   4.011 -0.2199  0.2066  0.8763
 8848TIP3    H148035   4.563   0.265   3.985  0.3859  0.4543  0.0054
 8848TIP3    H248036   4.703   0.248   4.039  0.9884 -0.0605 -1.6372
 8849TIP3   OH248037   2.183   5.023   5.941  0.5167 -0.2771  0.2998
 8849TIP3    H148038   2.212   5.113   5.957 -0.3764 -0.0150  0.5341
 8849TIP3    H248039   2.235   4.993   5.867 -1.1548  1.4388 -1.6895
 8850TIP3   OH248040   6.581   1.460  12.498 -0.0244  0.5985  0.2054
 8850TIP3    H148041   6.626   1.380  12.525 -0.8912  0.5172  1.4889
 8850TIP3    H248042   6.605   1.471  12.406  1.7770  0.0172  0.5570
 8851TIP3   OH248043   5.189   4.334   0.806 -0.0895  0.0289 -0.1472
 8851TIP3    H148044   5.097   4.320   0.783 -0.5356  0.2169  1.4379
 8851TIP3    H248045   5.199   4.429   0.809  0.0877  0.0063 -0.0235
 8852TIP3   OH248046   5.153   6.123   1.209 -0.2316  0.4297 -0.1694
 8852TIP3    H148047   5.072   6.172   1.224 -1.1193 -0.5141 -1.6473
 8852TIP3    H248048   5.211   6.151   1.279 -2.1615  0.4153  1.5280
 8853TIP3   OH248049   3.575   1.457  13.829 -0.0618  0.1384 -0.0313
 8853TIP3    H148050   3.613   1.494  13.749 -0.8328  0.8613 -0.0813
 8853TIP3    H248051   3.557   1.533  13.884 -2.1551 -0.0820 -0.3454
 8854TIP3   OH248052   2.365   0.703  14.963 -0.4146  0.1346  0.2031
 8854TIP3    H148053   2.297   0.738  14.904  1.1870  1.0371 -1.2039
 8854TIP3    H248054   2.392   0.621  14.922 -0.7465 -0.3212  0.8672
 8855TIP3   OH248055   0.458   0.081   0.196  0.6027 -0.6873  0.0732
 8855TIP3    H148056   0.382   0.102   0.251 -0.6983 -2.0386 -1.1193
 8855TIP3    H248057   0.506   0.015   0.245  0.9910  0.1303  0.8100
 8856TIP3   OH248058   0.417   2.831   0.178 -0.6446  0.3548 -0.3802
 8856TIP3    H148059   0.495   2.804   0.129 -1.1242 -0.0702 -0.9105
 8856TIP3    H248060   0.450   2.897   0.239 -0.1587  1.5034 -1.8211
 8857TIP3   OH248061   2.722   0.587  13.076 -0.5525 -0.0906 -0.2273
 8857TIP3    H148062   2.674   0.514  13.116  0.5048 -0.8278 -0.2840
 8857TIP3    H248063   2.812   0.576  13.105 -0.5816  1.9666  0.8533
 8858TIP3   OH248064   4.272   5.318   3.903 -0.6839 -0.4206  0.1577
 8858TIP3    H148065   4.261   5.280   3.816 -1.3540  2.4095 -1.1415
 8858TIP3    H248066   4.364   5.343   3.907 -0.6513 -0.5582  0.2505
 8859TIP3   OH248067   1.328   1.144  12.711 -0.0470  0.6135 -0.5298
 8859TIP3    H148068   1.278   1.145  12.793  0.2153  1.5944 -0.3692
 8859TIP3    H248069   1.304   1.226  12.668  1.2946  1.0257 -0.5334
 8860TIP3   OH248070   4.799   3.383  11.598 -0.1692  0.2022 -0.6920
 8860TIP3    H148071   4.776   3.334  11.519 -0.3237  0.4001 -0.7721
 8860TIP3    H248072   4.735   3.455  11.600 -0.5956 -0.1838 -0.0289
 8861TIP3   OH248073   2.226   0.861   4.942  0.3865  0.4679 -0.2542
 8861TIP3    H148074   2.287   0.887   4.872 -0.4577 -0.8068 -1.5299
 8861TIP3    H248075   2.275   0.796   4.993  0.9863  1.3567  0.3327
 8862TIP3   OH248076   1.386   5.776  12.353 -0.1681  0.5292  0.0449
 8862TIP3    H148077   1.415   5.775  12.262  1.2177  1.8285  0.4265
 8862TIP3    H248078   1.392   5.684  12.381  1.7080  0.4239 -0.5325
 8863TIP3   OH248079   1.993   4.718   0.434  0.2471  0.4962 -0.2372
 8863TIP3    H148080   1.991   4.702   0.528  1.4412  0.9406 -0.1162
 8863TIP3    H248081   1.901   4.728   0.409 -0.3177 -2.3551  0.3703
 8864TIP3   OH248082   2.814   6.205   4.731 -0.5870 -0.3151  0.2933
 8864TIP3    H148083   2.882   6.262   4.768 -0.0449 -0.7321 -0.0466
 8864TIP3    H248084   2.753   6.190   4.803  0.5574 -1.2812  1.1020
 8865TIP3   OH248085   4.198   1.196  15.743  0.5311  0.3188  0.4250
 8865TIP3    H148086   4.132   1.146  15.791 -0.1561  1.0502  0.2701
 8865TIP3    H248087   4.245   1.131  15.691 -1.4786 -0.0142 -1.1154
 8866TIP3   OH248088   2.976   2.909   2.173 -0.3615 -0.2292  0.1451
 8866TIP3    H148089   2.933   2.860   2.244  0.4868  0.3051  1.0557
 8866TIP3    H248090   2.924   2.889   2.095 -1.7171 -0.3173  1.0344
 8867TIP3   OH248091   2.278   4.822   5.343 -0.1041 -0.3572 -0.1914
 8867TIP3    H148092   2.327   4.847   5.422 -0.3897  2.8792 -0.9093
 8867TIP3    H248093   2.321   4.868   5.272 -1.7729 -0.6501 -1.4551
 8868TIP3   OH248094   0.589   5.897   5.336 -0.0837  0.1907  0.2386
 8868TIP3    H148095   0.603   5.986   5.305 -0.3180  0.8349  1.8811
 8868TIP3    H248096   0.659   5.846   5.295  1.4487  1.5660  1.0225
 8869TIP3   OH248097   5.503   0.528   6.132 -0.2035 -0.3252 -0.5094
 8869TIP3    H148098   5.556   0.606   6.151  1.0216 -1.3040  0.2645
 8869TIP3    H248099   5.538   0.495   6.049  0.2721 -0.8308 -0.1225
 8870TIP3   OH248100   0.294   0.660  12.405  0.3608 -0.4391 -0.6188
 8870TIP3    H148101   0.296   0.698  12.493 -1.7254  2.4779 -1.6595
 8870TIP3    H248102   0.363   0.593  12.406  0.0086 -1.0074  3.3685
 8871TIP3   OH248103   2.004   5.784   2.969  0.6492  0.5009 -0.0966
 8871TIP3    H148104   2.084   5.824   3.001  0.8899  2.8589 -3.2050
 8871TIP3    H248105   2.031   5.699   2.934  1.0121 -0.4061  2.2255
 8872TIP3   OH248106   1.489   2.282   3.720  0.7407 -0.6460 -0.2670
 8872TIP3    H148107   1.404   2.243   3.699 -0.1298  1.5685 -1.1370
 8872TIP3    H248108   1.484   2.302   3.814 -0.5024  1.1629 -0.6654
 8873TIP3   OH248109   6.197   1.916   0.525 -0.0088 -0.7138 -0.3768
 8873TIP3    H148110   6.282   1.932   0.483  0.1013 -0.2054  0.0232
 8873TIP3    H248111   6.171   1.829   0.495 -0.3505 -0.0366 -2.2056
 8874TIP3   OH248112   1.746   5.142   5.040  0.9671 -0.2344  0.0034
 8874TIP3    H148113   1.710   5.077   5.100  1.3058 -0.6456 -0.2364
 8874TIP3    H248114   1.726   5.226   5.081 -2.5882 -0.2567 -1.3188
 8875TIP3   OH248115   0.158   0.825  14.500  0.2576 -0.0019 -0.9809
 8875TIP3    H148116   0.161   0.732  14.476 -1.0081 -0.4781  0.5513
 8875TIP3    H248117   0.163   0.871  14.416  0.9894 -1.4275 -1.7673
 8876TIP3   OH248118   6.410   2.937   2.420  0.3724  0.3776  0.4274
 8876TIP3    H148119   6.328   2.934   2.469  0.1699 -0.4804  0.0720
 8876TIP3    H248120   6.417   2.849   2.382  1.9862  0.1018  1.3046
 8877TIP3   OH248121   0.316   2.265  16.376 -0.4156  0.1173 -1.1776
 8877TIP3    H148122   0.405   2.276  16.344 -0.1047 -2.1830 -1.2540
 8877TIP3    H248123   0.271   2.346  16.352  1.9360  1.8691  0.0002
 8878TIP3   OH248124   3.127   1.860   4.204 -0.0757  0.6140  0.3749
 8878TIP3    H148125   3.171   1.856   4.289 -0.3822 -0.2277  0.5057
 8878TIP3    H248126   3.070   1.782   4.203 -1.0088  1.2839 -0.0886
 8879TIP3   OH248127   0.931   6.460   2.191  0.0802 -0.1062 -0.3951
 8879TIP3    H148128   0.900   6.468   2.101 -0.2140  0.0840 -0.2799
 8879TIP3    H248129   0.855   6.426   2.239  0.5600 -1.2368 -0.4178
 8880TIP3   OH248130   3.736   5.713  12.449  0.4056  0.6787  0.1776
 8880TIP3    H148131   3.668   5.650  12.471  2.1084 -1.9564 -1.4549
 8880TIP3    H248132   3.735   5.717  12.353  2.1661  0.9313  0.1336
 8881TIP3   OH248133   1.846   6.677   2.956 -0.2761 -0.1235 -0.2239
 8881TIP3    H148134   1.872   6.744   3.019  1.6569 -1.4299  0.4679
 8881TIP3    H248135   1.929   6.637   2.929 -1.3384 -2.0442 -0.8105
 8882TIP3   OH248136   4.298   1.461   0.404  0.0947  0.1393 -0.4422
 8882TIP3    H148137   4.373   1.410   0.371  0.0822  0.5303 -1.0956
 8882TIP3    H248138   4.325   1.553   0.392 -0.1262  0.2928  0.1696
 8883TIP3   OH248139   0.663   6.006   2.763 -0.2848 -0.1895  0.0782
 8883TIP3    H148140   0.731   5.990   2.829  0.7132 -0.7976 -1.0455
 8883TIP3    H248141   0.603   6.068   2.804  0.3379 -0.5053  1.5219
 8884TIP3   OH248142   0.462   6.034   0.539 -0.5039  0.6119  0.1095
 8884TIP3    H148143   0.433   6.027   0.448 -1.2144  1.6374  0.2410
 8884TIP3    H248144   0.535   6.096   0.536  0.4635 -0.4913  0.0509
 8885TIP3   OH248145   3.768   4.652   4.478 -0.5046  0.4471  0.1472
 8885TIP3    H148146   3.691   4.643   4.534 -1.3675 -2.4057 -1.2597
 8885TIP3    H248147   3.837   4.606   4.524 -0.1866  1.2402  0.4780
 8886TIP3   OH248148   0.202   2.615   1.380 -0.1763  0.4984  0.2162
 8886TIP3    H148149   0.250   2.574   1.451 -1.5731  2.4431  2.4115
 8886TIP3    H248150   0.178   2.543   1.322  1.5835 -1.0524  1.3318
 8887TIP3   OH248151   5.415   1.474   2.860 -0.1684  0.2574  0.4253
 8887TIP3    H148152   5.473   1.454   2.935  0.5123  0.9869  0.1072
 8887TIP3    H248153   5.458   1.432   2.786 -1.3749 -1.3441  0.5762
 8888TIP3   OH248154   6.815   6.373  14.531 -0.0352 -0.0655  0.3597
 8888TIP3    H148155   6.891   6.426  14.503 -1.6842  1.5822 -1.2834
 8888TIP3    H248156   6.747   6.437  14.549 -1.5426 -1.5840  0.2557
 8889TIP3   OH248157   0.603   4.437   0.989  0.6168  0.1256 -0.1850
 8889TIP3    H148158   0.554   4.375   0.935  1.6696 -0.2700 -0.7282
 8889TIP3    H248159   0.551   4.517   0.989 -0.0803 -0.3224 -0.6282
 8890TIP3   OH248160   1.379   0.801   1.223  0.1378 -0.4335  0.0490
 8890TIP3    H148161   1.422   0.716   1.232  0.5323 -0.0724  2.0640
 8890TIP3    H248162   1.295   0.790   1.269  0.0682  0.1910  0.0769
 8891TIP3   OH248163   0.070   2.631  10.695  0.0246 -0.1591  0.6420
 8891TIP3    H148164  -0.025   2.619  10.698  0.0208 -0.2057  0.3985
 8891TIP3    H248165   0.103   2.550  10.655  0.3082 -0.8035  2.1118
 8892TIP3   OH248166   2.115   1.251  16.728  0.3213 -0.0478 -0.2866
 8892TIP3    H148167   2.085   1.180  16.671  2.2859 -1.4555  0.3012
 8892TIP3    H248168   2.168   1.206  16.795  0.4022  1.8425  0.9845
 8893TIP3   OH248169   0.101   6.153  12.609 -0.2283  0.6644  0.4731
 8893TIP3    H148170   0.149   6.130  12.530 -0.0399 -2.3141  1.3386
 8893TIP3    H248171   0.013   6.173  12.579  0.3339  1.5592 -0.6488
 8894TIP3   OH248172   0.352   4.959  12.554  0.4207 -0.5244  0.4897
 8894TIP3    H148173   0.306   4.886  12.513  1.2186 -1.8763  1.8773
 8894TIP3    H248174   0.283   5.022  12.576 -0.2317 -0.6508 -1.0810
 8895TIP3   OH248175   4.151   3.009   3.002  0.5710  0.1105 -0.2043
 8895TIP3    H148176   4.165   2.954   2.926  0.5823 -1.2069  0.7112
 8895TIP3    H248177   4.122   2.948   3.071  1.2242  1.1434  1.0340
 8896TIP3   OH248178   4.087   3.410   6.279  0.5490  0.1065 -0.2154
 8896TIP3    H148179   4.106   3.360   6.358 -1.6069 -0.1801  0.1715
 8896TIP3    H248180   4.056   3.495   6.312 -2.2213 -0.6612 -0.5958
 8897TIP3   OH248181   6.707   6.403  16.310 -0.7066  0.5379  0.2818
 8897TIP3    H148182   6.678   6.312  16.304 -2.0510  0.9864 -0.1930
 8897TIP3    H248183   6.709   6.434  16.220  0.2818  0.8352  0.3954
 8898TIP3   OH248184   1.523   0.449   0.579  1.0755 -0.0681  0.3656
 8898TIP3    H148185   1.511   0.525   0.523  1.1643 -2.0950 -2.6408
 8898TIP3    H248186   1.615   0.427   0.571  0.7779 -1.2750  0.0315
 8899TIP3   OH248187   3.409   0.799   1.409 -0.5625 -0.2138  0.2218
 8899TIP3    H148188   3.360   0.717   1.395 -0.4565 -0.2295 -0.0707
 8899TIP3    H248189   3.437   0.795   1.501 -1.2657 -0.1184  0.4429
 8900TIP3   OH248190   5.350   1.182   2.413  0.0910  0.6685 -0.1811
 8900TIP3    H148191   5.435   1.212   2.446  0.0217  0.9909 -0.3003
 8900TIP3    H248192   5.315   1.256   2.365 -0.6184  0.8084  0.5384
 8901TIP3   OH248193   5.966   1.786  10.916 -0.3826  1.0013  0.1418
 8901TIP3    H148194   5.988   1.798  10.824  4.0808  0.1297  0.8589
 8901TIP3    H248195   5.966   1.875  10.952 -0.8618  1.2481 -0.4598
 8902TIP3   OH248196   6.091   0.419  15.461 -0.1462  0.5032  0.2304
 8902TIP3    H148197   6.157   0.450  15.523  0.0884  0.8348 -0.1865
 8902TIP3    H248198   6.088   0.325  15.475 -0.3465  0.6105  0.9973
 8903TIP3   OH248199   4.401   2.138  15.762  0.0823 -0.3522  0.0555
 8903TIP3    H148200   4.377   2.085  15.839  1.1805  2.6221  2.6932
 8903TIP3    H248201   4.317   2.167  15.726 -0.4918 -0.0063  1.5763
 8904TIP3   OH248202   2.693   2.093  15.957  0.2018 -0.2792  0.0345
 8904TIP3    H148203   2.599   2.072  15.958  0.4809 -2.3991 -3.1990
 8904TIP3    H248204   2.734   2.021  16.006  0.2796 -0.5059 -0.3620
 8905TIP3   OH248205   3.100   1.129  15.682  0.4649  0.7211  0.6870
 8905TIP3    H148206   3.107   1.189  15.607 -0.2701  0.6766  0.5717
 8905TIP3    H248207   3.157   1.167  15.748  1.6814  0.3820 -0.1342
 8906TIP3   OH248208   0.953   4.889   5.317 -0.0874 -0.4083  0.8614
 8906TIP3    H148209   0.882   4.939   5.276  0.0631 -1.1854 -0.4265
 8906TIP3    H248210   0.911   4.844   5.390 -1.0166 -1.0459 -0.0165
 8907TIP3   OH248211   6.459   0.699  12.620  0.0158 -0.3596 -0.1662
 8907TIP3    H148212   6.465   0.720  12.527  1.0368 -1.1373 -0.2938
 8907TIP3    H248213   6.535   0.642  12.637 -0.1990 -0.2949  1.1186
 8908TIP3   OH248214   1.741   6.621  11.179  0.2010  0.3826 -0.1799
 8908TIP3    H148215   1.793   6.616  11.259  1.5084 -2.0266 -1.0974
 8908TIP3    H248216   1.802   6.652  11.112 -0.1621 -0.2120 -0.7966
 8909TIP3   OH248217   5.688   0.648   1.943 -0.3914 -0.2801  0.3476
 8909TIP3    H148218   5.651   0.560   1.936 -0.1213 -0.5426  2.0082
 8909TIP3    H248219   5.625   0.698   1.995 -0.1551  0.2965  0.0968
 8910TIP3   OH248220   0.397   0.142  11.127 -0.1115  0.2445  0.1521
 8910TIP3    H148221   0.465   0.199  11.164 -0.3014  0.4154  0.2417
 8910TIP3    H248222   0.339   0.123  11.200  0.3976 -0.7411  0.3131
 8911TIP3   OH248223   3.167   4.399   2.787 -0.0335  0.3517 -0.1713
 8911TIP3    H148224   3.118   4.435   2.713 -0.2890 -0.6715 -0.5182
 8911TIP3    H248225   3.114   4.325   2.818  0.2745  0.5055  0.7695
 8912TIP3   OH248226   2.564   1.451   6.315 -0.6570  0.8574 -0.2162
 8912TIP3    H148227   2.561   1.543   6.289 -1.0725  1.3379  1.4300
 8912TIP3    H248228   2.474   1.429   6.337 -0.6509 -0.1177 -1.0797
 8913TIP3   OH248229   6.687   2.792  12.373  0.6005 -0.0267  0.0722
 8913TIP3    H148230   6.678   2.867  12.433 -0.8252  0.5867 -0.8395
 8913TIP3    H248231   6.646   2.719  12.420  1.0959 -0.0000  0.5593
 8914TIP3   OH248232   2.056   2.882   6.149 -0.4583  0.6033 -0.2236
 8914TIP3    H148233   2.036   2.904   6.058 -4.0592  0.9596  0.5156
 8914TIP3    H248234   2.083   2.966   6.188  1.6931  0.3402 -0.9782
 8915TIP3   OH248235   5.539   4.093  14.177  0.1511  0.0898 -0.2000
 8915TIP3    H148236   5.582   4.091  14.091  1.0487 -0.9969  0.2456
 8915TIP3    H248237   5.465   4.032  14.168  1.1966 -1.2993  0.2389
 8916TIP3   OH248238   1.614   1.437   3.902 -0.4515  0.0243 -0.7092
 8916TIP3    H148239   1.683   1.379   3.868  0.7811  0.8689  0.2734
 8916TIP3    H248240   1.578   1.478   3.824 -0.3168 -0.9337 -1.2981
 8917TIP3   OH248241   2.802   6.830  12.251 -0.1129  0.5377 -0.3847
 8917TIP3    H148242   2.777   6.922  12.243  0.9205  0.7843 -1.0700
 8917TIP3    H248243   2.886   6.833  12.297 -0.0222 -0.0540 -0.5140
 8918TIP3   OH248244   1.401   0.540  14.297 -0.0827 -0.4759  0.4746
 8918TIP3    H148245   1.398   0.557  14.203  1.6924  0.6110  0.5624
 8918TIP3    H248246   1.473   0.477  14.308  0.1678 -0.0864  1.1427
 8919TIP3   OH248247   3.377   5.091  12.264 -1.0218  0.3188  0.0992
 8919TIP3    H148248   3.365   5.186  12.267 -0.3865  0.4135 -0.2028
 8919TIP3    H248249   3.349   5.060  12.351  1.1334  1.0754  1.1360
 8920TIP3   OH248250   2.053   0.289  12.552 -0.6059  0.0827  0.4000
 8920TIP3    H148251   2.044   0.196  12.571 -1.4220 -0.1660 -1.0522
 8920TIP3    H248252   2.037   0.296  12.458 -0.6843  1.7074  0.5025
 8921TIP3   OH248253   4.050   3.363  12.024  0.2064  0.7460  0.4748
 8921TIP3    H148254   4.027   3.323  12.108 -1.0382 -1.2670 -0.7186
 8921TIP3    H248255   4.139   3.396  12.036  0.1512  0.3016  2.4858
 8922TIP3   OH248256   3.034   5.305  13.998 -0.1090 -0.2047 -0.1964
 8922TIP3    H148257   3.009   5.388  13.958 -2.5650 -0.3446  0.8897
 8922TIP3    H248258   3.050   5.326  14.090 -2.6744 -1.1501  0.5499
 8923TIP3   OH248259   2.709   1.406  14.071 -0.1922 -0.5662 -0.1171
 8923TIP3    H148260   2.798   1.434  14.091 -1.2110  1.1369  2.5737
 8923TIP3    H248261   2.698   1.324  14.118 -0.6777  0.3768  1.5064
 8924TIP3   OH248262   2.960   3.031   1.802  0.4505  0.8813  0.3760
 8924TIP3    H148263   2.964   3.079   1.720 -3.0787  0.4694 -0.2137
 8924TIP3    H248264   2.923   3.094   1.865  1.7937  0.7727  1.3129
 8925TIP3   OH248265   2.330   5.576  15.638  0.2657 -0.2375 -0.1308
 8925TIP3    H148266   2.364   5.655  15.595 -2.5134  0.5400 -1.1040
 8925TIP3    H248267   2.346   5.506  15.575  2.2086 -0.4298  0.4906
 8926TIP3   OH248268   3.398   5.505   3.137  0.4212 -0.1085  0.0384
 8926TIP3    H148269   3.359   5.419   3.125 -1.0304  0.4993  0.2607
 8926TIP3    H248270   3.491   5.492   3.117 -0.0759 -1.3435 -1.6849
 8927TIP3   OH248271   6.115   4.340  12.357  0.1668  0.1409  0.2758
 8927TIP3    H148272   6.196   4.289  12.353  0.4941  0.5399  1.4099
 8927TIP3    H248273   6.046   4.278  12.335  0.6021 -0.7023  1.2181
 8928TIP3   OH248274   4.611   5.528  14.196 -0.1531 -0.1656  0.5439
 8928TIP3    H148275   4.678   5.464  14.219  1.6589  1.0956 -0.9350
 8928TIP3    H248276   4.589   5.507  14.105 -1.2624 -0.1082  0.7900
 8929TIP3   OH248277   5.102   4.738  12.432 -0.1817 -0.0302 -0.0195
 8929TIP3    H148278   5.115   4.813  12.490  1.5057  0.2105 -0.6662
 8929TIP3    H248279   5.098   4.663  12.491 -1.1548  0.4646  0.5813
 8930TIP3   OH248280   6.835   2.184   0.692 -0.0975  0.5894  0.3530
 8930TIP3    H148281   6.880   2.221   0.769  2.2400 -2.7893  0.8262
 8930TIP3    H248282   6.766   2.130   0.729  0.3268 -0.1711  0.0565
 8931TIP3   OH248283   6.754   2.583   1.499 -0.2403 -0.0040  0.3567
 8931TIP3    H148284   6.675   2.588   1.552 -0.2061  0.2099  0.3881
 8931TIP3    H248285   6.791   2.497   1.519  0.6191  0.6881  1.8865
 8932TIP3   OH248286   2.116   0.595   0.522  0.2855 -0.3343  0.0578
 8932TIP3    H148287   2.062   0.606   0.444 -2.1415 -0.1651  1.6588
 8932TIP3    H248288   2.096   0.671   0.576  1.8763 -0.4667  0.8908
 8933TIP3   OH248289   2.413   5.191  13.158  0.4302  0.2246 -0.1473
 8933TIP3    H148290   2.407   5.116  13.099 -0.0220  1.4099 -1.6908
 8933TIP3    H248291   2.339   5.181  13.218  1.5157 -1.5744  1.0027
 8934TIP3   OH248292   5.256   2.516   4.028 -0.2385  0.1839 -0.0265
 8934TIP3    H148293   5.345   2.480   4.028 -0.4952 -0.5837  2.2271
 8934TIP3    H248294   5.261   2.591   3.968  1.3778 -1.0429 -1.5420
 8935TIP3   OH248295   6.401   3.050  15.549 -0.5379  0.1925 -0.3755
 8935TIP3    H148296   6.392   3.121  15.485 -1.2959 -0.8604 -1.4887
 8935TIP3    H248297   6.314   3.039  15.586 -0.0237  1.0524  1.1877
 8936TIP3   OH248298   2.304   2.402  14.591 -0.1595  0.0413  0.2980
 8936TIP3    H148299   2.265   2.354  14.518 -0.1675 -1.7808  1.4452
 8936TIP3    H248300   2.240   2.469  14.613 -0.8414 -0.3694 -0.4013
 8937TIP3   OH248301   2.060   3.007  16.043 -1.0457  0.0705 -0.3615
 8937TIP3    H148302   2.049   3.086  15.989  0.5768  0.0095 -0.8202
 8937TIP3    H248303   2.017   2.938  15.992 -0.3987  0.2079 -1.1235
 8938TIP3   OH248304   0.884   3.100   0.683  0.0751  0.4271  0.4372
 8938TIP3    H148305   0.974   3.107   0.653 -0.3636 -0.9584 -1.4011
 8938TIP3    H248306   0.833   3.090   0.603 -1.4590 -0.9264  1.5277
 8939TIP3   OH248307   4.551   2.790   5.310  0.4120 -0.0033  0.1853
 8939TIP3    H148308   4.640   2.774   5.277  0.2722  1.7545 -1.1892
 8939TIP3    H248309   4.556   2.876   5.353  0.1706 -1.4567  3.4131
 8940TIP3   OH248310   0.044   1.685  16.324 -0.0293  0.5983 -0.0745
 8940TIP3    H148311   0.058   1.599  16.365 -1.4870 -0.3442 -1.4288
 8940TIP3    H248312   0.090   1.746  16.381 -0.3691 -0.8600  1.8855
 8941TIP3   OH248313   2.766   3.671  13.280  0.2075 -0.3841  0.8174
 8941TIP3    H148314   2.852   3.674  13.239  0.2691 -1.2055  0.8668
 8941TIP3    H248315   2.763   3.586  13.324 -0.3669 -0.0806  1.3942
 8942TIP3   OH248316   3.431   0.136   0.702 -0.3024  0.4020  0.1676
 8942TIP3    H148317   3.347   0.091   0.699 -1.7586  2.7378  2.6642
 8942TIP3    H248318   3.453   0.141   0.795  2.6295 -0.0965 -0.3994
 8943TIP3   OH248319   3.392   2.235  15.639 -0.0775 -0.1257 -0.0139
 8943TIP3    H148320   3.422   2.318  15.676 -1.9327  0.8786 -0.6418
 8943TIP3    H248321   3.347   2.260  15.558 -1.4540 -1.6173  0.2376
 8944TIP3   OH248322   1.805   0.617   3.960 -0.5773  0.4978  0.5402
 8944TIP3    H148323   1.868   0.672   4.006  0.4363  1.5180 -1.9210
 8944TIP3    H248324   1.855   0.538   3.937 -0.0849  1.3373 -1.4730
 8945TIP3   OH248325   0.844   1.970  14.677  0.1940  0.4086 -0.7876
 8945TIP3    H148326   0.844   1.879  14.649  0.4768  0.0702  0.2675
 8945TIP3    H248327   0.757   1.984  14.715  0.3724  0.3889 -0.3682
 8946TIP3   OH248328   1.048   3.721   4.502 -0.6177 -0.0282  0.5355
 8946TIP3    H148329   1.070   3.800   4.452  0.3528 -0.3026  0.5115
 8946TIP3    H248330   0.961   3.697   4.471 -0.6593  0.6699  0.0765
 8947TIP3   OH248331   0.595   6.526   5.867 -0.3324  0.5004 -0.4221
 8947TIP3    H148332   0.568   6.554   5.779 -0.4050  1.4070 -0.1208
 8947TIP3    H248333   0.685   6.496   5.857 -0.3650  0.5368 -0.8202
 8948TIP3   OH248334   2.587   3.867  15.938 -0.1694  0.0412  1.0659
 8948TIP3    H148335   2.597   3.937  15.873  1.0177 -1.5732 -0.6027
 8948TIP3    H248336   2.492   3.858  15.948 -0.3466  1.7137  1.1605
 8949TIP3   OH248337   0.258   2.473  16.786 -0.4710 -0.3157 -0.5987
 8949TIP3    H148338   0.189   2.527  16.745  1.3426  1.4598 -1.4934
 8949TIP3    H248339   0.246   2.487  16.880 -0.6440  0.9381 -0.7826
 8950TIP3   OH248340   6.768   0.427  11.239 -0.5326 -0.1363 -0.4193
 8950TIP3    H148341   6.711   0.470  11.302  0.0690  0.9201 -0.5724
 8950TIP3    H248342   6.849   0.479  11.240 -0.6526  0.1775 -2.3408
 8951TIP3   OH248343   3.489   4.391  12.686  0.0253  0.4307  0.2119
 8951TIP3    H148344   3.398   4.362  12.699  0.7927 -1.7056  1.2995
 8951TIP3    H248345   3.492   4.419  12.595 -2.0020  1.7022  0.4608
 8952TIP3   OH248346   5.375   6.684   4.016 -0.4917 -0.0381 -0.2410
 8952TIP3    H148347   5.428   6.652   4.088 -1.2785  0.3426  0.5234
 8952TIP3    H248348   5.285   6.661   4.040 -0.9606  1.6594 -0.2204
 8953TIP3   OH248349   4.116   1.119   2.682 -0.0897 -0.5101  0.4149
 8953TIP3    H148350   4.170   1.040   2.678  2.5908  1.1192  1.4902
 8953TIP3    H248351   4.174   1.185   2.720 -2.4011  1.8378  0.1155
 8954TIP3   OH248352   3.826   6.615   4.215  0.2827  0.5433 -0.2140
 8954TIP3    H148353   3.757   6.559   4.251 -0.1875  1.7745  0.8519
 8954TIP3    H248354   3.898   6.554   4.196 -1.0736 -0.7769 -1.4113
 8955TIP3   OH248355   3.900   0.615  16.121  0.2967  0.2274 -0.3459
 8955TIP3    H148356   3.866   0.552  16.185  0.9675 -0.0581 -0.2520
 8955TIP3    H248357   3.911   0.696  16.170  2.1831 -0.3736  0.3139
 8956TIP3   OH248358   0.089   6.659  10.373  0.2222  0.1848 -0.4095
 8956TIP3    H148359   0.083   6.590  10.439  2.6308  0.0589 -0.2276
 8956TIP3    H248360   0.007   6.706  10.380  0.3739  0.1943  2.7328
 8957TIP3   OH248361   0.647   4.878  15.434 -0.4051 -0.3420  0.2966
 8957TIP3    H148362   0.690   4.826  15.502  0.1849 -0.9792 -0.5381
 8957TIP3    H248363   0.709   4.948  15.415  0.7509 -1.7630 -1.5335
 8958TIP3   OH248364   5.802   5.360  14.168 -0.4691 -0.8791  0.3950
 8958TIP3    H148365   5.801   5.365  14.072 -0.1973  0.3127  0.4344
 8958TIP3    H248366   5.883   5.314  14.189  0.3173  0.3251  0.0767
 8959TIP3   OH248367   1.530   4.390   3.602 -0.0081 -0.4272  0.5783
 8959TIP3    H148368   1.521   4.306   3.648 -1.7794 -1.4001 -1.3349
 8959TIP3    H248369   1.604   4.377   3.543 -0.4703 -0.8062  0.0627
 8960TIP3   OH248370   5.025   6.202  16.657 -0.2885  0.1269 -0.3498
 8960TIP3    H148371   5.116   6.214  16.685 -0.6268  0.1129  0.7938
 8960TIP3    H248372   4.976   6.269  16.704 -0.9826 -0.3729 -0.3410
 8961TIP3   OH248373   3.599   6.200  12.369 -0.4812 -0.2102 -0.3529
 8961TIP3    H148374   3.612   6.263  12.439  0.1217  0.3846 -0.9892
 8961TIP3    H248375   3.505   6.179  12.373 -0.5890  0.3427  0.1708
 8962TIP3   OH248376   0.809   3.625  13.713 -0.0375 -0.0714 -0.0209
 8962TIP3    H148377   0.844   3.574  13.641 -0.6297 -2.1525  1.0966
 8962TIP3    H248378   0.886   3.661  13.757  0.4060 -0.3024 -0.5963
 8963TIP3   OH248379   1.225   3.536  14.846 -0.6238 -0.6831 -0.2900
 8963TIP3    H148380   1.176   3.454  14.852  0.1831 -1.1435  0.3119
 8963TIP3    H248381   1.254   3.540  14.755  2.1179 -2.7936  0.3503
 8964TIP3   OH248382   3.689   3.044   0.233  0.6577  0.0241 -0.3854
 8964TIP3    H148383   3.661   2.983   0.302 -0.2637 -1.7323 -2.2099
 8964TIP3    H248384   3.785   3.042   0.236  0.6520  0.7124  1.4003
 8965TIP3   OH248385   6.699   6.043  12.775  0.4390  0.0770 -0.0698
 8965TIP3    H148386   6.786   6.005  12.761  0.4457 -0.0308  0.2459
 8965TIP3    H248387   6.646   5.970  12.808 -0.5416 -0.5920 -2.8543
 8966TIP3   OH248388   1.616   1.210  12.139  0.2952  0.6241  0.0449
 8966TIP3    H148389   1.547   1.201  12.205  0.4305 -0.9815  0.0160
 8966TIP3    H248390   1.679   1.141  12.161  0.6135  0.4004 -1.4389
 8967TIP3   OH248391   6.127   0.281  16.501  0.4570 -0.4997 -0.0593
 8967TIP3    H148392   6.158   0.194  16.476 -0.0419 -0.2339 -1.7358
 8967TIP3    H248393   6.202   0.321  16.545  1.3612 -1.0879 -1.0032
 8968TIP3   OH248394   4.825   5.329   6.165 -0.0147 -0.2685 -0.0329
 8968TIP3    H148395   4.895   5.332   6.100 -0.6111 -2.0930 -0.8124
 8968TIP3    H248396   4.867   5.297   6.245  0.4405  0.6989  0.1354
 8969TIP3   OH248397   3.417   5.147  15.829 -0.8149 -0.0680 -0.0551
 8969TIP3    H148398   3.407   5.057  15.798  0.6596 -0.2726  0.0290
 8969TIP3    H248399   3.430   5.139  15.923 -2.6388  0.3897  0.2762
 8970TIP3   OH248400   4.920   5.472   5.072  0.1749 -0.1696  0.2663
 8970TIP3    H148401   4.983   5.403   5.049 -0.4440 -0.0548 -2.0712
 8970TIP3    H248402   4.860   5.475   4.997  0.0411  2.7573  0.3738
 8971TIP3   OH248403   3.549   4.209   3.236  0.3249  0.2463 -0.5886
 8971TIP3    H148404   3.622   4.268   3.216  0.6638 -0.4456 -1.4903
 8971TIP3    H248405   3.525   4.229   3.326  1.0035  1.1521 -0.6012
 8972TIP3   OH248406   3.417   0.657  14.730 -0.0045 -0.5686 -0.4580
 8972TIP3    H148407   3.422   0.730  14.668 -1.6688  0.6036  0.6741
 8972TIP3    H248408   3.330   0.619  14.714 -0.1275 -0.7527  0.5881
 8973TIP3   OH248409   5.282   2.745   4.618 -0.0829  0.4513  0.0504
 8973TIP3    H148410   5.341   2.724   4.690 -0.8876 -1.9969  0.0834
 8973TIP3    H248411   5.195   2.736   4.655 -0.5018 -0.1518 -1.0522
 8974TIP3   OH248412   5.740   0.206   4.046 -0.2536 -0.4782 -0.6136
 8974TIP3    H148413   5.653   0.180   4.017 -0.1571 -2.4959  0.7008
 8974TIP3    H248414   5.734   0.301   4.060 -1.5889 -0.2294 -2.5360
 8975TIP3   OH248415   2.307   6.224   2.241  0.2909  0.3426 -0.1843
 8975TIP3    H148416   2.367   6.295   2.263  0.0293  0.4693  0.1136
 8975TIP3    H248417   2.343   6.187   2.159  0.1915  1.0794 -0.5627
 8976TIP3   OH248418   5.877   5.965  16.733 -0.5289  0.1437 -0.0955
 8976TIP3    H148419   5.857   5.972  16.827 -2.6313 -0.1217 -0.4860
 8976TIP3    H248420   5.859   5.873  16.712  1.6291 -0.2460 -0.4384
 8977TIP3   OH248421   1.115   3.257   3.317 -0.2955 -0.2067  0.4572
 8977TIP3    H148422   1.207   3.236   3.303  0.2313  1.4526  1.2088
 8977TIP3    H248423   1.070   3.217   3.243  0.9400 -1.5927  0.4261
 8978TIP3   OH248424   5.558   5.225   4.402 -0.3154 -0.2598 -1.1312
 8978TIP3    H148425   5.532   5.160   4.467  0.4331 -0.9291 -1.4909
 8978TIP3    H248426   5.653   5.227   4.406 -0.2730 -0.1143 -2.0116
 8979TIP3   OH248427   0.994   2.162  14.813 -0.0387 -0.4108 -0.1342
 8979TIP3    H148428   0.969   2.228  14.749  0.3184 -0.2113 -0.0733
 8979TIP3    H248429   0.956   2.081  14.781 -0.5021 -0.1675 -0.1976
 8980TIP3   OH248430   0.387   1.333  10.032  0.0408 -0.5907 -0.5828
 8980TIP3    H148431   0.364   1.249   9.990  0.4963 -0.8018 -0.4184
 8980TIP3    H248432   0.307   1.385  10.027  0.4228 -0.1013 -2.9060
 8981TIP3   OH248433   6.066   3.067  10.550 -0.3351 -0.0403  0.4650
 8981TIP3    H148434   6.001   3.016  10.503  0.0352 -0.5074  0.4545
 8981TIP3    H248435   6.150   3.025  10.529  0.2410  1.7518 -1.2229
 8982TIP3   OH248436   4.726   5.929   1.719 -0.1056  0.5963  0.1762
 8982TIP3    H148437   4.639   5.964   1.700  0.6964  2.5800 -0.0485
 8982TIP3    H248438   4.783   5.965   1.651  1.2114  0.8275  1.3284
 8983TIP3   OH248439   1.662   2.288  14.521  0.5670 -0.0082 -0.4982
 8983TIP3    H148440   1.639   2.303  14.612  2.7301 -2.0628  0.5172
 8983TIP3    H248441   1.582   2.307  14.472 -0.7306  0.9320  1.8229
 8984TIP3   OH248442   6.117   0.091  11.266  0.0579  0.1243 -0.3749
 8984TIP3    H148443   6.120   0.015  11.325 -0.4358 -0.2010 -0.7663
 8984TIP3    H248444   6.177   0.154  11.307 -0.9887  0.2746  1.0002
 8985TIP3   OH248445   6.053   6.626  12.270 -0.0289  0.2637  0.2939
 8985TIP3    H148446   6.087   6.714  12.258 -0.7599  0.5253  0.0511
 8985TIP3    H248447   6.129   6.569  12.258  0.5785  0.8884  1.0956
 8986TIP3   OH248448   2.310   0.042   5.464  0.1896  0.3282 -0.4194
 8986TIP3    H148449   2.259  -0.036   5.485 -0.8102  1.0301 -0.1686
 8986TIP3    H248450   2.334   0.079   5.549  0.2689  0.5455 -0.5347
 8987TIP3   OH248451   5.841   1.831  11.741  0.3083  0.1450 -0.3021
 8987TIP3    H148452   5.910   1.787  11.692  0.4102 -0.9005  0.7312
 8987TIP3    H248453   5.887   1.880  11.809  0.0324 -1.6983  1.2984
 8988TIP3   OH248454   6.663   1.258  15.862  0.2881  0.1937  0.4624
 8988TIP3    H148455   6.701   1.340  15.832  0.1673  0.5004  1.1158
 8988TIP3    H248456   6.667   1.200  15.786  1.3456  0.4617  0.2992
 8989TIP3   OH248457   5.853   0.765   3.626 -0.1084 -0.1528  0.0984
 8989TIP3    H148458   5.783   0.783   3.562 -0.4391  1.5771  0.8854
 8989TIP3    H248459   5.931   0.751   3.573 -0.7591 -0.6655 -0.7472
 8990TIP3   OH248460   6.852   3.785  12.616  0.0816  0.4636 -0.7567
 8990TIP3    H148461   6.937   3.753  12.645  0.0090  0.2819 -0.7401
 8990TIP3    H248462   6.791   3.715  12.641  0.1058  0.0092 -1.9353
 8991TIP3   OH248463   3.912   3.303  14.451 -0.5290 -0.0767  0.6134
 8991TIP3    H148464   3.854   3.364  14.497 -0.3478 -0.9771  2.1128
 8991TIP3    H248465   3.864   3.220  14.450  0.4712 -0.7005  1.4038
 8992TIP3   OH248466   3.153   6.581   5.430 -0.0733 -0.2581 -0.2748
 8992TIP3    H148467   3.249   6.574   5.426  0.0017  0.5827 -0.1633
 8992TIP3    H248468   3.128   6.613   5.344 -0.3335 -1.1586 -0.5478
 8993TIP3   OH248469   3.312   2.570   4.621 -0.4327  0.2921  0.6776
 8993TIP3    H148470   3.217   2.558   4.624 -0.2283 -1.6228  0.7176
 8993TIP3    H248471   3.348   2.481   4.617  1.4332  0.8603  2.6442
 8994TIP3   OH248472   6.557   4.939  11.015 -0.3219 -0.3891 -0.1238
 8994TIP3    H148473   6.480   4.988  11.046  0.5192  0.6511  0.4012
 8994TIP3    H248474   6.622   5.006  10.997 -0.2382 -1.0687 -2.7786
 8995TIP3   OH248475   1.415   1.309  10.508  0.0297  0.0841 -0.6764
 8995TIP3    H148476   1.433   1.382  10.567 -0.3723 -0.1137 -0.3066
 8995TIP3    H248477   1.322   1.291  10.520  0.3164 -1.0741 -0.1004
 8996TIP3   OH248478   2.330   1.940   0.987 -0.0291 -0.2360  0.3734
 8996TIP3    H148479   2.282   1.953   1.068  0.4329 -1.0867  0.7991
 8996TIP3    H248480   2.398   1.877   1.009 -0.0301 -0.6529 -0.7331
 8997TIP3   OH248481   6.136   0.801   4.211 -0.9122 -0.1872  0.1676
 8997TIP3    H148482   6.147   0.889   4.248 -2.2163  0.0383  0.0705
 8997TIP3    H248483   6.054   0.807   4.161 -0.3578 -1.1085 -0.8945
 8998TIP3   OH248484   0.408   6.671  12.121  0.3531 -0.0574  0.1567
 8998TIP3    H148485   0.424   6.690  12.214  0.8043  0.1398  0.0395
 8998TIP3    H248486   0.315   6.650  12.117  0.6230 -1.5195  0.8937
 8999TIP3   OH248487   4.589   1.265   2.617 -0.1406 -0.0228 -0.4055
 8999TIP3    H148488   4.678   1.242   2.645  0.0469  1.0303 -0.0981
 8999TIP3    H248489   4.552   1.311   2.692 -0.5989  0.4292 -0.9047
 9000TIP3   OH248490   1.659   5.359   4.556 -0.2296  0.2558  0.1607
 9000TIP3    H148491   1.677   5.265   4.545 -0.4539  0.2958 -0.5716
 9000TIP3    H248492   1.709   5.383   4.634 -0.8248 -0.6505  0.8511
 9001TIP3   OH248493   4.772   1.985  14.245 -0.0867 -0.2015  0.0152
 9001TIP3    H148494   4.858   1.965  14.282 -0.2282  0.5593  0.7691
 9001TIP3    H248495   4.782   1.968  14.151  0.2788 -2.1776  0.3529
 9002TIP3   OH248496   4.126   4.208  10.814  0.3541 -0.4095  0.1809
 9002TIP3    H148497   4.046   4.156  10.816  0.5367 -0.7066 -0.2317
 9002TIP3    H248498   4.098   4.296  10.837 -0.4638 -0.0397 -1.9970
 9003TIP3   OH248499   2.978   0.990  14.007 -0.0763  0.3205  0.1525
 9003TIP3    H148500   3.016   0.997  14.094 -0.2897  2.6713  0.1260
 9003TIP3    H248501   2.917   0.916  14.013  1.8565 -1.3021  1.1628
 9004TIP3   OH248502   5.565   0.770  12.406  0.1927  0.0495 -0.0857
 9004TIP3    H148503   5.478   0.749  12.373  0.5041 -0.8111 -0.3838
 9004TIP3    H248504   5.615   0.689  12.396  1.0044  0.5060  0.1657
 9005TIP3   OH248505   4.825   1.246  12.282  0.2710 -0.5108  0.1097
 9005TIP3    H148506   4.819   1.293  12.199  2.2674  0.2243  0.3258
 9005TIP3    H248507   4.735   1.245  12.316 -0.1560  1.4149 -0.8428
 9006TIP3   OH248508   4.421   4.024   6.190  0.2826 -0.0011  0.4053
 9006TIP3    H148509   4.491   4.010   6.126  0.3010 -1.6788  0.7613
 9006TIP3    H248510   4.374   3.941   6.193 -0.0798  0.2413  2.1449
 9007TIP3   OH248511   5.115   3.887  14.582 -0.3487 -0.1664  0.4004
 9007TIP3    H148512   5.158   3.964  14.546 -0.9842  0.6740  1.3829
 9007TIP3    H248513   5.044   3.922  14.636 -0.5663 -1.4326  0.9760
 9008TIP3   OH248514   4.175   6.092   3.595  0.5265 -0.1159 -0.3291
 9008TIP3    H148515   4.102   6.128   3.544 -0.5959 -5.3474 -3.0923
 9008TIP3    H248516   4.137   6.066   3.678  0.5853  1.7614  0.3240
 9009TIP3   OH248517   3.563   4.356   2.186 -0.3825 -0.3141 -0.3234
 9009TIP3    H148518   3.546   4.262   2.187  1.0647 -0.6015 -1.1068
 9009TIP3    H248519   3.565   4.381   2.278 -1.2636 -0.9393 -0.1195
 9010TIP3   OH248520   5.275   2.858  13.193  0.1804 -0.5832 -0.0845
 9010TIP3    H148521   5.215   2.817  13.254 -1.3431  1.3728 -0.1639
 9010TIP3    H248522   5.268   2.952  13.212  0.9139 -0.0589 -2.1429
 9011TIP3   OH248523   5.144   0.285   3.752 -0.8766  0.0668  0.3812
 9011TIP3    H148524   5.139   0.317   3.662 -0.3948 -2.2322 -0.5381
 9011TIP3    H248525   5.079   0.215   3.757  0.1060 -0.8360  1.3501
 9012TIP3   OH248526   6.321   3.673   2.888  0.1546  0.1537  0.4594
 9012TIP3    H148527   6.237   3.641   2.922 -0.3552  1.6158  0.6496
 9012TIP3    H248528   6.310   3.671   2.793  0.6676 -1.5689  0.4085
 9013TIP3   OH248529   6.108   5.985   6.078 -0.0508 -0.0863  0.2022
 9013TIP3    H148530   6.090   6.047   6.007 -1.3565 -1.6738 -0.9319
 9013TIP3    H248531   6.201   5.968   6.072 -0.0250  0.3186 -0.7117
 9014TIP3   OH248532   5.652   3.344  13.450 -0.2555  0.4146 -0.2744
 9014TIP3    H148533   5.651   3.425  13.501  0.8100  0.3495 -0.1324
 9014TIP3    H248534   5.737   3.344  13.407 -0.8109  0.0641 -1.4169
 9015TIP3   OH248535   4.866   4.325  13.330  0.5244  0.3880 -0.1303
 9015TIP3    H148536   4.831   4.263  13.393  0.1711  1.3807  0.6810
 9015TIP3    H248537   4.839   4.411  13.363  1.4812  1.0187 -0.9088
 9016TIP3   OH248538   6.226   3.270   0.715  0.7843 -0.0663 -0.8243
 9016TIP3    H148539   6.302   3.234   0.761  0.7408  0.8659  0.0241
 9016TIP3    H248540   6.263   3.305   0.634  1.0478 -0.7391 -1.0045
 9017TIP3   OH248541   6.064   0.851  12.855 -0.3907 -0.0837  0.1308
 9017TIP3    H148542   6.102   0.794  12.788  1.7671 -2.5560  3.1147
 9017TIP3    H248543   6.139   0.895  12.895 -1.5190  0.8792  1.2858
 9018TIP3   OH248544   1.035   0.418  12.513 -0.0718 -0.1891 -0.1708
 9018TIP3    H148545   0.962   0.356  12.523 -0.7215  0.6758  0.5538
 9018TIP3    H248546   1.007   0.477  12.443  0.1353 -0.1277 -0.2015
 9019TIP3   OH248547   0.943   2.631  13.945 -0.1739 -0.6358  0.1265
 9019TIP3    H148548   0.870   2.569  13.947 -1.3980  0.6858 -1.4477
 9019TIP3    H248549   1.009   2.588  13.889 -0.6583 -0.8915 -0.2559
 9020TIP3   OH248550   2.946   0.083   5.115  0.7699  0.4197 -0.3987
 9020TIP3    H148551   3.030   0.087   5.159  1.0469  0.1140 -0.8783
 9020TIP3    H248552   2.965   0.112   5.025  0.6406 -0.8432 -0.8637
 9021TIP3   OH248553   1.868   2.192  15.659 -0.3057 -0.0176 -0.5073
 9021TIP3    H148554   1.864   2.096  15.655  0.9388 -0.1534  0.6828
 9021TIP3    H248555   1.828   2.214  15.743 -0.6009  0.5079 -0.7833
 9022TIP3   OH248556   0.369   6.145  15.594 -0.5204  0.2141 -0.3149
 9022TIP3    H148557   0.385   6.083  15.664  0.8161  0.6170 -0.2373
 9022TIP3    H248558   0.282   6.123  15.561 -1.4717  0.4502  1.9116
 9023TIP3   OH248559   4.759   1.836  10.633  0.0217  0.0597  0.1558
 9023TIP3    H148560   4.704   1.780  10.687 -0.9437 -0.0257 -0.8689
 9023TIP3    H248561   4.714   1.921  10.633 -0.5414 -0.2043 -1.2603
 9024TIP3   OH248562   4.724   5.439   4.402 -0.2966 -0.5156  0.2211
 9024TIP3    H148563   4.720   5.525   4.446  0.2153 -0.5153  0.2718
 9024TIP3    H248564   4.722   5.376   4.474 -1.0567 -0.5603  0.1666
 9025TIP3   OH248565   6.427   5.326  12.601 -0.1278  0.2980  0.2543
 9025TIP3    H148566   6.370   5.269  12.653  1.4215 -0.2980  1.4010
 9025TIP3    H248567   6.443   5.401  12.658 -1.8831  1.7843 -1.1196
 9026TIP3   OH248568   3.872   1.176   4.012  0.3206 -0.1018  0.1821
 9026TIP3    H148569   3.909   1.124   3.941  1.1176  0.5315  0.1267
 9026TIP3    H248570   3.825   1.112   4.066  0.0937 -0.6598 -0.6529
 9027TIP3   OH248571   0.119   3.797   4.710 -0.7080  0.4961 -0.6611
 9027TIP3    H148572   0.141   3.854   4.783 -1.6134 -0.2801  0.2566
 9027TIP3    H248573   0.202   3.758   4.683 -0.5495 -0.4688  1.0719
 9028TIP3   OH248574   5.144   5.556   0.342  0.1500 -0.0306 -0.3726
 9028TIP3    H148575   5.185   5.636   0.308  1.2565 -0.2024  0.5171
 9028TIP3    H248576   5.089   5.525   0.270  1.0548  0.5772 -1.3507
 9029TIP3   OH248577   5.854   3.538  16.290  0.1243 -0.0491  0.4338
 9029TIP3    H148578   5.794   3.467  16.267 -0.0278 -0.6559  2.4925
 9029TIP3    H248579   5.941   3.503  16.272  0.0266 -0.6127  1.0181
 9030TIP3   OH248580   6.084   2.283  15.911  0.3145  0.2661  0.3048
 9030TIP3    H148581   6.166   2.313  15.949 -0.6196  1.5154  1.4085
 9030TIP3    H248582   6.019   2.348  15.938 -1.1764 -1.0376  0.0163
 9031TIP3   OH248583   0.911   4.101  11.019  0.3508 -0.1114 -0.6864
 9031TIP3    H148584   0.941   4.065  10.935 -0.5870 -1.6271 -0.4062
 9031TIP3    H248585   0.821   4.071  11.027  0.4133  0.0298  0.8421
 9032TIP3   OH248586   2.777   4.907  10.733  0.1559  0.2967  0.8783
 9032TIP3    H148587   2.838   4.944  10.668  0.7169 -1.8768  0.1024
 9032TIP3    H248588   2.692   4.946  10.711  0.8630  1.8391  0.7199
 9033TIP3   OH248589   0.734   6.506   3.162  0.4534 -0.5470  0.1493
 9033TIP3    H148590   0.808   6.566   3.152  0.5655 -0.6542  0.3368
 9033TIP3    H248591   0.692   6.505   3.076 -0.3238  0.8139  0.4859
 9034TIP3   OH248592   3.608   3.948  11.570 -0.1529  0.0274 -0.2992
 9034TIP3    H148593   3.681   4.007  11.552  0.3319 -0.0905  1.1617
 9034TIP3    H248594   3.553   3.954  11.492  2.5723 -1.7122 -2.5241
 9035TIP3   OH248595   3.723   6.094  15.205  0.0312 -0.4428 -0.2633
 9035TIP3    H148596   3.637   6.136  15.199  0.3395  0.5043  1.3073
 9035TIP3    H248597   3.766   6.119  15.123 -1.2148 -1.0573 -1.1444
 9036TIP3   OH248598   1.675   2.349   0.504  0.2183 -0.2682  0.5474
 9036TIP3    H148599   1.610   2.381   0.442 -0.1711 -0.9340  0.5915
 9036TIP3    H248600   1.758   2.356   0.458  0.1043  0.5033  0.4530
 9037TIP3   OH248601   6.219   0.400   4.357  0.3661 -0.2573  0.0927
 9037TIP3    H148602   6.140   0.452   4.373  1.6898  2.1785 -0.6934
 9037TIP3    H248603   6.186   0.314   4.330 -1.9927  0.4860  0.3510
 9038TIP3   OH248604   5.604   6.590   5.016  0.3114  0.2713  0.0129
 9038TIP3    H148605   5.595   6.496   5.000  0.6212 -0.0978  1.7306
 9038TIP3    H248606   5.698   6.603   5.029  0.4063  1.0446 -1.2937
 9039TIP3   OH248607   3.715   2.856  11.999  0.2227 -0.4943  0.0882
 9039TIP3    H148608   3.637   2.805  12.023  0.4938 -0.9191  0.0677
 9039TIP3    H248609   3.762   2.868  12.082  0.0715 -0.1233  0.1235
 9040TIP3   OH248610   1.865   6.379  15.469  0.0886 -0.3293  0.0616
 9040TIP3    H148611   1.781   6.342  15.497 -0.8295  1.2235 -0.5061
 9040TIP3    H248612   1.877   6.457  15.523 -0.9484  1.8305 -2.5895
 9041TIP3   OH248613   2.698   2.202  16.697 -0.3374  0.1052  0.0170
 9041TIP3    H148614   2.616   2.249  16.681 -0.3430 -0.3002 -1.2493
 9041TIP3    H248615   2.682   2.152  16.776 -1.5837 -0.5479 -0.6260
 9042TIP3   OH248616   6.219   2.340   0.588  0.1033 -0.3347  0.0990
 9042TIP3    H148617   6.136   2.292   0.588 -1.2266  1.7771 -1.6472
 9042TIP3    H248618   6.195   2.428   0.618  1.5963  0.4581 -0.9270
 9043TIP3   OH248619   6.139   5.521  17.098 -0.5767  0.0376 -0.0693
 9043TIP3    H148620   6.140   5.537  17.192  1.6566  2.1551 -0.3614
 9043TIP3    H248621   6.066   5.573  17.066 -0.8922 -0.1075  0.4010
 9044TIP3   OH248622   4.650   1.331  11.526  0.2286 -0.6134  0.4518
 9044TIP3    H148623   4.741   1.302  11.519 -0.0359 -1.3587  0.1168
 9044TIP3    H248624   4.598   1.252  11.517 -0.4500 -0.2542  1.0901
 9045TIP3   OH248625   4.356   6.764  10.732  0.9786 -0.4602 -0.5257
 9045TIP3    H148626   4.436   6.767  10.679 -0.4311 -0.3423 -2.7993
 9045TIP3    H248627   4.372   6.827  10.802  1.3324  2.8525 -3.3405
 9046TIP3   OH248628   6.265   2.168  15.394  0.1507 -0.4229  0.0055
 9046TIP3    H148629   6.314   2.222  15.455 -0.6524  1.5139 -0.9823
 9046TIP3    H248630   6.244   2.088  15.443  0.8355  0.4184  1.7277
 9047TIP3   OH248631   1.871   4.539  10.293 -0.5545  0.4163  0.4156
 9047TIP3    H148632   1.960   4.529  10.327 -0.5442 -1.6158 -0.0502
 9047TIP3    H248633   1.852   4.632  10.302  2.5578  1.4272 -1.7114
 9048TIP3   OH248634   4.924   2.990   5.233 -0.5558  0.1983 -0.0149
 9048TIP3    H148635   4.879   2.906   5.234 -0.7161  0.2717 -0.4712
 9048TIP3    H248636   4.855   3.053   5.212 -0.6940  0.6191  1.5575
 9049TIP3   OH248637   2.637   2.597  16.082 -0.4350  0.2110  0.0947
 9049TIP3    H148638   2.709   2.631  16.134 -1.1297  0.3530  0.9970
 9049TIP3    H248639   2.579   2.555  16.145 -0.9635 -0.2268 -0.6534
 9050TIP3   OH248640   3.101   4.712   1.111 -0.2758 -0.1387  0.3077
 9050TIP3    H148641   3.095   4.796   1.065  1.8175  0.4296  0.9667
 9050TIP3    H248642   3.109   4.647   1.041  2.8368  0.7092 -0.2875
 9051TIP3   OH248643   5.304   4.067  11.683  0.1980  0.0594 -0.4933
 9051TIP3    H148644   5.372   4.131  11.661  1.7562 -0.4403  2.4052
 9051TIP3    H248645   5.299   4.010  11.606  0.3832  2.2498 -2.2346
 9052TIP3   OH248646   1.264   2.189  16.744  0.0550  0.0035 -0.0234
 9052TIP3    H148647   1.211   2.254  16.697 -1.2123 -1.0902 -0.1616
 9052TIP3    H248648   1.208   2.160  16.816  1.8376  1.4192  2.0689
 9053TIP3   OH248649   0.190   3.124  16.569  0.0668  0.2653  0.0872
 9053TIP3    H148650   0.175   3.211  16.531 -0.7875  0.1147  0.0562
 9053TIP3    H248651   0.183   3.139  16.664 -0.7203  0.1245  0.0579
 9054TIP3   OH248652   1.135   2.134  15.625 -0.4235  0.9262  0.4906
 9054TIP3    H148653   1.114   2.116  15.534  0.1435 -0.7663  0.6653
 9054TIP3    H248654   1.231   2.139  15.627 -0.4562  1.5640  0.9034
 9055TIP3   OH248655   6.600   6.698   0.721 -0.2458  0.4533  0.3913
 9055TIP3    H148656   6.650   6.618   0.705 -1.7201 -0.7522  1.5703
 9055TIP3    H248657   6.653   6.746   0.785 -0.2277 -0.4852  1.1114
 9056TIP3   OH248658   6.248   6.844   0.082 -0.2334  1.1432 -0.4902
 9056TIP3    H148659   6.261   6.749   0.079 -2.6302  0.7630 -1.6893
 9056TIP3    H248660   6.311   6.879   0.020 -0.9020  0.0633 -1.8266
 9057TIP3   OH248661   0.161   4.432  13.699  0.5372  0.0204  0.0038
 9057TIP3    H148662   0.100   4.389  13.640  0.9280 -1.2957  0.5098
 9057TIP3    H248663   0.202   4.360  13.747  1.2049  0.9741  0.9134
 9058TIP3   OH248664   2.773   3.766   1.382  0.6339  0.3177 -0.0463
 9058TIP3    H148665   2.704   3.705   1.406  1.1259  0.3292  1.5912
 9058TIP3    H248666   2.750   3.798   1.295 -0.8919 -0.4020  0.0776
 9059TIP3   OH248667   0.337   1.583   0.292  0.2281  0.0663 -0.1327
 9059TIP3    H148668   0.253   1.592   0.248 -0.0459 -1.0472  0.1223
 9059TIP3    H248669   0.402   1.585   0.222 -0.0270  0.7403 -0.3503
 9060TIP3   OH248670   0.849   4.109   3.282  0.0238 -0.2234 -0.5123
 9060TIP3    H148671   0.874   4.198   3.259 -0.6676 -0.2958 -1.5916
 9060TIP3    H248672   0.932   4.061   3.291  0.3438  0.1113 -1.6328
 9061TIP3   OH248673   0.314   6.598  13.469 -0.0521  0.0479 -0.6826
 9061TIP3    H148674   0.301   6.598  13.375  4.9046 -1.6639 -1.6594
 9061TIP3    H248675   0.350   6.685  13.489 -0.4632  0.1732 -0.4739
 9062TIP3   OH248676   0.637   4.163   1.487  0.0239 -0.3237 -0.3377
 9062TIP3    H148677   0.569   4.230   1.490  1.1600  0.8616  0.4172
 9062TIP3    H248678   0.687   4.183   1.407  1.0201  0.4748  0.4395
 9063TIP3   OH248679   3.276   3.715   6.435  0.3145 -0.0042  0.0387
 9063TIP3    H148680   3.183   3.732   6.421  0.3031  1.8452  1.8563
 9063TIP3    H248681   3.307   3.792   6.482  2.3472 -1.4481  1.1941
 9064TIP3   OH248682   2.844   0.676  14.659 -0.3463  0.3099  0.5237
 9064TIP3    H148683   2.783   0.689  14.586  0.6967 -0.9618 -0.6287
 9064TIP3    H248684   2.928   0.705  14.625 -0.2565  2.2799  2.1809
 9065TIP3   OH248685   2.442   4.289  10.606 -0.6148  0.0386 -0.6630
 9065TIP3    H148686   2.366   4.347  10.610 -0.8434 -0.3138  1.5028
 9065TIP3    H248687   2.407   4.202  10.623  0.2877 -0.0705  0.7903
 9066TIP3   OH248688   4.037   5.514  14.154 -0.4936 -0.2351  0.8250
 9066TIP3    H148689   4.075   5.428  14.140  0.2169  0.4718 -2.4986
 9066TIP3    H248690   4.111   5.570  14.178 -0.4162 -0.0141  0.1059
 9067TIP3   OH248691   6.598   2.657  15.310  0.2509  0.6225  0.3440
 9067TIP3    H148692   6.669   2.594  15.315 -0.1712  0.0930 -0.1210
 9067TIP3    H248693   6.519   2.604  15.296 -0.2673  1.1813  1.0612
 9068TIP3   OH248694   2.566   4.990   4.338  0.1212 -0.1060 -0.5401
 9068TIP3    H148695   2.584   4.921   4.275 -1.1675 -0.6605 -0.3361
 9068TIP3    H248696   2.472   4.983   4.355  0.1385  1.1196  0.1663
 9069TIP3   OH248697   3.924   2.547   3.248  0.3116  0.0790  0.5768
 9069TIP3    H148698   3.863   2.564   3.320  0.5019  0.9783  0.5364
 9069TIP3    H248699   4.007   2.524   3.291  0.5606  1.0984  0.6611
 9070TIP3   OH248700   3.209   5.208   2.064  0.7851 -0.0763 -0.1245
 9070TIP3    H148701   3.139   5.265   2.095  0.9050 -0.0731  0.1423
 9070TIP3    H248702   3.164   5.129   2.034  0.4844  0.7032 -1.8253
 9071TIP3   OH248703   6.508   4.015  13.620  0.2619 -0.1852 -0.0322
 9071TIP3    H148704   6.486   3.924  13.640  0.9795 -0.8466 -2.0429
 9071TIP3    H248705   6.574   4.009  13.551  2.4736  1.8265  1.7605
 9072TIP3   OH248706   1.202   3.968  11.096 -0.1669 -0.3503  0.1882
 9072TIP3    H148707   1.147   3.991  11.021  0.9738  1.8024 -0.0625
 9072TIP3    H248708   1.140   3.958  11.169 -0.9599  2.0821 -0.0706
 9073TIP3   OH248709   0.245   4.718  12.424 -0.0120 -0.7606 -0.1059
 9073TIP3    H148710   0.178   4.729  12.491 -0.6457 -0.0671 -0.8251
 9073TIP3    H248711   0.213   4.646  12.369 -0.2304 -0.3813 -0.4929
 9074TIP3   OH248712   3.031   5.965   2.093 -0.1904 -0.5027 -0.1781
 9074TIP3    H148713   2.955   5.915   2.124 -1.9524  2.3548  0.5842
 9074TIP3    H248714   3.057   6.018   2.169  1.6809 -0.3711 -0.8620
 9075TIP3   OH248715   2.841   5.714   2.764  0.0202 -0.0660  0.1992
 9075TIP3    H148716   2.902   5.655   2.808  0.7931  0.5249 -0.0540
 9075TIP3    H248717   2.896   5.765   2.705 -0.6414  0.8818  0.3821
 9076TIP3   OH248718   4.300   3.755   3.522  0.5077 -0.8510  0.6204
 9076TIP3    H148719   4.274   3.838   3.482  1.1946 -0.6257  0.6288
 9076TIP3    H248720   4.237   3.692   3.489  0.3416 -0.4350  0.1335
 9077TIP3   OH248721   1.347   3.970  15.023  0.0631 -0.3752  0.2340
 9077TIP3    H148722   1.386   3.889  14.992  2.3270  0.6583  0.1862
 9077TIP3    H248723   1.253   3.951  15.029  0.0117 -1.9390 -3.1382
 9078TIP3   OH248724   4.677   5.828  13.068  0.4302 -0.1565 -0.2840
 9078TIP3    H148725   4.682   5.892  12.997 -0.1716  1.6070  1.1988
 9078TIP3    H248726   4.764   5.829  13.108  0.6303 -0.8102 -0.6814
 9079TIP3   OH248727   4.629   4.130  13.366 -0.1692 -0.1092  0.0592
 9079TIP3    H148728   4.586   4.048  13.344 -0.4426 -0.1501  0.7312
 9079TIP3    H248729   4.627   4.181  13.285 -1.1867 -0.2380 -0.0079
 9080TIP3   OH248730   3.143   3.065  15.077 -0.2114  0.1132 -1.0169
 9080TIP3    H148731   3.059   3.110  15.072  0.4651  1.3416 -1.8984
 9080TIP3    H248732   3.207   3.135  15.090  0.7823 -0.7075 -1.3442
 9081TIP3   OH248733   1.918   4.700   4.858  0.2602 -0.2333  0.4474
 9081TIP3    H148734   1.899   4.698   4.952 -0.1051  0.1218  0.3864
 9081TIP3    H248735   1.965   4.783   4.845  1.0186 -0.6584  0.4439
 9082TIP3   OH248736   6.542   0.712  15.761  0.3023  0.2782  0.1310
 9082TIP3    H148737   6.592   0.645  15.714 -0.7997  0.2333 -1.0122
 9082TIP3    H248738   6.589   0.793  15.744  0.8364  0.0166  0.3321
 9083TIP3   OH248739   3.286   0.166   6.524  0.1331 -0.2514  0.6751
 9083TIP3    H148740   3.293   0.161   6.429  1.9508 -2.4783  0.8350
 9083TIP3    H248741   3.212   0.109   6.545  0.5362 -0.8177  0.6169
 9084TIP3   OH248742   1.520   2.383   2.268  0.0685  0.1423 -0.3450
 9084TIP3    H148743   1.527   2.449   2.336 -0.8464  0.1816 -0.2880
 9084TIP3    H248744   1.605   2.339   2.269  0.6996  1.3167 -0.3993
 9085TIP3   OH248745   6.776   3.822   2.471 -0.3540  0.0883 -0.2011
 9085TIP3    H148746   6.789   3.777   2.555  1.5341  1.3999  0.2566
 9085TIP3    H248747   6.859   3.810   2.424 -0.5687  1.3070 -0.9330
 9086TIP3   OH248748   6.443   5.336   1.044  0.0591 -0.2295 -0.3970
 9086TIP3    H148749   6.413   5.281   0.972  1.4745  1.1818 -2.1429
 9086TIP3    H248750   6.365   5.383   1.072 -0.8664 -2.0135  0.1739
 9087TIP3   OH248751   3.065   4.143  12.726  0.5216 -0.2807 -0.5714
 9087TIP3    H148752   3.129   4.122  12.658  0.6768 -2.0807  0.0815
 9087TIP3    H248753   2.980   4.133  12.683  0.6254 -1.0842 -0.5978
 9088TIP3   OH248754   0.989   2.393  15.574 -0.2095 -0.0198  0.0409
 9088TIP3    H148755   1.015   2.301  15.583  0.5992  0.2800  0.8665
 9088TIP3    H248756   1.072   2.441  15.574 -0.2500  0.4829 -4.1158
 9089TIP3   OH248757   3.273   3.058  15.703  0.4896 -0.1127 -0.0603
 9089TIP3    H148758   3.309   2.977  15.738  0.3294 -0.7591 -1.3439
 9089TIP3    H248759   3.342   3.093  15.646  1.5761  1.9976  2.3588
 9090TIP3   OH248760   5.802   0.390  13.276 -0.5773  0.1163  0.0767
 9090TIP3    H148761   5.859   0.321  13.310  1.3386  1.2964 -0.6179
 9090TIP3    H248762   5.766   0.354  13.195 -1.1825 -0.7715  0.7067
 9091TIP3   OH248763   0.700   3.853   2.818  0.3504 -0.9673 -0.0891
 9091TIP3    H148764   0.636   3.843   2.889 -1.9610 -0.8683 -2.0254
 9091TIP3    H248765   0.761   3.918   2.851 -1.8934  0.7304  1.0322
 9092TIP3   OH248766   3.065   0.304   1.810 -0.1616  0.1280 -0.0725
 9092TIP3    H148767   3.075   0.237   1.878  1.2025  1.9626  1.6700
 9092TIP3    H248768   3.065   0.255   1.728 -0.4449 -2.0821  1.1590
 9093TIP3   OH248769   3.788   4.435  11.656  0.6072 -1.0058  0.0101
 9093TIP3    H148770   3.823   4.467  11.573 -0.0814 -0.0117  0.0850
 9093TIP3    H248771   3.845   4.474  11.723  2.8349 -3.9165 -0.0173
 9094TIP3   OH248772   0.191   4.898   1.962 -0.0113  0.5792 -1.1213
 9094TIP3    H148773   0.274   4.854   1.982 -0.3162 -0.1351 -1.3890
 9094TIP3    H248774   0.125   4.851   2.013 -0.1929  1.4740 -0.4989
 9095TIP3   OH248775   3.997   5.035  16.950  0.0170  0.0852  0.5274
 9095TIP3    H148776   4.009   4.940  16.949 -0.3257  0.0379 -0.2564
 9095TIP3    H248777   3.983   5.057  17.042 -1.6369 -0.8594  0.5323
 9096TIP3   OH248778   3.138   2.460  13.077 -0.4939 -0.4671  0.5666
 9096TIP3    H148779   3.225   2.486  13.044  0.0789 -0.0592  2.2630
 9096TIP3    H248780   3.081   2.533  13.053  0.1087  0.2489  1.2347
 9097TIP3   OH248781   0.246   5.119  12.123  0.6900 -0.0290  0.1793
 9097TIP3    H148782   0.255   5.053  12.054 -0.4870  1.6596 -1.6477
 9097TIP3    H248783   0.293   5.195  12.090 -1.2822  1.3687  0.4594
 9098TIP3   OH248784   6.372   6.509   3.036 -0.1151 -0.1845 -0.5260
 9098TIP3    H148785   6.443   6.572   3.024 -0.4442 -0.0035 -1.6080
 9098TIP3    H248786   6.319   6.545   3.107 -0.7122  1.1677 -1.6003
 9099TIP3   OH248787   4.015   1.047  14.299  0.0422  0.0121  0.2344
 9099TIP3    H148788   3.990   1.039  14.391  0.6379 -1.0530  0.3169
 9099TIP3    H248789   4.010   1.141  14.281  0.7548  0.3345  1.5917
 9100TIP3   OH248790   5.031   5.200  11.293 -0.0438  0.3581 -0.7653
 9100TIP3    H148791   5.018   5.294  11.276 -4.1849 -0.2054 -2.0019
 9100TIP3    H248792   5.020   5.191  11.388 -1.7503  0.9797 -0.8658
 9101TIP3   OH248793   5.157   1.213  11.315  0.3003 -0.1720 -0.2540
 9101TIP3    H148794   5.140   1.289  11.261  0.4943 -0.3392 -0.5548
 9101TIP3    H248795   5.237   1.236  11.364  0.2003 -0.0740 -0.1353
 9102TIP3   OH248796   4.435   5.259  10.942  0.3156  0.1721  0.1664
 9102TIP3    H148797   4.477   5.211  11.014 -0.5323 -0.3295  0.3453
 9102TIP3    H248798   4.412   5.192  10.878 -1.6820  0.1720  0.8156
 9103TIP3   OH248799   2.677   3.725   3.735  0.2772 -0.6347  0.0302
 9103TIP3    H148800   2.739   3.779   3.686  1.7504 -2.7115 -0.5752
 9103TIP3    H248801   2.690   3.750   3.826  2.1600 -1.0763 -0.0733
 9104TIP3   OH248802   0.027   4.924  14.924  0.2373 -0.5405 -0.1116
 9104TIP3    H148803   0.012   4.995  14.987  2.8095 -0.5559  0.6646
 9104TIP3    H248804   0.030   4.967  14.839 -0.8116 -0.1303  0.0489
 9105TIP3   OH248805   6.094   0.121  13.627  0.1094  0.2662  0.3989
 9105TIP3    H148806   6.021   0.150  13.681 -1.8423 -1.0004 -1.4299
 9105TIP3    H248807   6.133   0.202  13.593 -4.2599  1.1488 -3.4124
 9106TIP3   OH248808   1.712   3.939  17.078  0.1557  0.3949 -0.1159
 9106TIP3    H148809   1.738   3.870  17.017 -0.4017 -0.5201  0.6518
 9106TIP3    H248810   1.650   3.993  17.028 -1.4922 -1.2343  0.0808
 9107TIP3   OH248811   1.523   4.351   2.661 -0.1750  0.0171  0.2749
 9107TIP3    H148812   1.428   4.360   2.664 -0.3045 -1.1418  0.3561
 9107TIP3    H248813   1.538   4.256   2.659  0.9805  0.1794  0.3125
 9108TIP3   OH248814   6.205   1.245  15.772  0.5683 -0.0431 -0.3014
 9108TIP3    H148815   6.238   1.165  15.729 -0.1467  1.1453 -3.3213
 9108TIP3    H248816   6.281   1.302  15.777  1.0508 -0.7786  1.7489
 9109TIP3   OH248817   2.149   5.253   4.430 -0.3573 -0.0515  0.2715
 9109TIP3    H148818   2.099   5.276   4.509  0.5554  1.3701  0.4680
 9109TIP3    H248819   2.212   5.187   4.460 -0.9032 -0.5245  0.4107
 9110TIP3   OH248820   6.203   2.463   2.120  0.3731  0.1450  0.5678
 9110TIP3    H148821   6.194   2.431   2.210  0.6420 -3.1012 -0.4516
 9110TIP3    H248822   6.297   2.475   2.108  0.5151 -1.1872  0.2133
 9111TIP3   OH248823   3.052   5.892  10.342 -0.5271 -0.1414 -0.4161
 9111TIP3    H148824   2.966   5.894  10.300 -0.8737  0.6635  0.2957
 9111TIP3    H248825   3.058   5.977  10.387 -0.8686 -1.5636  2.5234
 9112TIP3   OH248826   5.318   0.532   2.949  0.2085 -0.2776  0.1519
 9112TIP3    H148827   5.318   0.610   2.895  1.1692  0.6886  1.4645
 9112TIP3    H248828   5.226   0.511   2.963 -0.0511  0.4850 -0.3919
 9113TIP3   OH248829   0.985   5.293   2.717  0.0408  0.3825  0.1878
 9113TIP3    H148830   1.078   5.280   2.735  0.0066 -1.3023 -0.6414
 9113TIP3    H248831   0.970   5.247   2.635 -1.2922  1.6873 -0.3435
 9114TIP3   OH248832   3.730   5.165  15.168 -0.3945 -0.3640  0.2773
 9114TIP3    H148833   3.716   5.114  15.248 -0.2704 -0.7688  0.0477
 9114TIP3    H248834   3.663   5.133  15.107 -0.2886 -0.2852  0.1186
 9115TIP3   OH248835   3.821   2.768  13.216 -0.2547 -0.2929  0.1877
 9115TIP3    H148836   3.857   2.810  13.295 -0.0289 -1.1096  0.5227
 9115TIP3    H248837   3.808   2.841  13.155  0.8600  0.1782  0.4814
 9116TIP3   OH248838   3.493   0.705  11.192  0.3185  0.1185 -0.0651
 9116TIP3    H148839   3.555   0.778  11.194 -0.3811  0.7452  1.4623
 9116TIP3    H248840   3.415   0.742  11.150  0.7890 -0.5292 -1.5666
 9117TIP3   OH248841   0.073   2.878  13.249  0.3323  0.0740  0.4789
 9117TIP3    H148842   0.075   2.955  13.193 -0.3903 -1.1275 -1.2818
 9117TIP3    H248843  -0.017   2.874  13.281  0.1603 -0.4258 -0.0430
 9118TIP3   OH248844   1.529   4.705  12.142  0.1559  1.1337 -0.6538
 9118TIP3    H148845   1.481   4.692  12.224  1.2489 -0.0324 -0.1718
 9118TIP3    H248846   1.588   4.778  12.160 -0.6157  1.8340 -0.8907
 9119TIP3   OH248847   5.069   2.704   1.554  0.2651 -0.2647 -0.7204
 9119TIP3    H148848   5.048   2.657   1.636  1.2522  1.9189  0.8695
 9119TIP3    H248849   4.990   2.754   1.535  0.7210  0.8055  0.0910
 9120TIP3   OH248850   4.837   0.850  14.753 -0.1179 -0.4123  0.1633
 9120TIP3    H148851   4.789   0.772  14.726 -0.0067 -0.8535  1.1792
 9120TIP3    H248852   4.778   0.923  14.737 -0.6454 -0.8245  0.2339
 9121TIP3   OH248853   6.832   4.536  15.581  0.6180 -0.6182  0.2557
 9121TIP3    H148854   6.885   4.608  15.546  0.5210 -0.1214  1.1123
 9121TIP3    H248855   6.787   4.501  15.504 -0.1910  0.9516 -0.0361
 9122TIP3   OH248856   0.973   0.190   4.015 -0.0672 -0.2021  0.1770
 9122TIP3    H148857   0.997   0.247   4.088 -0.6030 -0.9905  0.9961
 9122TIP3    H248858   1.007   0.234   3.938 -0.6664  1.3444  0.7534
 9123TIP3   OH248859   0.310   1.296   4.359 -0.1842  0.6161  0.5050
 9123TIP3    H148860   0.253   1.354   4.308  0.8401  1.2049 -0.0036
 9123TIP3    H248861   0.302   1.211   4.315 -0.3509  0.7976  0.1785
 9124TIP3   OH248862   3.096   3.371  16.655 -0.3352  0.0965 -0.4271
 9124TIP3    H148863   3.067   3.376  16.564 -1.2973  0.5634 -0.0983
 9124TIP3    H248864   3.105   3.278  16.672 -0.4633 -0.0059 -0.9037
 9125TIP3   OH248865   3.099   1.217  11.004  0.4027  0.1586 -0.1516
 9125TIP3    H148866   3.150   1.276  10.949  0.7562 -0.0986 -0.1083
 9125TIP3    H248867   3.101   1.133  10.957 -1.9006  0.6697 -1.3143
 9126TIP3   OH248868   0.013   5.164  16.108 -0.7701  0.0391  0.0872
 9126TIP3    H148869   0.053   5.102  16.169  0.5306 -1.2365 -1.9500
 9126TIP3    H248870  -0.066   5.119  16.077  0.2502 -0.7812 -1.5033
 9127TIP3   OH248871   6.681   5.969   5.419 -0.9996 -0.5048  0.1385
 9127TIP3    H148872   6.752   6.019   5.377 -1.1888 -0.6238 -0.3304
 9127TIP3    H248873   6.632   5.932   5.346 -1.4316 -0.5854  0.4698
 9128TIP3   OH248874   2.619   4.748   5.437 -0.4734 -0.4883 -0.2513
 9128TIP3    H148875   2.533   4.715   5.410 -0.5232 -0.4573 -0.1345
 9128TIP3    H248876   2.657   4.676   5.488 -0.8883 -0.1029  0.6292
 9129TIP3   OH248877   4.843   0.252  13.811 -0.1796  0.0746  0.4072
 9129TIP3    H148878   4.904   0.254  13.737 -0.1867  1.1661  0.4110
 9129TIP3    H248879   4.840   0.160  13.837 -1.7140 -0.7147 -2.2059
 9130TIP3   OH248880   1.489   2.177   5.859  0.1920 -0.1161 -0.1493
 9130TIP3    H148881   1.466   2.120   5.786  0.1477  0.0411 -0.2592
 9130TIP3    H248882   1.429   2.151   5.929 -1.8187  1.6686 -1.0667
 9131TIP3   OH248883   5.415   4.977  16.164 -0.0972 -0.1444  0.5053
 9131TIP3    H148884   5.346   4.960  16.100  1.1504 -2.4451 -0.3376
 9131TIP3    H248885   5.440   4.890  16.196  2.2979  0.6098  0.8755
 9132TIP3   OH248886   4.493   3.802  16.599  0.3840  0.3375  0.1979
 9132TIP3    H148887   4.477   3.735  16.533  1.6478 -0.0875  0.3010
 9132TIP3    H248888   4.424   3.789  16.665 -0.1840  0.0284 -0.4515
 9133TIP3   OH248889   0.870   5.198   2.494 -0.1991  0.1999 -0.3361
 9133TIP3    H148890   0.792   5.142   2.495 -0.1323  0.1061  1.0147
 9133TIP3    H248891   0.880   5.222   2.402 -1.4764 -0.2620 -0.6240
 9134TIP3   OH248892   4.545   5.940  12.255  0.1215  0.4797 -0.0520
 9134TIP3    H148893   4.475   5.942  12.320  0.6665 -0.7376  0.6099
 9134TIP3    H248894   4.623   5.970  12.303  0.5526 -0.5470 -0.0868
 9135TIP3   OH248895   2.634   1.578   0.072 -0.5717 -0.3652 -0.3952
 9135TIP3    H148896   2.680   1.624   0.142 -0.4235 -0.1317 -0.6383
 9135TIP3    H248897   2.543   1.572   0.101 -0.3401 -1.0556  0.2022
 9136TIP3   OH248898   4.521   6.202   5.946 -0.7834  0.1773  0.3687
 9136TIP3    H148899   4.555   6.289   5.966  1.2090 -0.6903  1.0781
 9136TIP3    H248900   4.486   6.170   6.030 -1.0252  0.1025  0.2396
 9137TIP3   OH248901   2.330   1.647  14.160  0.2021  0.2615 -0.4933
 9137TIP3    H148902   2.282   1.728  14.145  2.4549  1.7905  0.0512
 9137TIP3    H248903   2.391   1.641  14.086 -0.4732 -1.4316 -0.9783
 9138TIP3   OH248904   5.169   0.962  12.090 -0.2733  0.1837  0.0199
 9138TIP3    H148905   5.084   0.945  12.132 -0.7754  3.1207  0.4006
 9138TIP3    H248906   5.231   0.967  12.163 -0.0426 -0.4551 -0.1277
 9139TIP3   OH248907   3.037   4.078  11.673 -0.0240 -0.2796 -0.7006
 9139TIP3    H148908   3.062   4.140  11.742  0.7072 -2.7484  1.4375
 9139TIP3    H248909   3.109   4.082  11.610  0.0094  0.9987 -0.6066
 9140TIP3   OH248910   6.780   1.241   5.108  0.3604 -0.3221 -0.6619
 9140TIP3    H148911   6.697   1.251   5.063  0.7501 -1.0016 -1.5538
 9140TIP3    H248912   6.766   1.167   5.167  0.2107 -0.1689 -0.5027
 9141TIP3   OH248913   1.249   6.281  12.363  0.7591  0.1876  0.6045
 9141TIP3    H148914   1.170   6.236  12.391  0.6249  1.2695  2.0833
 9141TIP3    H248915   1.314   6.212  12.353 -0.1899 -0.6399 -0.0551
 9142TIP3   OH248916   3.561   4.459   3.611 -0.4416 -0.0701 -0.1593
 9142TIP3    H148917   3.538   4.383   3.557 -1.3819  0.0678  0.0440
 9142TIP3    H248918   3.521   4.533   3.566 -1.1876  0.0533  0.7032
 9143TIP3   OH248919   4.168   5.652   0.846  0.1321  0.0413 -0.1495
 9143TIP3    H148920   4.088   5.629   0.893  0.8925  1.3639  1.9455
 9143TIP3    H248921   4.236   5.652   0.913  1.9839 -1.3080 -1.9172
 9144TIP3   OH248922   1.718   0.907   3.393  0.2476  0.0983 -0.0514
 9144TIP3    H148923   1.726   0.992   3.435 -0.8463  0.0177  0.3557
 9144TIP3    H248924   1.699   0.846   3.465  1.7880 -0.6497 -0.2209
 9145TIP3   OH248925   4.224   5.581   2.150 -0.1296 -0.3418  0.0638
 9145TIP3    H148926   4.156   5.619   2.094 -0.3136  0.5385  0.8388
 9145TIP3    H248927   4.263   5.657   2.193  0.2732 -0.9642  0.8133
 9146TIP3   OH248928   2.472   3.375  11.936 -0.2077  0.6173  0.1617
 9146TIP3    H148929   2.440   3.353  11.848  1.0597 -0.3363 -0.0885
 9146TIP3    H248930   2.459   3.469  11.943 -2.3597  0.4078 -0.1930
 9147TIP3   OH248931   1.554   4.400   3.007 -0.1953  0.1156 -0.5832
 9147TIP3    H148932   1.517   4.405   3.095  1.1030  0.1016 -0.0187
 9147TIP3    H248933   1.497   4.339   2.960 -0.4487 -0.4888  0.4835
 9148TIP3   OH248934   1.232   5.565  16.060  0.1925 -0.0063  0.1839
 9148TIP3    H148935   1.185   5.528  15.985 -0.9958 -0.0447  0.9256
 9148TIP3    H248936   1.240   5.658  16.040 -0.1309 -0.0155  0.0042
 9149TIP3   OH248937   3.680   2.038  12.215 -0.1325 -0.8408 -0.0893
 9149TIP3    H148938   3.598   2.043  12.264 -0.8331  1.3792 -1.3508
 9149TIP3    H248939   3.741   2.093  12.264 -0.5876  0.6914 -1.1800
 9150TIP3   OH248940   5.140   3.668   5.745  0.0080  0.2525  0.0422
 9150TIP3    H148941   5.046   3.672   5.727 -0.3999  4.0723  2.0509
 9150TIP3    H248942   5.147   3.629   5.832  0.3529 -0.4996 -0.3142
 9151TIP3   OH248943   0.378   0.126  14.091 -1.0082  0.1312  0.1292
 9151TIP3    H148944   0.448   0.062  14.075 -0.7426  0.2007  0.9252
 9151TIP3    H248945   0.299   0.072  14.103 -0.8553 -0.0290  0.4324
 9152TIP3   OH248946   6.079   5.659  15.164  0.2034 -0.1166 -0.4940
 9152TIP3    H148947   6.000   5.619  15.128 -0.7924 -0.9023  2.2561
 9152TIP3    H248948   6.147   5.594  15.151 -0.3290 -0.7407 -0.2311
 9153TIP3   OH248949   5.088   1.925  10.805  0.4215 -0.1554  0.3089
 9153TIP3    H148950   5.176   1.888  10.804  0.8780  0.8902  0.9051
 9153TIP3    H248951   5.031   1.850  10.789  1.4446 -0.7309 -0.8567
 9154TIP3   OH248952   4.566   5.167   1.613 -0.2701 -0.6080  0.5364
 9154TIP3    H148953   4.608   5.252   1.631  1.0154 -1.0237 -0.3500
 9154TIP3    H248954   4.638   5.104   1.621 -0.4797 -1.2518 -2.0037
 9155TIP3   OH248955   1.167   4.033  12.431  0.4791  0.4928  0.4090
 9155TIP3    H148956   1.247   4.086  12.428  1.3528 -0.8248 -1.3359
 9155TIP3    H248957   1.122   4.053  12.349 -1.8103  2.2997  1.9585
 9156TIP3   OH248958   5.008   6.513   4.860  0.0743  0.2573  0.1497
 9156TIP3    H148959   4.979   6.443   4.802 -0.5859  0.2576  0.4701
 9156TIP3    H248960   5.041   6.468   4.938 -1.2438  0.3152  0.7611
 9157TIP3   OH248961   1.254   5.875   1.424  0.2389  0.1416 -0.2509
 9157TIP3    H148962   1.254   5.955   1.371 -0.5187 -1.1941 -2.3859
 9157TIP3    H248963   1.261   5.804   1.361 -1.7520 -1.6079  1.3367
 9158TIP3   OH248964   4.280   1.062   5.204 -0.2956 -0.2867  0.0763
 9158TIP3    H148965   4.317   1.144   5.174 -1.3647 -0.0634 -0.7193
 9158TIP3    H248966   4.355   1.004   5.216  0.3039  0.0027 -1.8879
 9159TIP3   OH248967   6.103   6.099   1.831 -0.1777  1.1133 -0.0413
 9159TIP3    H148968   6.115   6.105   1.736  1.2407 -0.6625 -0.0025
 9159TIP3    H248969   6.007   6.100   1.843 -0.5358 -2.0120 -1.7921
 9160TIP3   OH248970   6.041   3.545   1.769  0.1906 -0.3046 -0.1302
 9160TIP3    H148971   6.049   3.553   1.674  1.0430 -0.3084 -0.0661
 9160TIP3    H248972   6.042   3.635   1.801 -0.3007 -0.2938 -0.1304
 9161TIP3   OH248973   5.040   0.451   3.026  0.1810 -0.3740  0.3708
 9161TIP3    H148974   4.983   0.471   2.952  0.7546 -2.1130 -0.6023
 9161TIP3    H248975   5.006   0.369   3.061  0.9172 -0.4356  0.9707
 9162TIP3   OH248976   1.712   2.251  11.964  0.3520  0.2378 -0.1284
 9162TIP3    H148977   1.805   2.240  11.984  0.3104 -0.1054 -0.1254
 9162TIP3    H248978   1.677   2.162  11.958 -0.4412  0.3381  2.0162
 9163TIP3   OH248979   5.969   4.107  12.305  0.2343  0.2500 -0.2536
 9163TIP3    H148980   5.999   4.017  12.297  2.0223  0.8772 -1.3365
 9163TIP3    H248981   5.902   4.117  12.237  0.4989 -0.0976 -0.5676
 9164TIP3   OH248982   6.490   6.065  11.903  0.1125 -0.1533  0.2617
 9164TIP3    H148983   6.506   6.109  11.819  1.6415  1.0191  1.1145
 9164TIP3    H248984   6.421   6.117  11.945 -1.1145 -1.1137 -0.4906
 9165TIP3   OH248985   6.799   5.385  13.423  0.1374  0.0700  0.1542
 9165TIP3    H148986   6.739   5.454  13.394  1.9291  0.4949 -2.9873
 9165TIP3    H248987   6.849   5.425  13.493 -1.4802  0.5412  1.1048
 9166TIP3   OH248988   1.455   3.450   2.453  0.0162 -0.0978  0.4883
 9166TIP3    H148989   1.501   3.371   2.481 -0.1129  0.0721  1.1978
 9166TIP3    H248990   1.411   3.425   2.372  3.3247  0.3848 -1.6637
 9167TIP3   OH248991   3.786   2.888  16.248  0.0111 -0.2754 -0.1437
 9167TIP3    H148992   3.741   2.874  16.331  1.2233 -0.0954  0.5657
 9167TIP3    H248993   3.879   2.894  16.271  0.1472  3.1996 -1.0108
 9168TIP3   OH248994   0.301   6.033   4.008 -0.5813  0.0808  0.6508
 9168TIP3    H148995   0.246   6.083   4.069 -1.1922 -1.1136  1.1068
 9168TIP3    H248996   0.390   6.053   4.035 -0.7564  1.9083  0.0166
 9169TIP3   OH248997   1.520   2.004   1.195  0.0910  0.4850  0.9628
 9169TIP3    H148998   1.431   2.026   1.168  0.4793  0.6170 -0.2729
 9169TIP3    H248999   1.568   2.087   1.187  0.7183  0.0312 -0.1045
 9170TIP3   OH249000   0.917   0.999   4.169  0.4337 -0.0273  0.6796
 9170TIP3    H149001   1.002   0.984   4.210  1.2686  2.3819  0.0061
 9170TIP3    H249002   0.894   1.088   4.194 -0.7670  0.1910 -1.0584
 9171TIP3   OH249003   4.789   2.700   2.490  0.3601 -0.2767  0.1675
 9171TIP3    H149004   4.702   2.674   2.461 -0.2135  0.8732  0.8078
 9171TIP3    H249005   4.810   2.777   2.436  0.6949 -0.1418  0.4880
 9172TIP3   OH249006   6.182   0.840  12.040 -0.4209 -0.4286 -0.4652
 9172TIP3    H149007   6.149   0.891  11.966  0.3777  1.1225  0.2117
 9172TIP3    H249008   6.274   0.865  12.047 -0.1526 -1.5457  0.2493
 9173TIP3   OH249009   2.679   0.715  16.560  0.8917 -0.1493  0.0016
 9173TIP3    H149010   2.726   0.700  16.479 -0.1696 -0.8473 -0.4999
 9173TIP3    H249011   2.726   0.663  16.626  1.9050  0.6243 -0.0929
 9174TIP3   OH249012   3.318   5.457  14.865  0.1472  0.0412 -0.3080
 9174TIP3    H149013   3.366   5.474  14.946 -2.6374 -0.4778  1.6189
 9174TIP3    H249014   3.242   5.516  14.869 -1.6888 -2.1133 -0.9482
 9175TIP3   OH249015   1.765   2.389   6.233  0.0576  0.0944 -0.2175
 9175TIP3    H149016   1.832   2.440   6.278 -0.2174  0.3893 -0.1295
 9175TIP3    H249017   1.755   2.310   6.286  0.5226 -0.0699 -0.3806
 9176TIP3   OH249018   4.448   2.135   0.075 -0.3051 -0.1863 -0.0704
 9176TIP3    H149019   4.451   2.047   0.113 -1.1232 -0.5650 -0.8586
 9176TIP3    H249020   4.537   2.170   0.089 -0.4432 -0.4640  1.7708
 9177TIP3   OH249021   5.182   2.104   3.914  0.0819 -0.4813 -0.5287
 9177TIP3    H149022   5.160   2.076   4.002 -0.4487 -2.1889 -1.1523
 9177TIP3    H249023   5.277   2.117   3.916  0.1034 -0.7120  0.2470
 9178TIP3   OH249024   1.828   0.734  15.881 -0.4171 -0.1800 -0.1129
 9178TIP3    H149025   1.828   0.638  15.889  1.8225 -0.2390 -0.1448
 9178TIP3    H249026   1.816   0.766  15.970 -2.6865 -0.4151 -0.2736
 9179TIP3   OH249027   0.036   1.401  13.526 -0.4829 -0.5121  0.4620
 9179TIP3    H149028   0.032   1.306  13.536 -0.2705 -0.4869  0.8114
 9179TIP3    H249029   0.094   1.415  13.451 -1.3441 -0.6805 -0.2645
 9180TIP3   OH249030   4.642   5.865  11.973 -0.1290  0.8368 -0.3597
 9180TIP3    H149031   4.605   5.823  12.050  2.1292 -0.9009 -0.1157
 9180TIP3    H249032   4.644   5.797  11.907  1.8231  1.0593 -0.5867
 9181TIP3   OH249033   1.062   3.789   1.243 -0.0200  0.0465 -0.4627
 9181TIP3    H149034   1.003   3.765   1.314  0.6301 -1.3074 -0.3462
 9181TIP3    H249035   1.125   3.849   1.283 -0.6500  0.6120 -0.3169
 9182TIP3   OH249036   5.498   2.757  16.410  0.0973  0.1010  0.2509
 9182TIP3    H149037   5.513   2.804  16.328 -0.3001  0.6591  0.4885
 9182TIP3    H249038   5.575   2.776  16.463  0.6176 -0.7221 -0.1958
 9183TIP3   OH249039   2.889   5.362  11.988 -0.0295 -0.1504  0.5521
 9183TIP3    H149040   2.848   5.432  11.938 -2.2248 -1.5958  0.2051
 9183TIP3    H249041   2.816   5.316  12.030  1.4728 -1.2059  2.1519
 9184TIP3   OH249042   4.693   1.291   6.138 -0.7165 -0.7837 -0.2464
 9184TIP3    H149043   4.773   1.343   6.134 -1.5677  0.7383  1.2176
 9184TIP3    H249044   4.704   1.224   6.071  0.8422  0.6974 -1.5438
 9185TIP3   OH249045   3.338   1.098   4.709 -0.0733  0.0222 -0.1207
 9185TIP3    H149046   3.361   1.103   4.802  0.0280  0.3177 -0.1613
 9185TIP3    H249047   3.250   1.062   4.707 -0.3085  0.5737  0.1181
 9186TIP3   OH249048   4.509   3.908   1.197 -0.0077 -0.2681  1.1548
 9186TIP3    H149049   4.557   3.906   1.114 -1.2977 -1.1418  0.3868
 9186TIP3    H249050   4.576   3.895   1.264  1.2973  1.9679  0.4022
 9187TIP3   OH249051   5.157   0.923   2.064  0.0245 -0.8476  0.0693
 9187TIP3    H149052   5.079   0.910   2.118 -1.1065 -0.8978 -1.5031
 9187TIP3    H249053   5.136   0.880   1.981  1.0347  0.6209 -0.9984
 9188TIP3   OH249054   6.773   3.717   3.309  0.4269 -0.0621 -0.3227
 9188TIP3    H149055   6.790   3.666   3.230  0.4300 -0.5594 -0.0077
 9188TIP3    H249056   6.761   3.807   3.278  2.0490  0.0559 -0.7356
 9189TIP3   OH249057   4.793   4.404   3.972 -0.3651  0.0645  0.2069
 9189TIP3    H149058   4.862   4.340   3.989  0.6866  0.4730 -2.1401
 9189TIP3    H249059   4.824   4.485   4.013 -0.1507 -0.1306  0.4274
 9190TIP3   OH249060   4.720   2.115   3.609  0.0737 -0.0925  0.2252
 9190TIP3    H149061   4.703   2.021   3.613 -1.0242  0.0844  0.1511
 9190TIP3    H249062   4.667   2.152   3.680  0.0662  0.5256 -0.0943
 9191TIP3   OH249063   3.026   3.952  16.970  0.7148 -0.0211  0.4065
 9191TIP3    H149064   3.045   3.923  17.059  1.3469 -1.0361 -0.0312
 9191TIP3    H249065   3.009   3.871  16.922  0.4673  0.5028 -0.4154
 9192TIP3   OH249066   1.091   2.117   3.430  0.5821  0.0987 -0.2341
 9192TIP3    H149067   1.147   2.072   3.367  1.6641 -0.8809  1.3692
 9192TIP3    H249068   1.020   2.056   3.448  0.7823 -0.0092  0.1937
 9193TIP3   OH249069   6.120   4.269   5.494 -0.3403  0.0227 -0.0294
 9193TIP3    H149070   6.135   4.336   5.561 -1.6039 -0.6552  0.9726
 9193TIP3    H249071   6.026   4.273   5.477 -0.1598 -0.3808 -1.1694
 9194TIP3   OH249072   4.691   2.786   0.618 -0.0566  0.9216  0.1589
 9194TIP3    H149073   4.632   2.832   0.557 -0.4592  0.4516  0.1930
 9194TIP3    H249074   4.774   2.833   0.610 -0.8913  2.7504  1.4285
 9195TIP3   OH249075   5.014   2.508   3.654  0.2304 -0.1835  0.1099
 9195TIP3    H149076   5.015   2.603   3.661  0.6433 -0.1361 -0.4633
 9195TIP3    H249077   4.969   2.491   3.571  2.7787 -0.3496 -1.3333
 9196TIP3   OH249078   1.073   1.055   1.257 -0.0642  0.3143  0.6038
 9196TIP3    H149079   1.093   0.972   1.300  0.4064 -0.2313 -0.6205
 9196TIP3    H249080   1.151   1.109   1.269  2.1163 -1.4866 -3.3896
 9197TIP3   OH249081   0.422   0.354   3.758  0.0201  0.6747 -0.5825
 9197TIP3    H149082   0.378   0.429   3.799 -0.2587 -0.6140  1.6335
 9197TIP3    H249083   0.495   0.393   3.710 -0.2196  2.4035  0.3621
 9198TIP3   OH249084   1.402   3.725  11.784 -0.7763  0.1434 -0.3328
 9198TIP3    H149085   1.374   3.704  11.695 -0.0375 -1.2102 -0.2793
 9198TIP3    H249086   1.379   3.817  11.796 -1.3269  0.2100 -1.7465
 9199TIP3   OH249087   1.053   2.002   0.714 -0.6005 -0.1392  0.2451
 9199TIP3    H149088   1.062   2.068   0.645 -0.8870 -1.0986 -0.7283
 9199TIP3    H249089   0.971   1.958   0.694 -0.8424 -0.2367  1.3883
 9200TIP3   OH249090   1.121   1.777  13.254  0.6042  0.1733  0.3212
 9200TIP3    H149091   1.183   1.849  13.241  0.6554  0.3030  1.2124
 9200TIP3    H249092   1.057   1.788  13.184  0.4260  1.3022  0.6274
 9201TIP3   OH249093   2.691   5.136   5.066 -0.1002  0.2294  0.0256
 9201TIP3    H149094   2.751   5.206   5.090 -0.0729  0.2114  0.0095
 9201TIP3    H249095   2.728   5.058   5.107  0.0549  0.1619 -0.2434
 9202TIP3   OH249096   3.674   1.762  10.518 -0.3107  0.2094 -0.4452
 9202TIP3    H149097   3.636   1.680  10.550  1.2525 -0.5350 -0.3808
 9202TIP3    H249098   3.612   1.794  10.452 -1.5421 -0.3697  0.3877
 9203TIP3   OH249099   4.257   1.697   4.653 -0.8861  0.2121 -0.3564
 9203TIP3    H149100   4.215   1.611   4.658  1.0292 -0.7721 -0.4652
 9203TIP3    H249101   4.258   1.728   4.743 -1.1664 -0.0904 -0.2453
 9204TIP3   OH249102   0.774   6.635  16.730  0.1557 -0.1300  0.6147
 9204TIP3    H149103   0.694   6.678  16.760  0.4048  0.6107  0.2474
 9204TIP3    H249104   0.844   6.674  16.783  0.3891 -0.0460  0.2518
 9205TIP3   OH249105   2.731   1.032   4.471  0.2494  0.6900  0.2690
 9205TIP3    H149106   2.729   0.936   4.461 -2.6619  0.7512 -0.6837
 9205TIP3    H249107   2.722   1.065   4.382 -0.5803  1.8152  0.7578
 9206TIP3   OH249108   3.496   3.260  15.648 -0.6301  0.2282 -0.1165
 9206TIP3    H149109   3.473   3.300  15.732 -1.7325  0.7362 -0.6357
 9206TIP3    H249110   3.587   3.233  15.658 -1.3695 -1.7893  2.0330
 9207TIP3   OH249111   0.091   6.314   4.820 -0.7802  0.6898 -0.2164
 9207TIP3    H149112   0.074   6.232   4.866  0.1991  1.5272  1.7664
 9207TIP3    H249113   0.066   6.296   4.729 -0.5734 -1.7983  0.1396
 9208TIP3   OH249114   2.254   2.938  16.238 -0.2249 -0.3386  0.5189
 9208TIP3    H149115   2.329   2.923  16.180 -0.2206 -1.6848  0.8431
 9208TIP3    H249116   2.179   2.941  16.180 -0.1136 -0.7414  0.3505
 9209TIP3   OH249117   1.415   3.707   0.367  0.2376 -0.7366  0.0835
 9209TIP3    H149118   1.461   3.723   0.449  1.2387 -0.0656 -0.5860
 9209TIP3    H249119   1.425   3.613   0.352 -2.5030 -1.4906  2.1734
 9210TIP3   OH249120   3.082   4.499   4.289 -0.0771 -0.5057 -0.1680
 9210TIP3    H149121   3.163   4.543   4.312 -1.2988  2.1737 -0.6514
 9210TIP3    H249122   3.101   4.457   4.205  0.3408  1.6997 -1.2480
 9211TIP3   OH249123   1.932   4.710  15.471  0.3127 -0.2780  0.1261
 9211TIP3    H149124   1.874   4.765  15.523  2.9962  1.2292  1.7415
 9211TIP3    H249125   1.968   4.646  15.533  1.7582  0.0161 -0.3679
 9212TIP3   OH249126   6.173   5.855  14.648  0.2280 -0.2185  0.1228
 9212TIP3    H149127   6.238   5.894  14.706 -0.8850 -1.4416  2.3353
 9212TIP3    H249128   6.102   5.919  14.646  0.3192 -0.1211  0.0161
 9213TIP3   OH249129   2.889   4.019  13.772 -0.3457  0.2433  0.0746
 9213TIP3    H149130   2.927   4.089  13.824  0.8350 -1.2529  1.3419
 9213TIP3    H249131   2.962   3.983  13.722 -1.1546  0.6277 -1.4372
 9214TIP3   OH249132   6.805   4.132  14.198  0.1561 -0.0970 -0.6096
 9214TIP3    H149133   6.810   4.037  14.190 -2.4162 -0.1616 -3.2350
 9214TIP3    H249134   6.721   4.149  14.239  0.4511  1.0789 -0.4306
 9215TIP3   OH249135   1.171   1.011  10.311 -0.2900 -0.9262  0.1903
 9215TIP3    H149136   1.136   1.099  10.295  1.3567 -0.1036  0.8167
 9215TIP3    H249137   1.194   0.979  10.224  0.4486 -0.1007  0.0585
 9216TIP3   OH249138   1.509   3.379  12.045  0.2222  0.1037  0.8600
 9216TIP3    H149139   1.539   3.356  12.133  1.4733 -0.3005  0.3501
 9216TIP3    H249140   1.540   3.469  12.032 -0.7315  0.4847  1.1508
 9217TIP3   OH249141   5.434   2.170  16.860  0.3505  0.0909  0.3031
 9217TIP3    H149142   5.497   2.112  16.903 -0.9089 -1.6946 -0.1503
 9217TIP3    H249143   5.451   2.160  16.766 -1.3696 -1.4098  0.1031
 9218TIP3   OH249144   1.970   0.108   4.168 -0.0998 -0.6146 -0.1063
 9218TIP3    H149145   1.983   0.187   4.115  0.3890 -0.7175 -0.1497
 9218TIP3    H249146   2.052   0.100   4.217 -0.6643 -0.3607  0.8865
 9219TIP3   OH249147   5.956   2.613   5.441  0.0632 -0.0603  0.0217
 9219TIP3    H149148   6.006   2.679   5.392  1.7133 -2.4412 -1.7417
 9219TIP3    H249149   5.876   2.658   5.467  0.8875  2.4898 -1.4730
 9220TIP3   OH249150   4.206   0.056   3.283 -0.0419 -0.2500  0.2960
 9220TIP3    H149151   4.250   0.141   3.294 -2.1166  0.7011  1.8872
 9220TIP3    H249152   4.273  -0.008   3.308  1.1244  0.9966  0.5263
 9221TIP3   OH249153   4.443   6.689   2.721  0.3143  0.0103 -0.1441
 9221TIP3    H149154   4.500   6.671   2.646  0.2871 -0.5300 -0.0371
 9221TIP3    H249155   4.474   6.629   2.790 -0.6626 -0.6123 -0.2227
 9222TIP3   OH249156   0.501   5.239  14.039  0.4604 -0.1099 -0.1090
 9222TIP3    H149157   0.435   5.261  14.105  1.3491 -1.0639  1.1584
 9222TIP3    H249158   0.521   5.147  14.055  1.8105  0.0460 -0.7176
 9223TIP3   OH249159   2.727   1.504  11.748 -0.1585 -0.5675  0.1188
 9223TIP3    H149160   2.808   1.453  11.744 -0.8195 -1.5987 -2.2301
 9223TIP3    H249161   2.667   1.451  11.801  0.1058 -0.7732  0.2126
 9224TIP3   OH249162   4.305   0.741  13.701  0.4338 -0.6827  0.1394
 9224TIP3    H149163   4.302   0.774  13.611  1.8593 -0.0273  0.2989
 9224TIP3    H249164   4.274   0.814  13.755  0.3470 -0.7878  0.2318
 9225TIP3   OH249165   2.610   5.176  15.494 -0.0816  0.3689 -0.2148
 9225TIP3    H149166   2.532   5.229  15.507 -0.8646 -0.5570 -1.0875
 9225TIP3    H249167   2.619   5.126  15.575  0.4309  1.4843  0.4505
 9226TIP3   OH249168   6.387   5.068   4.079  0.4568  0.0345 -0.1998
 9226TIP3    H149169   6.465   5.036   4.126  0.4458 -0.6850 -0.6450
 9226TIP3    H249170   6.373   5.003   4.010 -1.4124 -0.6571  0.7736
 9227TIP3   OH249171   1.317   2.253   4.431 -0.1278  0.2012  0.2781
 9227TIP3    H149172   1.323   2.167   4.471 -0.4264 -0.6234 -1.3658
 9227TIP3    H249173   1.224   2.264   4.412 -0.1068  0.9410  0.5756
 9228TIP3   OH249174   3.355   0.034   5.943  0.8345 -0.2722  0.1405
 9228TIP3    H149175   3.383   0.126   5.941  1.1782 -0.3405  1.0728
 9228TIP3    H249176   3.342   0.011   5.852  1.6421  0.4406 -0.1714
 9229TIP3   OH249177   4.440   5.313   1.431  0.1720 -0.1676 -0.1594
 9229TIP3    H149178   4.426   5.403   1.462  2.0232 -0.2417  1.0090
 9229TIP3    H249179   4.478   5.267   1.505 -0.6346 -1.9341 -0.7748
 9230TIP3   OH249180   2.024   6.329  10.568  0.0746  0.1476 -0.3632
 9230TIP3    H149181   1.969   6.328  10.490  0.3466 -0.9776 -0.5545
 9230TIP3    H249182   2.083   6.255  10.557  0.2646  0.1020  0.8035
 9231TIP3   OH249183   5.501   4.700  10.739 -1.3697 -0.4126  0.7342
 9231TIP3    H149184   5.406   4.711  10.731 -1.2807  1.0000  1.2599
 9231TIP3    H249185   5.537   4.756  10.671 -0.8964  0.6698  1.8391
 9232TIP3   OH249186   3.771   4.203   2.606 -0.7212  0.0241 -0.5457
 9232TIP3    H149187   3.806   4.115   2.607 -0.7937 -0.0316 -1.5554
 9232TIP3    H249188   3.836   4.255   2.559 -0.4744  0.6070  0.4106
 9233TIP3   OH249189   2.261   5.039  15.507 -0.4992 -0.1902 -0.4405
 9233TIP3    H149190   2.230   5.128  15.524  1.5171  0.6217 -0.6265
 9233TIP3    H249191   2.193   4.982  15.542 -1.4442  1.4251  0.4814
 9234TIP3   OH249192   5.637   5.167   5.865 -0.1745  0.0198  0.2150
 9234TIP3    H149193   5.638   5.256   5.900  0.2824  0.2902 -0.4728
 9234TIP3    H249194   5.686   5.115   5.930 -1.5480 -0.0035  1.2770
 9235TIP3   OH249195   4.564   2.260  12.138  0.4575 -0.5273 -0.0194
 9235TIP3    H149196   4.576   2.196  12.067  0.6186 -0.7955  0.2485
 9235TIP3    H249197   4.473   2.248  12.165  0.0829  0.2798 -0.8591
 9236TIP3   OH249198   5.441   4.233  16.514 -0.2121  0.0920 -0.0370
 9236TIP3    H149199   5.492   4.234  16.433 -1.1001 -1.6416 -0.6725
 9236TIP3    H249200   5.354   4.204  16.487 -0.4949 -0.6419  1.5568
 9237TIP3   OH249201   6.307   4.876  11.313 -0.2989  0.0173 -0.1501
 9237TIP3    H149202   6.329   4.950  11.256  2.3965 -0.5414  0.0343
 9237TIP3    H249203   6.354   4.894  11.395 -1.9254 -0.5254  0.9470
 9238TIP3   OH249204   2.553   4.149   1.563  0.2253  0.5814  0.0646
 9238TIP3    H149205   2.486   4.086   1.536  0.2866  0.5496 -0.0122
 9238TIP3    H249206   2.635   4.101   1.558  0.1061  0.1933  1.5566
 9239TIP3   OH249207   4.594   2.067  11.712 -0.6605  1.1197  0.1089
 9239TIP3    H149208   4.621   2.087  11.802 -2.6730  0.9410  0.8153
 9239TIP3    H249209   4.641   2.131  11.658  1.1268  0.7872  1.1848
 9240TIP3   OH249210   3.526   4.375   1.537  0.0232 -0.1454 -0.5964
 9240TIP3    H149211   3.518   4.294   1.486  0.4877 -0.8488  0.4020
 9240TIP3    H249212   3.485   4.442   1.483  0.5255 -0.8488 -1.9019
 9241TIP3   OH249213   0.730   5.367   3.444  0.1958 -0.3945 -0.1499
 9241TIP3    H149214   0.775   5.286   3.466 -0.2262 -1.2157 -2.0590
 9241TIP3    H249215   0.674   5.386   3.519 -1.0859 -2.9010 -0.3865
 9242TIP3   OH249216   4.246   5.833   2.280 -0.1588  0.2713 -0.6792
 9242TIP3    H149217   4.177   5.899   2.280 -0.8786 -0.4688 -1.3380
 9242TIP3    H249218   4.302   5.858   2.354 -0.6112  1.4021 -0.6882
 9243TIP3   OH249219   3.636   3.560   4.851  0.2361  0.2283  0.0291
 9243TIP3    H149220   3.728   3.584   4.861  0.8261 -2.1108  0.8427
 9243TIP3    H249221   3.623   3.553   4.757  1.0103  0.1690 -0.0776
 9244TIP3   OH249222   2.785   6.419   4.903 -0.0816 -0.3236  0.2503
 9244TIP3    H149223   2.772   6.490   4.965 -0.5810  0.0953 -0.3284
 9244TIP3    H249224   2.844   6.358   4.948  0.2103  0.3677  0.8126
 9245TIP3   OH249225   2.754   6.158  13.134 -0.0467 -0.3365  0.2184
 9245TIP3    H149226   2.765   6.226  13.067  0.0771  0.7655  1.3287
 9245TIP3    H249227   2.755   6.076  13.084 -1.3103  0.5028 -1.2848
 9246TIP3   OH249228   1.071   3.700  13.015 -0.3064  0.4390  0.0571
 9246TIP3    H149229   1.158   3.719  12.980 -0.9169  1.0351 -1.1916
 9246TIP3    H249230   1.082   3.706  13.110  0.7439  1.6911 -0.1183
 9247TIP3   OH249231   1.721   1.062  12.360 -0.0988  0.6085  0.3858
 9247TIP3    H149232   1.746   1.001  12.429 -0.9569 -0.1951  0.0000
 9247TIP3    H249233   1.625   1.060  12.359 -0.1168 -0.8949 -2.1039
 9248TIP3   OH249234   3.390   2.582  12.366 -0.2625 -0.5421  0.9327
 9248TIP3    H149235   3.450   2.616  12.300 -1.7375  1.4425  0.5302
 9248TIP3    H249236   3.400   2.487  12.361  0.8983 -0.3692 -0.9463
 9249TIP3   OH249237   6.628   1.149  13.738 -0.1054  0.8302  0.2689
 9249TIP3    H149238   6.537   1.155  13.764  0.2917  0.1633  2.0122
 9249TIP3    H249239   6.626   1.125  13.645 -1.6789  1.1639  0.2035
 9250TIP3   OH249240   1.943   6.309  13.862  0.1572  0.3486 -0.3610
 9250TIP3    H149241   1.855   6.272  13.865  0.7594 -1.2170 -0.6773
 9250TIP3    H249242   1.930   6.403  13.871 -1.5421  0.1600 -0.4523
 9251TIP3   OH249243   2.331   1.450   1.403 -0.6135  0.3616  0.1105
 9251TIP3    H149244   2.246   1.486   1.426 -0.4373  1.3511 -0.7309
 9251TIP3    H249245   2.394   1.507   1.447 -0.3377  1.0413 -1.1177
 9252TIP3   OH249246   0.125   2.593   1.831 -0.0002  0.2127 -0.2454
 9252TIP3    H149247   0.029   2.592   1.828  0.0136 -0.6895 -1.4077
 9252TIP3    H249248   0.147   2.525   1.895 -0.1240  0.7345  0.3652
 9253TIP3   OH249249   6.519   0.332  15.169  0.0226 -0.3733 -0.7235
 9253TIP3    H149250   6.510   0.380  15.086 -0.0865  0.6313 -0.1513
 9253TIP3    H249251   6.431   0.299  15.187 -0.1150  0.0167 -0.6611
 9254TIP3   OH249252   1.509   1.860  15.247 -0.1301 -0.3765 -0.0899
 9254TIP3    H149253   1.513   1.955  15.239  0.9892 -0.4267 -0.2092
 9254TIP3    H249254   1.433   1.844  15.303 -1.2591  0.5010 -1.3114
 9255TIP3   OH249255   2.375   6.810   2.398  0.1238 -0.1798  0.4414
 9255TIP3    H149256   2.378   6.899   2.434 -1.8816  0.6856 -1.3419
 9255TIP3    H249257   2.464   6.794   2.366 -0.1518  2.5269 -2.0902
 9256TIP3   OH249258   6.308   2.530  17.095  0.4718 -0.0251  0.1041
 9256TIP3    H149259   6.357   2.545  17.177  0.2237 -0.5572  0.3538
 9256TIP3    H249260   6.343   2.595  17.035 -0.8823  1.8804  1.2627
 9257TIP3   OH249261   3.353   4.078   4.322  0.9509  0.5306 -0.2072
 9257TIP3    H149262   3.390   4.129   4.394 -1.5145 -0.8287  2.2374
 9257TIP3    H249263   3.413   4.005   4.311 -0.2472 -1.1822  3.0646
 9258TIP3   OH249264   1.975   0.387  15.257 -0.2276 -0.4168  0.3943
 9258TIP3    H149265   1.968   0.382  15.352 -0.6662 -0.1383  0.3757
 9258TIP3    H249266   1.886   0.378  15.225 -0.7614  3.5279  0.1957
 9259TIP3   OH249267   1.821   1.539  12.582  0.6378 -0.5118  0.5668
 9259TIP3    H149268   1.800   1.455  12.543  0.3653 -0.3986  0.4669
 9259TIP3    H249269   1.741   1.566  12.627  1.0346 -0.7758  1.4635
 9260TIP3   OH249270   5.403   0.408  13.541  0.6570  0.3277 -0.4418
 9260TIP3    H149271   5.311   0.393  13.518  0.7763  0.0909 -0.7957
 9260TIP3    H249272   5.450   0.342  13.490  0.9652 -0.0283  0.2864
 9261TIP3   OH249273   4.669   1.079   3.958 -0.4725  0.3237 -0.0768
 9261TIP3    H149274   4.617   1.141   3.907 -1.1978 -0.2932 -0.1112
 9261TIP3    H249275   4.609   1.005   3.973  0.5478 -0.6231 -0.5527
 9262TIP3   OH249276   6.638   2.017  15.433  0.0663  0.0860 -0.7663
 9262TIP3    H149277   6.720   1.994  15.388  0.5828 -0.7055  0.5292
 9262TIP3    H249278   6.620   2.107  15.404  2.2695  0.8902  0.0997
 9263TIP3   OH249279   6.431   2.457   3.816 -0.4607  0.0958 -0.1151
 9263TIP3    H149280   6.379   2.455   3.735 -0.8240 -1.3712  0.1166
 9263TIP3    H249281   6.405   2.538   3.859 -1.4644  0.1127 -0.7195
 9264TIP3   OH249282   5.312   5.097   0.118  0.2925  0.3580  0.0804
 9264TIP3    H149283   5.220   5.115   0.097 -0.0171 -0.1367  0.9586
 9264TIP3    H249284   5.351   5.184   0.131 -0.3239  0.5308  0.8147
 9265TIP3   OH249285   1.451   4.316   5.344 -0.0513 -0.0202 -0.0353
 9265TIP3    H149286   1.532   4.331   5.394 -0.6588  0.8928  0.7232
 9265TIP3    H249287   1.426   4.404   5.314 -0.5766 -0.3499 -0.5722
 9266TIP3   OH249288   2.731   5.818   3.943  0.0578  0.3950  0.7837
 9266TIP3    H149289   2.706   5.811   4.036 -1.4773  1.1179  0.4638
 9266TIP3    H249290   2.671   5.758   3.898  2.4052 -1.8774  0.4404
 9267TIP3   OH249291   2.426   3.820   5.077 -0.5555  0.1547 -0.0586
 9267TIP3    H149292   2.431   3.735   5.033  0.5322 -1.1032  2.3044
 9267TIP3    H249293   2.459   3.882   5.013 -1.4103 -1.1680 -1.8777
 9268TIP3   OH249294   4.940   2.733  14.279 -0.0055 -0.0505 -0.4764
 9268TIP3    H149295   5.026   2.749  14.239  0.5499 -0.4076  0.5322
 9268TIP3    H249296   4.887   2.808  14.252  1.0028  0.8385 -0.0720
 9269TIP3   OH249297   4.871   3.042  15.887  0.1338 -0.0073 -0.1181
 9269TIP3    H149298   4.902   3.041  15.977 -0.4911  3.2765  0.2602
 9269TIP3    H249299   4.785   2.999  15.891 -0.6138  1.4948  1.2422
 9270TIP3   OH249300   3.792   6.618   1.936 -0.2583  0.0154 -0.5474
 9270TIP3    H149301   3.852   6.692   1.924  1.3806 -1.1035  0.3103
 9270TIP3    H249302   3.774   6.587   1.848  0.0163  0.7041 -0.8539
 9271TIP3   OH249303   0.758   3.026   4.926 -0.3799  0.0943 -0.0801
 9271TIP3    H149304   0.774   2.977   5.006 -1.4049 -0.3241 -0.1179
 9271TIP3    H249305   0.664   3.046   4.928 -0.4871 -0.1870 -1.3180
 9272TIP3   OH249306   3.457   2.004  12.353 -0.4466 -0.0775  0.1252
 9272TIP3    H149307   3.376   1.967  12.318 -2.0360  1.8124  1.6122
 9272TIP3    H249308   3.509   1.928  12.379 -1.5249 -1.3442 -1.2557
 9273TIP3   OH249309   0.694   4.833   6.418 -0.2951 -0.2267 -0.5475
 9273TIP3    H149310   0.602   4.860   6.418 -0.2120  0.1356 -1.8243
 9273TIP3    H249311   0.743   4.915   6.423  0.0378 -0.5085  3.4895
 9274TIP3   OH249312   3.279   1.458  11.636  0.0276 -0.0221 -0.8796
 9274TIP3    H149313   3.187   1.442  11.617 -0.5930  1.1298  0.8766
 9274TIP3    H249314   3.303   1.531  11.579 -0.7005  0.8850 -0.0527
 9275TIP3   OH249315   5.776   3.545  12.664  0.4706  0.2168 -0.1173
 9275TIP3    H149316   5.787   3.534  12.758  0.3495  1.3607  0.0503
 9275TIP3    H249317   5.788   3.458  12.627  0.1347 -0.3064  0.9911
 9276TIP3   OH249318   1.351   1.480  13.521 -0.2825  0.4137  0.3027
 9276TIP3    H149319   1.288   1.545  13.549 -0.1587  1.2721 -1.3217
 9276TIP3    H249320   1.428   1.496  13.575 -0.4217  1.3175  0.2400
 9277TIP3   OH249321   5.007   2.119   2.816  0.1277 -0.3294  0.1689
 9277TIP3    H149322   5.087   2.070   2.835  0.4098 -0.1005 -0.3795
 9277TIP3    H249323   4.982   2.158   2.899 -0.0657 -1.3437  0.5978
 9278TIP3   OH249324   4.399   1.773  10.413  0.1716 -0.3829 -0.2151
 9278TIP3    H149325   4.370   1.707  10.475 -1.8303  0.7322  0.1335
 9278TIP3    H249326   4.423   1.724  10.334  0.2825 -1.6182  0.5758
 9279TIP3   OH249327   4.804   5.133   4.224  0.1145  0.7453  0.3223
 9279TIP3    H149328   4.756   5.215   4.236  1.5038  1.5829  0.4804
 9279TIP3    H249329   4.809   5.095   4.311 -0.1762  0.7043  0.3214
 9280TIP3   OH249330   2.457   3.648  14.622  0.5168  0.0536  0.3251
 9280TIP3    H149331   2.392   3.618  14.559  1.3592  0.4230 -0.7430
 9280TIP3    H249332   2.418   3.725  14.663  0.0955 -0.0002  0.0285
 9281TIP3   OH249333   6.660   6.747   5.381 -0.1043  0.2201 -0.6113
 9281TIP3    H149334   6.626   6.666   5.417  0.1741  1.4195  2.6436
 9281TIP3    H249335   6.582   6.794   5.350 -0.3225 -0.9417 -1.9133
 9282TIP3   OH249336   2.096   0.231  12.226  0.0494 -0.1835 -0.2514
 9282TIP3    H149337   2.146   0.158  12.263 -1.5786 -1.0028  0.4254
 9282TIP3    H249338   2.010   0.194  12.204 -0.7638  1.4761 -0.0702
 9283TIP3   OH249339   4.771   5.992   2.763  0.9299 -0.5372 -0.1990
 9283TIP3    H149340   4.823   5.944   2.827 -0.3579 -1.2443  0.3570
 9283TIP3    H249341   4.791   5.951   2.680  0.9344 -1.0957  0.0729
 9284TIP3   OH249342   4.589   6.435  12.266 -0.4153  0.3935 -0.3448
 9284TIP3    H149343   4.660   6.387  12.224 -1.0716 -0.3513 -0.6323
 9284TIP3    H249344   4.611   6.435  12.359 -0.6748 -0.9777 -0.2541
 9285TIP3   OH249345   5.215   6.003  12.399 -0.4694 -0.2495 -0.2464
 9285TIP3    H149346   5.265   6.072  12.356  0.1797 -0.3778  0.2832
 9285TIP3    H249347   5.224   5.928  12.341 -1.2463  0.1315 -0.8634
 9286TIP3   OH249348   5.696   3.143  15.320 -0.1617  0.2484 -0.2519
 9286TIP3    H149349   5.620   3.193  15.346  0.0563  1.2628 -1.4497
 9286TIP3    H249350   5.666   3.091  15.245 -0.2122 -0.9443  0.5746
 9287TIP3   OH249351   1.130   1.225   3.193  0.0689  0.0237 -0.1436
 9287TIP3    H149352   1.058   1.287   3.188  0.2918  0.3046  0.0695
 9287TIP3    H249353   1.202   1.268   3.146 -0.4050 -0.9810 -1.8417
 9288TIP3   OH249354   6.318   0.491  16.788 -0.6389 -0.1626 -0.5534
 9288TIP3    H149355   6.231   0.450  16.795 -0.5951 -0.2320 -0.4068
 9288TIP3    H249356   6.338   0.488  16.694 -1.7800  1.9322 -0.9127
 9289TIP3   OH249357   1.816   5.835   6.182  0.5984  0.1554 -0.0737
 9289TIP3    H149358   1.911   5.830   6.172  0.3059 -1.0533 -4.6801
 9289TIP3    H249359   1.792   5.756   6.230  1.7931 -1.1321 -1.4997
 9290TIP3   OH249360   4.831   2.173   3.053 -0.0511 -0.0730  0.2219
 9290TIP3    H149361   4.744   2.213   3.049 -0.0740 -0.0573  0.8410
 9290TIP3    H249362   4.839   2.141   3.143  0.1608 -1.0385 -0.1294
 9291TIP3   OH249363   0.622   5.199   1.043 -0.1685 -0.1612 -0.1154
 9291TIP3    H149364   0.696   5.206   0.982 -0.5859  0.0338 -0.6164
 9291TIP3    H249365   0.593   5.289   1.055  0.7021 -0.0540  1.4015
 9292TIP3   OH249366   0.242   2.986   5.759  0.1134 -0.2170 -0.4633
 9292TIP3    H149367   0.169   3.037   5.794  0.8679  0.9806 -0.5766
 9292TIP3    H249368   0.309   2.988   5.827  0.3632 -0.5927 -0.6893
 9293TIP3   OH249369   4.974   0.061   3.713  0.1359 -0.1563  0.1010
 9293TIP3    H149370   4.963  -0.017   3.767 -0.3792  0.3846  0.7925
 9293TIP3    H249371   4.978   0.028   3.623 -0.4010 -0.9466  0.3620
 9294TIP3   OH249372   4.560   1.387  16.397 -0.3986  0.0897  0.1935
 9294TIP3    H149373   4.607   1.333  16.333 -1.8738 -0.5391 -0.3914
 9294TIP3    H249374   4.496   1.328  16.437 -0.4858  0.8423  1.2107
 9295TIP3   OH249375   0.818   3.357   1.395 -0.2081  0.2335 -0.3597
 9295TIP3    H149376   0.765   3.393   1.466  0.5287 -1.6945  1.2708
 9295TIP3    H249377   0.908   3.362   1.428  0.3044  0.5687 -1.7565
 9296TIP3   OH249378   1.496   3.521  16.687  0.5381 -0.1175 -0.5788
 9296TIP3    H149379   1.504   3.516  16.592  2.3357  0.1620 -0.4698
 9296TIP3    H249380   1.404   3.500  16.704  0.6909 -2.4582 -2.1994
 9297TIP3   OH249381   0.949   2.408   4.819 -0.2201  0.2501  0.1790
 9297TIP3    H149382   0.976   2.362   4.740  0.4631  1.6401 -0.4358
 9297TIP3    H249383   0.929   2.497   4.789 -0.1184  0.7539  1.5399
 9298TIP3   OH249384   5.116   4.168   0.284  0.0122  0.3145  0.0569
 9298TIP3    H149385   5.137   4.229   0.355  1.0489 -0.7791  0.7224
 9298TIP3    H249386   5.127   4.220   0.204 -0.5821  1.3968  0.6521
 9299TIP3   OH249387   3.236   3.800   5.108  0.4640  0.2854 -0.0701
 9299TIP3    H149388   3.240   3.799   5.204 -1.6723  1.8168  0.1131
 9299TIP3    H249389   3.325   3.819   5.081  1.8091 -3.1181  1.4321
 9300TIP3   OH249390   2.669   4.305   6.059  0.0306  0.1004  0.1415
 9300TIP3    H149391   2.729   4.272   6.126 -0.5307  0.5379  0.8772
 9300TIP3    H249392   2.584   4.271   6.083  0.0506 -1.0209 -1.2457
 9301TIP3   OH249393   0.256   4.644  14.185  0.2188 -0.1908  0.2748
 9301TIP3    H149394   0.286   4.719  14.133  0.1349  0.8251  1.6298
 9301TIP3    H249395   0.176   4.615  14.141  0.5614  0.1326 -0.6038
 9302TIP3   OH249396   5.320   5.289  11.599  0.4536  0.1474  0.9221
 9302TIP3    H149397   5.383   5.355  11.572  0.0537  0.4148  0.6297
 9302TIP3    H249398   5.241   5.339  11.623 -0.4456 -0.3066 -0.9162
 9303TIP3   OH249399   0.021   1.221   4.717  0.2356  0.0461  0.0988
 9303TIP3    H149400   0.108   1.227   4.757  0.6858  0.1401 -0.8681
 9303TIP3    H249401  -0.005   1.311   4.701 -0.3761  0.0569  1.0501
 9304TIP3   OH249402   4.913   2.417  11.311 -0.2979 -0.3880 -0.5959
 9304TIP3    H149403   4.982   2.484  11.313 -1.6969  1.2286 -2.3946
 9304TIP3    H249404   4.860   2.440  11.235 -3.1385 -1.2455  0.9824
 9305TIP3   OH249405   4.206   6.022  17.068 -0.1470 -0.5219 -0.7701
 9305TIP3    H149406   4.198   5.935  17.028 -1.2866 -0.9612  0.3529
 9305TIP3    H249407   4.213   6.005  17.162  0.4553  0.5794 -0.5936
 9306TIP3   OH249408   0.408   5.447   1.979  0.2083  0.0558  0.1707
 9306TIP3    H149409   0.443   5.531   1.951  1.9634 -0.0411  1.8306
 9306TIP3    H249410   0.315   5.451   1.959  0.4528  1.9656 -0.7446
 9307TIP3   OH249411   2.114   4.578  14.726  0.2338 -0.0560  0.8263
 9307TIP3    H149412   2.156   4.576  14.640 -0.1923 -1.6149  0.6123
 9307TIP3    H249413   2.138   4.663  14.763  1.4722  0.1278 -0.3124
 9308TIP3   OH249414   3.840   6.123  13.170 -0.3567  0.0035 -0.2467
 9308TIP3    H149415   3.888   6.173  13.105 -1.6953 -1.6399 -2.6686
 9308TIP3    H249416   3.778   6.185  13.208 -1.0227  0.5365 -2.1311
 9309TIP3   OH249417   2.574   3.891  13.189 -0.8332 -0.1027  0.7458
 9309TIP3    H149418   2.637   3.940  13.136 -1.4731  1.7920  1.6414
 9309TIP3    H249419   2.627   3.825  13.234  0.0190 -0.4541 -0.7180
 9310TIP3   OH249420   0.695   3.305  13.140  0.0293  0.5136 -0.1014
 9310TIP3    H149421   0.646   3.243  13.085 -1.1138  1.0219  0.3117
 9310TIP3    H249422   0.691   3.267  13.228  1.1734  0.1043 -0.2106
 9311TIP3   OH249423   5.425   2.763  14.740 -0.8082 -0.1692  0.2308
 9311TIP3    H149424   5.347   2.726  14.700 -0.5792  1.3457 -1.8348
 9311TIP3    H249425   5.472   2.689  14.777 -2.5245 -1.2789  0.2646
 9312TIP3   OH249426   5.155   5.056  14.881 -0.5502  0.0385 -0.3052
 9312TIP3    H149427   5.156   4.961  14.876  0.4495 -0.2220  2.9958
 9312TIP3    H249428   5.062   5.079  14.885 -0.7973 -1.1320  2.3252
 9313TIP3   OH249429   2.313   6.714   0.408  0.4066 -0.3351 -0.4183
 9313TIP3    H149430   2.318   6.807   0.431  1.0228 -0.3578 -0.4507
 9313TIP3    H249431   2.395   6.677   0.441 -0.0664 -0.9727  0.0728
 9314TIP3   OH249432   0.911   2.223   0.170 -0.0374  0.4038 -0.8687
 9314TIP3    H149433   0.928   2.140   0.214  0.1093  1.7523  1.8013
 9314TIP3    H249434   0.998   2.261   0.157 -0.1760  0.6915 -0.9536
 9315TIP3   OH249435   5.298   6.649  12.542 -0.0898  0.1269  0.1018
 9315TIP3    H149436   5.240   6.596  12.596 -2.1090  1.2043 -0.8848
 9315TIP3    H249437   5.310   6.730  12.591 -0.3736  0.3574 -0.2032
 9316TIP3   OH249438   3.358   6.807  15.547 -0.3140  0.1107  0.0978
 9316TIP3    H149439   3.293   6.840  15.485 -1.8555 -0.7987  1.1326
 9316TIP3    H249440   3.442   6.816  15.502 -0.9676  2.6063 -0.7644
 9317TIP3   OH249441   2.223   4.960   4.288 -0.1814 -0.2762  0.3096
 9317TIP3    H149442   2.133   4.937   4.308 -0.9151  0.5855 -1.8021
 9317TIP3    H249443   2.275   4.895   4.335 -1.9724 -2.4532 -0.5756
 9318TIP3   OH249444   1.898   6.392   0.669 -0.5214  0.2712  0.0276
 9318TIP3    H149445   1.984   6.351   0.669 -1.3518 -1.6300  0.8924
 9318TIP3    H249446   1.853   6.353   0.594 -1.0299  0.2639  0.3306
 9319TIP3   OH249447   2.687   1.398  11.189  0.0505 -0.2731  0.1473
 9319TIP3    H149448   2.778   1.371  11.190 -0.2537 -1.7320 -2.5559
 9319TIP3    H249449   2.647   1.354  11.264  1.2922 -0.6417  0.6023
 9320TIP3   OH249450   5.036   2.428   1.097  0.1726  0.4077  0.1256
 9320TIP3    H149451   5.026   2.402   1.188 -0.0901  0.8092  0.2139
 9320TIP3    H249452   5.130   2.418   1.079  0.0720 -0.6196  0.1418
 9321TIP3   OH249453   5.247   5.050  14.619 -0.4161  0.2673 -0.3998
 9321TIP3    H149454   5.262   5.124  14.560  1.6961  0.2390  0.0210
 9321TIP3    H249455   5.188   5.084  14.686 -0.8388  1.0363 -1.1386
 9322TIP3   OH249456   5.375   5.369  15.552 -0.4131  0.3414  0.4015
 9322TIP3    H149457   5.318   5.430  15.504 -0.3863 -1.1945 -1.7441
 9322TIP3    H249458   5.438   5.339  15.486  2.3408  1.2110  2.4462
 9323TIP3   OH249459   6.013   1.306   5.218 -0.3827  0.3056 -0.1113
 9323TIP3    H149460   6.049   1.332   5.303  0.0462  0.6052 -0.3811
 9323TIP3    H249461   5.922   1.338   5.219  0.2021  2.0879 -0.5396
 9324TIP3   OH249462   5.965   5.213  11.945  0.1744  0.6372  0.5549
 9324TIP3    H149463   6.041   5.170  11.906 -0.0155 -0.6616  1.5718
 9324TIP3    H249464   5.890   5.163  11.914 -0.2850  1.8350 -0.3360
 9325TIP3   OH249465   6.065   5.694   6.175  0.0464  0.0483 -0.2081
 9325TIP3    H149466   6.158   5.670   6.184  0.1594  0.5540 -0.0057
 9325TIP3    H249467   6.055   5.719   6.083  0.4263  1.2858  0.0703
 9326TIP3   OH249468   2.100   2.390  16.088  0.0747  0.1328  0.5381
 9326TIP3    H149469   2.187   2.387  16.049 -0.1667  0.6070 -0.0461
 9326TIP3    H249470   2.110   2.345  16.172  0.8172 -0.0553  0.3575
 9327TIP3   OH249471   5.678   6.548   2.290  0.5551  0.2002  0.0507
 9327TIP3    H149472   5.674   6.630   2.340 -0.2035  0.8435 -1.0367
 9327TIP3    H249473   5.647   6.481   2.352 -0.1848  0.9497  0.5091
 9328TIP3   OH249474   5.943   5.794  14.893  0.0147  0.2961 -0.5383
 9328TIP3    H149475   5.894   5.796  14.811  1.2016  1.8397 -1.2490
 9328TIP3    H249476   6.034   5.805  14.867  0.4410  0.5041  0.9589
 9329TIP3   OH249477   5.086   4.698  13.689  0.4135 -0.1847  0.0380
 9329TIP3    H149478   5.068   4.758  13.761 -1.1378 -1.6984  0.9724
 9329TIP3    H249479   5.177   4.716  13.665  0.1519  2.1612  0.5969
 9330TIP3   OH249480   3.916   6.026  14.977  0.1916 -0.0687  0.2085
 9330TIP3    H149481   3.840   6.043  14.921  1.1977 -1.4589 -1.6488
 9330TIP3    H249482   3.910   5.933  14.999  1.1504 -0.0969  0.3787
 9331TIP3   OH249483   0.244   5.078   4.329 -1.2415  0.3341  0.4491
 9331TIP3    H149484   0.217   5.006   4.272  0.7906 -0.8755  0.9229
 9331TIP3    H249485   0.302   5.131   4.274 -1.8787  1.0231  0.4298
 9332TIP3   OH249486   3.371   1.380  16.743  0.1999 -0.5423 -0.0846
 9332TIP3    H149487   3.373   1.439  16.819 -0.6808  0.0562 -0.5092
 9332TIP3    H249488   3.328   1.430  16.674 -3.4571 -2.6583  0.4122
 9333TIP3   OH249489   2.713   1.898  13.913  0.2109  0.0282 -0.3238
 9333TIP3    H149490   2.738   1.960  13.845  1.7719 -0.2276 -0.0182
 9333TIP3    H249491   2.704   1.814  13.868  0.8730 -0.0643 -0.3022
 9334TIP3   OH249492   1.702   2.525   3.766 -0.2584  0.6951 -0.4488
 9334TIP3    H149493   1.764   2.463   3.726  0.5051  0.1625  1.4761
 9334TIP3    H249494   1.628   2.471   3.794 -0.5036  0.9684 -0.5629
 9335TIP3   OH249495   5.579   6.561  14.381 -0.1590 -0.2432  1.0271
 9335TIP3    H149496   5.672   6.559  14.358  0.0775  1.2776  1.7469
 9335TIP3    H249497   5.535   6.581  14.298  0.2960  0.5031  0.9532
 9336TIP3   OH249498   6.610   0.443  12.636 -0.2113 -0.3921 -0.8522
 9336TIP3    H149499   6.694   0.484  12.617 -0.1807  0.4802  0.9422
 9336TIP3    H249500   6.616   0.357  12.595  1.5922 -0.3872 -0.6881
 9337TIP3   OH249501   6.819   3.384   5.517 -0.2991  0.1448 -0.4495
 9337TIP3    H149502   6.771   3.426   5.444 -0.4447  1.9550  0.6205
 9337TIP3    H249503   6.834   3.455   5.579  1.4376 -0.9764  0.4800
 9338TIP3   OH249504   0.045   3.606  10.970  0.2198 -0.1002 -0.4725
 9338TIP3    H149505   0.037   3.701  10.986  2.0487 -0.1396  1.1950
 9338TIP3    H249506   0.061   3.599  10.876  1.7174  1.4564 -0.4060
 9339TIP3   OH249507   4.406   1.204   1.674 -0.1317  0.3798 -0.4387
 9339TIP3    H149508   4.501   1.216   1.669 -0.1082  0.0122 -0.8765
 9339TIP3    H249509   4.372   1.246   1.595 -0.3746  0.8856 -0.0729
 9340TIP3   OH249510   1.661   1.603   6.380  0.2334 -0.1594 -0.0640
 9340TIP3    H149511   1.750   1.584   6.410  0.1691  0.8044  0.7625
 9340TIP3    H249512   1.668   1.689   6.338 -0.4685  0.3029  0.7577
 9341TIP3   OH249513   2.649   4.448   0.056  0.4551 -0.0654 -0.2736
 9341TIP3    H149514   2.680   4.529   0.095  0.9279 -0.4262  0.1058
 9341TIP3    H249515   2.597   4.476  -0.020  1.0504  0.5698 -0.4548
 9342TIP3   OH249516   4.102   6.613   0.853  0.1379  0.6266 -0.1983
 9342TIP3    H149517   4.179   6.640   0.802 -0.5363  1.4099 -0.8178
 9342TIP3    H249518   4.038   6.682   0.838 -0.4935  0.2717  0.7794
 9343TIP3   OH249519   4.558   5.634  12.497 -0.0757  0.1124 -0.3055
 9343TIP3    H149520   4.586   5.691  12.569 -0.3013  2.0423 -1.6809
 9343TIP3    H249521   4.633   5.632  12.438 -0.1081 -0.9973 -0.3393
 9344TIP3   OH249522   4.699   2.117   2.422 -0.3894 -0.0154 -0.4690
 9344TIP3    H149523   4.608   2.137   2.400 -0.4217 -0.1429 -0.4552
 9344TIP3    H249524   4.728   2.191   2.475 -0.4158  0.1318 -0.6602
 9345TIP3   OH249525   2.054   3.599   0.020 -0.5792 -0.3577  0.3886
 9345TIP3    H149526   2.074   3.580  -0.071 -1.8365 -0.7711  0.1863
 9345TIP3    H249527   2.005   3.681   0.017  0.0115  0.0189  0.7709
 9346TIP3   OH249528   0.123   0.605  11.333 -0.5460 -0.3211 -0.1549
 9346TIP3    H149529   0.149   0.692  11.306 -1.4948  0.7550  2.1060
 9346TIP3    H249530   0.146   0.601  11.426  0.8450 -3.0595 -0.4817
 9347TIP3   OH249531   4.027   3.178  12.235 -0.1735 -0.5505 -0.1399
 9347TIP3    H149532   3.959   3.240  12.263 -0.8787 -1.1086 -0.6083
 9347TIP3    H249533   4.091   3.181  12.306 -0.1752  0.7471 -0.1694
 9348TIP3   OH249534   6.678   2.080  12.335 -0.7051 -0.0148  0.2544
 9348TIP3    H149535   6.681   2.172  12.307 -1.2262 -0.3302 -0.8968
 9348TIP3    H249536   6.689   2.084  12.430  1.8902  1.0456 -0.0028
 9349TIP3   OH249537   0.985   1.073   6.136 -0.0180 -0.5079  0.2546
 9349TIP3    H149538   0.891   1.089   6.123  0.0567 -0.5337 -0.3793
 9349TIP3    H249539   1.020   1.158   6.164 -0.1282 -0.3178 -0.1582
 9350TIP3   OH249540   1.539   0.144   4.593  0.3058  0.0330 -0.4735
 9350TIP3    H149541   1.569   0.186   4.513  0.3560  0.7480 -0.0856
 9350TIP3    H249542   1.595   0.067   4.603 -0.4640 -0.7323 -1.7421
 9351TIP3   OH249543   6.763   5.549  10.657 -0.7952 -0.3923 -0.8463
 9351TIP3    H149544   6.730   5.480  10.715 -2.9246  0.0456 -1.4493
 9351TIP3    H249545   6.858   5.548  10.671 -1.0879 -1.1217  1.7063
 9352TIP3   OH249546   0.889   4.035   2.911 -0.2448 -0.1959  0.1496
 9352TIP3    H149547   0.881   4.011   3.003  1.6577 -0.5056  0.2672
 9352TIP3    H249548   0.890   4.131   2.912 -0.1493 -0.1979  0.4633
 9353TIP3   OH249549   1.914   2.777  12.724  0.7746 -0.2934 -0.2894
 9353TIP3    H149550   1.841   2.830  12.754  0.9059  0.9950 -2.0536
 9353TIP3    H249551   1.947   2.823  12.647  3.9963 -0.3810  0.9003
 9354TIP3   OH249552   5.628   1.281  12.186  0.4087  0.3273 -0.7793
 9354TIP3    H149553   5.685   1.321  12.120  1.8310 -3.2857 -1.9911
 9354TIP3    H249554   5.559   1.239  12.136 -0.4583  0.3689  0.3374
 9355TIP3   OH249555   0.743   5.745  13.679  0.9286 -0.0823  0.5713
 9355TIP3    H149556   0.672   5.807  13.660  0.4598 -0.8639 -0.3254
 9355TIP3    H249557   0.759   5.756  13.773 -2.0792 -1.5846  1.3866
 9356TIP3   OH249558   6.280   0.472   1.753 -0.6451  0.0820  0.3321
 9356TIP3    H149559   6.292   0.384   1.717 -0.2933  0.0333  0.5610
 9356TIP3    H249560   6.208   0.509   1.703 -0.0602  0.0806 -0.5277
 9357TIP3   OH249561   1.463   1.575  15.575  0.3261 -0.2313  0.1334
 9357TIP3    H149562   1.558   1.591  15.579  0.1167  0.8557  1.1858
 9357TIP3    H249563   1.447   1.510  15.643  0.4140 -1.0121 -0.5780
 9358TIP3   OH249564   4.345   2.596  12.202 -0.6881  0.4965  0.0743
 9358TIP3    H149565   4.325   2.555  12.286  1.7751 -1.1098  0.0024
 9358TIP3    H249566   4.269   2.577  12.147 -2.2913  1.4830  1.8456
 9359TIP3   OH249567   5.549   1.513   1.790  0.5504  0.0708  0.0534
 9359TIP3    H149568   5.514   1.591   1.746 -0.0400 -0.4347 -0.3847
 9359TIP3    H249569   5.643   1.515   1.771  0.2769 -0.2877 -1.5016
 9360TIP3   OH249570   5.056   2.363   4.016 -0.1921  0.6532  0.3275
 9360TIP3    H149571   5.129   2.424   4.015  0.0042  0.4596 -2.0634
 9360TIP3    H249572   5.096   2.277   4.024 -0.3357  0.6570  1.2893
 9361TIP3   OH249573   2.695   1.425  12.806 -0.0768  0.3131 -0.0828
 9361TIP3    H149574   2.672   1.510  12.767 -1.6874 -0.7983 -1.7506
 9361TIP3    H249575   2.762   1.390  12.747  0.6044  0.4109  0.6189
 9362TIP3   OH249576   1.877   4.858   2.698  0.6631 -0.4445 -0.0116
 9362TIP3    H149577   1.789   4.820   2.694  0.1999  0.4318  1.1930
 9362TIP3    H249578   1.903   4.868   2.607  0.0074 -1.8237 -0.3733
 9363TIP3   OH249579   1.169   3.633   4.177  0.5899  0.0786 -0.2820
 9363TIP3    H149580   1.113   3.660   4.104  0.5178 -0.3249 -0.3780
 9363TIP3    H249581   1.222   3.710   4.197  0.7712  0.1160 -0.9079
 9364TIP3   OH249582   3.579   2.481  14.572  0.3755  0.1121  0.5151
 9364TIP3    H149583   3.593   2.387  14.572  0.6686  0.1557  0.5176
 9364TIP3    H249584   3.484   2.491  14.569  0.3341 -0.1890 -2.3929
 9365TIP3   OH249585   6.043   3.254   3.253 -0.0303  0.2674  0.1660
 9365TIP3    H149586   5.964   3.232   3.204 -0.6268  0.8700  0.8388
 9365TIP3    H249587   6.021   3.334   3.301  0.4235 -0.4616  1.6513
 9366TIP3   OH249588   0.356   2.022  16.599 -0.3102 -0.3889 -0.0789
 9366TIP3    H149589   0.281   2.051  16.650 -2.0883 -0.5694 -2.4490
 9366TIP3    H249590   0.402   2.103  16.576 -1.6807  0.0596 -1.3681
 9367TIP3   OH249591   0.694   4.925   1.883  0.0907  0.2042 -0.4265
 9367TIP3    H149592   0.789   4.914   1.879  0.4083  1.1432  2.5082
 9367TIP3    H249593   0.677   5.002   1.830  1.1400  0.7037 -0.0643
 9368TIP3   OH249594   4.906   0.690  15.161  0.2290 -0.1813  0.4472
 9368TIP3    H149595   4.885   0.767  15.109 -0.4649 -0.6143  0.0723
 9368TIP3    H249596   4.821   0.661  15.196  0.3896 -1.0999  0.1168
 9369TIP3   OH249597   0.352   6.005   0.262 -0.4885 -0.6296 -0.0634
 9369TIP3    H149598   0.333   6.098   0.278  2.3159 -0.2950  1.9958
 9369TIP3    H249599   0.268   5.961   0.275 -1.1663  1.2420  2.7126
 9370TIP3   OH249600   5.682   0.524   0.513  0.0871  0.4868  0.8132
 9370TIP3    H149601   5.631   0.479   0.445  1.1134  0.2827  0.1394
 9370TIP3    H249602   5.715   0.603   0.469  1.3452 -0.0037  0.8321
 9371TIP3   OH249603   1.600   0.921  11.196 -0.1891  0.3851  0.1915
 9371TIP3    H149604   1.584   1.011  11.166  0.1119  0.8078  1.2591
 9371TIP3    H249605   1.678   0.894  11.149 -0.5196  0.5228 -0.4535
 9372TIP3   OH249606   6.375   1.368  12.851  0.6924 -0.1289  0.3892
 9372TIP3    H149607   6.386   1.385  12.945  0.6590 -0.5552  0.4706
 9372TIP3    H249608   6.432   1.432  12.809 -0.5959  1.2608  0.6303
 9373TIP3   OH249609   2.320   5.103   4.584  0.3728 -0.1370  0.5620
 9373TIP3    H149610   2.341   5.011   4.568  1.1058  0.2999 -1.3190
 9373TIP3    H249611   2.339   5.116   4.677  3.0810 -1.2003  0.2560
 9374TIP3   OH249612   4.165   6.603   3.972  0.0675  0.0287 -0.1659
 9374TIP3    H149613   4.229   6.644   3.913  1.2782 -0.1052  1.0056
 9374TIP3    H249614   4.080   6.637   3.943  0.3957 -1.2202 -2.9987
 9375TIP3   OH249615   6.106   0.753   1.406 -0.3949  0.1122  0.4404
 9375TIP3    H149616   6.113   0.849   1.408  0.0505  0.1862 -1.7164
 9375TIP3    H249617   6.085   0.733   1.314  2.2767 -1.9775  0.1638
 9376TIP3   OH249618   1.488   5.413  14.894  0.5075 -0.1481 -0.1539
 9376TIP3    H149619   1.516   5.438  14.982  0.3571  1.6616 -0.5810
 9376TIP3    H249620   1.525   5.481  14.837  0.4553 -1.1924 -1.4742
 9377TIP3   OH249621   4.845   5.230   5.569  0.2105 -0.0241 -0.0936
 9377TIP3    H149622   4.777   5.213   5.635  1.7636  0.8994  1.8296
 9377TIP3    H249623   4.829   5.320   5.541  0.2974 -0.0032 -0.0754
 9378TIP3   OH249624   2.664   1.973   1.698  0.3220 -0.7983 -0.2530
 9378TIP3    H149625   2.643   2.052   1.648 -0.4861  1.1535  2.8790
 9378TIP3    H249626   2.739   1.997   1.751  2.8951 -3.6744 -2.1940
 9379TIP3   OH249627   6.823   5.953   0.317  0.5664 -0.0009 -0.0468
 9379TIP3    H149628   6.881   5.997   0.378  0.7196  0.6397 -0.6477
 9379TIP3    H249629   6.882   5.917   0.250  0.6529 -2.6385  1.2852
 9380TIP3   OH249630   1.864   3.871  12.287  0.0214  0.1131 -0.0647
 9380TIP3    H149631   1.865   3.778  12.265 -0.8768  0.3012 -1.0001
 9380TIP3    H249632   1.903   3.914  12.210  0.9843  0.4808  0.6056
 9381TIP3   OH249633   5.945   1.407  11.606  0.0148 -0.3092  0.6016
 9381TIP3    H149634   5.883   1.479  11.621  0.1515 -0.4033  1.6297
 9381TIP3    H249635   5.935   1.387  11.512  1.0293  2.0310 -0.0767
 9382TIP3   OH249636   3.071   5.920  11.992 -0.0310 -0.1243 -0.7234
 9382TIP3    H149637   3.039   5.887  12.076 -1.2723  0.3072 -1.0063
 9382TIP3    H249638   3.161   5.948  12.010  0.3437 -1.6915  0.0207
 9383TIP3   OH249639   2.572   5.994  12.799  0.0380  0.7001  0.5268
 9383TIP3    H149640   2.526   6.072  12.831 -1.0684 -0.6226  2.3948
 9383TIP3    H249641   2.519   5.964  12.726  0.2001  1.4130  0.1068
 9384TIP3   OH249642   6.552   3.108   1.356 -0.3310 -0.0695  0.0443
 9384TIP3    H149643   6.642   3.137   1.366 -0.3405  0.0908 -0.3238
 9384TIP3    H249644   6.503   3.161   1.419 -0.3962  0.9706 -0.8436
 9385TIP3   OH249645   3.279   4.490   1.923  0.1254 -0.5079  0.6885
 9385TIP3    H149646   3.370   4.506   1.896 -0.3036  0.6246 -0.1747
 9385TIP3    H249647   3.264   4.551   1.994 -0.9234  1.7591 -1.3369
 9386TIP3   OH249648   3.689   6.800  14.875  0.1121 -0.0420 -0.4535
 9386TIP3    H149649   3.706   6.706  14.876 -0.2734 -0.1714 -2.3525
 9386TIP3    H249650   3.593   6.807  14.873  0.1106  0.4295  0.5689
 9387TIP3   OH249651   4.591   3.170  12.906  0.2204 -0.1508  0.1784
 9387TIP3    H149652   4.599   3.188  12.813 -0.7675  1.9488  0.4497
 9387TIP3    H249653   4.498   3.185  12.926  0.3462 -0.8810  1.4558
 9388TIP3   OH249654   3.149   4.696  16.222 -0.0195 -0.1755 -0.0313
 9388TIP3    H149655   3.144   4.671  16.314 -2.9558 -1.6634 -0.4743
 9388TIP3    H249656   3.238   4.730  16.211  1.4248 -2.6907  2.6383
 9389TIP3   OH249657   1.608   0.634  12.422 -0.3031 -0.1249 -0.5278
 9389TIP3    H149658   1.514   0.618  12.428 -0.8522  0.4704 -4.6506
 9389TIP3    H249659   1.644   0.553  12.386  0.5612  0.1043 -0.2080
 9390TIP3   OH249660   4.240   0.736  13.075  0.4475 -0.2889  0.3099
 9390TIP3    H149661   4.187   0.780  13.008 -0.2721 -0.8962  0.4602
 9390TIP3    H249662   4.322   0.785  13.077  0.4859 -0.2482 -1.0095
 9391TIP3   OH249663   6.508   3.086  16.141 -0.3435  0.5693 -0.5163
 9391TIP3    H149664   6.523   2.991  16.137 -1.6407  0.3669 -0.8764
 9391TIP3    H249665   6.545   3.119  16.060  1.0573  0.5313  0.0754
 9392TIP3   OH249666   6.167   4.816  14.171 -0.2115 -0.2945 -0.4099
 9392TIP3    H149667   6.220   4.892  14.197  1.4041 -1.3534 -0.4480
 9392TIP3    H249668   6.180   4.810  14.076 -0.2036 -0.7006 -0.3826
 9393TIP3   OH249669   6.038   0.479  14.412 -0.1882 -0.2197 -0.4133
 9393TIP3    H149670   5.996   0.400  14.379 -0.1072 -1.1394  1.5501
 9393TIP3    H249671   5.988   0.502  14.490  0.0945  1.4031 -0.6778
 9394TIP3   OH249672   2.542   5.394   0.703  0.4133  0.4513  0.0487
 9394TIP3    H149673   2.617   5.340   0.728 -0.8191 -2.0070 -1.1272
 9394TIP3    H249674   2.546   5.398   0.607 -1.4908 -0.7537 -0.1552
 9395TIP3   OH249675   4.009   1.698   1.321  0.3521 -0.3550 -0.0764
 9395TIP3    H149676   4.056   1.780   1.337  1.6050 -1.1273  0.3282
 9395TIP3    H249677   3.963   1.712   1.238  0.1667  0.9068  0.2231
 9396TIP3   OH249678   2.646   0.174  16.916 -0.6714  0.4364  0.4061
 9396TIP3    H149679   2.648   0.253  16.861  1.4195 -0.6796 -1.2641
 9396TIP3    H249680   2.706   0.195  16.988  0.8978 -0.0270 -0.7191
 9397TIP3   OH249681   3.432   5.102  16.083  0.4865  0.1478  0.2001
 9397TIP3    H149682   3.375   5.128  16.156  0.9393  2.4917 -0.2005
 9397TIP3    H249683   3.521   5.111  16.116  0.7217  1.9543 -0.7960
 9398TIP3   OH249684   6.344   5.704  16.326 -0.4207  0.2614 -0.4440
 9398TIP3    H149685   6.426   5.732  16.284 -0.5420  0.1425 -0.7603
 9398TIP3    H249686   6.278   5.713  16.258 -0.7768  0.8882 -0.0281
 9399TIP3   OH249687   0.055   6.795  13.242  0.3466  0.6972 -0.0245
 9399TIP3    H149688   0.114   6.813  13.169  0.3984  1.1123  0.1133
 9399TIP3    H249689   0.023   6.882  13.268 -0.3662  0.4738 -0.1352
 9400TIP3   OH249690   1.774   0.099   5.648  0.2429 -0.0472  0.0716
 9400TIP3    H149691   1.691   0.076   5.691 -0.3033 -0.1417 -0.9985
 9400TIP3    H249692   1.831   0.127   5.719 -1.2424  1.6060  0.6900
 9401TIP3   OH249693   6.270   0.482   2.057  0.2122 -0.3474 -0.0643
 9401TIP3    H149694   6.228   0.548   2.002 -0.9394 -1.3972 -0.4887
 9401TIP3    H249695   6.278   0.405   2.001  0.7399 -0.8469  0.6762
 9402TIP3   OH249696   3.553   5.847  12.610  0.3829 -0.6737  0.3749
 9402TIP3    H149697   3.627   5.842  12.550 -0.1545  1.0575 -0.5193
 9402TIP3    H249698   3.479   5.812  12.560 -0.2610  1.6105 -0.4043
 9403TIP3   OH249699   0.911   4.028  16.208 -0.7402  0.1025 -0.3436
 9403TIP3    H149700   0.818   4.046  16.193 -0.7447  0.2720 -0.1086
 9403TIP3    H249701   0.929   4.062  16.295 -0.0735  1.5327 -0.9996
 9404TIP3   OH249702   1.116   3.014  15.366 -0.2964  0.0393  0.0058
 9404TIP3    H149703   1.183   2.972  15.312 -1.0740  0.4337 -1.3058
 9404TIP3    H249704   1.035   2.967  15.344 -0.5115 -0.2761  1.3889
 9405TIP3   OH249705   3.989   1.140   3.521  0.4174 -0.0393  0.5982
 9405TIP3    H149706   4.084   1.149   3.521  0.3187  1.6302 -1.5131
 9405TIP3    H249707   3.956   1.228   3.502 -1.5470 -0.6982  0.6863
 9406TIP3   OH249708   3.558   3.677   1.700 -0.8390 -0.7003  0.3066
 9406TIP3    H149709   3.463   3.682   1.697 -0.7999 -0.2566 -0.1074
 9406TIP3    H249710   3.586   3.684   1.609 -0.2940  1.4602  0.5990
 9407TIP3   OH249711   4.074   1.872   2.054  0.0846  0.2849  0.4907
 9407TIP3    H149712   3.987   1.836   2.070 -0.0455  0.5436  0.3791
 9407TIP3    H249713   4.089   1.932   2.127  0.3005  0.0058  0.6771
 9408TIP3   OH249714   6.252   5.212   1.547  1.0451  0.6702 -0.2554
 9408TIP3    H149715   6.322   5.220   1.611  1.5159  1.6705 -0.8729
 9408TIP3    H249716   6.258   5.122   1.515  0.3352 -0.0991  1.5971
 9409TIP3   OH249717   1.226   4.225   3.164  0.4287 -0.1222 -0.0831
 9409TIP3    H149718   1.229   4.250   3.256  1.9399  1.7553 -0.5659
 9409TIP3    H249719   1.150   4.271   3.129  1.2295  1.1236 -0.2410
 9410TIP3   OH249720   5.403   0.615  16.582 -0.1799 -0.9964 -0.4505
 9410TIP3    H149721   5.454   0.535  16.588 -0.6214 -1.2147  4.4280
 9410TIP3    H249722   5.319   0.594  16.623 -2.2071  0.8450 -3.2104
 9411TIP3   OH249723   5.922   1.952   6.054  0.2513 -0.0713 -0.3384
 9411TIP3    H149724   5.966   1.869   6.037 -0.0568 -0.0339 -1.3371
 9411TIP3    H249725   5.829   1.930   6.060  0.3408 -0.1419  1.7026
 9412TIP3   OH249726   6.574   1.605   5.721 -0.7652  0.4450 -0.5197
 9412TIP3    H149727   6.588   1.654   5.803  0.6935 -0.6022 -0.0887
 9412TIP3    H249728   6.623   1.654   5.655  1.2733 -0.7020  0.0491
 9413TIP3   OH249729   0.566   3.896   0.396 -0.6588 -0.1215 -0.5028
 9413TIP3    H149730   0.528   3.976   0.432 -0.7320 -0.2534 -0.2895
 9413TIP3    H249731   0.652   3.889   0.438  0.4336  1.1700 -2.3258
 9414TIP3   OH249732   6.312   1.392   0.578 -0.1480 -0.1652 -0.3938
 9414TIP3    H149733   6.308   1.320   0.641  1.7194  0.2976  0.3439
 9414TIP3    H249734   6.391   1.374   0.526  1.9702  2.5911  1.5416
 9415TIP3   OH249735   3.206   4.237  13.783 -0.6602 -0.3949  0.6216
 9415TIP3    H149736   3.255   4.155  13.785  0.2920  0.1657  0.7916
 9415TIP3    H249737   3.173   4.243  13.694  2.2728  0.7276 -0.5209
 9416TIP3   OH249738   1.869   3.721  14.594 -0.3818 -0.3728 -0.3934
 9416TIP3    H149739   1.783   3.750  14.564 -0.0883  1.6639  0.5772
 9416TIP3    H249740   1.929   3.753  14.527 -0.2171 -0.1997 -0.1637
 9417TIP3   OH249741   6.015   0.477  12.577  0.1068  0.3283 -0.6713
 9417TIP3    H149742   5.988   0.469  12.485  0.6206 -0.3879 -0.7716
 9417TIP3    H249743   6.091   0.419  12.584  0.4178  0.8189  0.0713
 9418TIP3   OH249744   3.646   5.653  12.205  0.1830  0.3756 -0.7554
 9418TIP3    H149745   3.552   5.662  12.186 -0.1565  0.1336  0.6566
 9418TIP3    H249746   3.688   5.652  12.119 -0.9773  1.9027 -1.3926
 9419TIP3   OH249747   5.709   0.793   3.957  0.2039 -0.4634  0.2469
 9419TIP3    H149748   5.659   0.742   3.893 -0.6394  1.0038 -0.3231
 9419TIP3    H249749   5.651   0.866   3.980  0.6110 -0.7728  2.4759
 9420TIP3   OH249750   3.764   1.046  16.408 -0.5248 -0.3396 -0.8680
 9420TIP3    H149751   3.746   1.139  16.397  1.1770 -0.0293 -1.3217
 9420TIP3    H249752   3.753   1.009  16.320 -1.2575 -0.5992 -0.6759
 9421TIP3   OH249753   4.096   3.188   5.212  0.3565 -0.2531 -0.1082
 9421TIP3    H149754   4.133   3.134   5.142  0.7523  0.3720 -0.3924
 9421TIP3    H249755   4.122   3.144   5.293  3.1188  0.9493 -0.2062
 9422TIP3   OH249756   3.051   3.058  12.821 -0.5341 -0.2414  0.0534
 9422TIP3    H149757   3.077   3.064  12.729  0.2087  1.6732  0.3400
 9422TIP3    H249758   2.984   2.990  12.822 -1.5901  0.6463 -2.1496
 9423TIP3   OH249759   3.937   1.446   6.749  0.1558 -0.0280  0.0783
 9423TIP3    H149760   3.909   1.377   6.688  0.2990  1.5148 -1.8248
 9423TIP3    H249761   4.015   1.411   6.791 -1.5013 -2.2554  1.5320
 9424TIP3   OH249762   1.138   5.142  11.250 -0.5450  0.2922  0.5241
 9424TIP3    H149763   1.134   5.125  11.156 -2.1769 -4.5378  1.1765
 9424TIP3    H249764   1.224   5.181  11.263  1.3087 -2.1785 -2.6820
 9425TIP3   OH249765   4.250   6.561   2.938  0.2034 -0.2179  0.1047
 9425TIP3    H149766   4.196   6.577   2.861 -0.2017 -2.2594 -0.0795
 9425TIP3    H249767   4.219   6.624   3.003 -0.5087  0.4725 -0.8856
 9426TIP3   OH249768   0.472   1.856  11.558  0.0865  0.0447  0.1906
 9426TIP3    H149769   0.531   1.931  11.555 -0.1027  0.2179  0.6409
 9426TIP3    H249770   0.429   1.863  11.643  0.1161 -0.6143  0.2690
 9427TIP3   OH249771   0.380   2.691  10.744 -0.1449  0.4322 -0.2270
 9427TIP3    H149772   0.296   2.647  10.729 -0.1845  0.3461  0.2346
 9427TIP3    H249773   0.378   2.767  10.686 -0.6916  0.6254  0.0308
 9428TIP3   OH249774   2.910   4.773   0.383  0.1789  0.0076 -0.1102
 9428TIP3    H149775   2.988   4.744   0.335  0.8722  1.5616  0.0389
 9428TIP3    H249776   2.942   4.799   0.469 -0.4187  1.0508 -0.1822
 9429TIP3   OH249777   1.935   4.916  12.649 -0.3676  0.8198  0.0489
 9429TIP3    H149778   1.994   4.894  12.577 -1.5993 -1.4913 -0.3498
 9429TIP3    H249779   1.855   4.945  12.607 -0.6481  0.7457  0.5182
 9430TIP3   OH249780   5.569   0.384   0.208  0.6533  0.6877 -0.2147
 9430TIP3    H149781   5.629   0.459   0.208  1.2217  0.2806 -1.9379
 9430TIP3    H249782   5.486   0.419   0.178  0.5317  0.8900  0.3494
 9431TIP3   OH249783   1.892   0.128   3.482  0.3972  0.2020 -0.0891
 9431TIP3    H149784   1.878   0.074   3.560  1.2396 -0.1717 -0.1787
 9431TIP3    H249785   1.821   0.191   3.483 -0.0604 -0.3074  0.5477
 9432TIP3   OH249786   5.220   4.575   0.926  0.4005  0.1449  0.4707
 9432TIP3    H149787   5.311   4.571   0.896  0.5710  0.0158  0.9935
 9432TIP3    H249788   5.216   4.515   1.001 -0.4459 -0.8973 -0.3692
 9433TIP3   OH249789   0.444   0.493  13.177  0.5689  0.5938  0.5274
 9433TIP3    H149790   0.451   0.486  13.082  0.7569 -0.4155  0.6067
 9433TIP3    H249791   0.354   0.522  13.192 -0.5906 -2.4485  0.1373
 9434TIP3   OH249792   3.171   4.934  14.177 -0.3859  0.3792  0.5404
 9434TIP3    H149793   3.102   4.947  14.112 -0.5093 -1.9585  0.1079
 9434TIP3    H249794   3.239   4.997  14.153 -0.5434 -0.2343 -1.7132
 9435TIP3   OH249795   5.722   4.569   1.413  0.0165 -0.3549 -0.1918
 9435TIP3    H149796   5.653   4.534   1.358  0.4473  0.0233 -0.9912
 9435TIP3    H249797   5.793   4.591   1.352 -0.0578  1.4598  0.3047
 9436TIP3   OH249798   4.130   4.247   1.061 -0.2387 -0.1231  0.2906
 9436TIP3    H149799   4.209   4.296   1.084 -0.9035  1.0743  0.1224
 9436TIP3    H249800   4.076   4.310   1.013 -1.1993 -0.9830  0.2115
 9437TIP3   OH249801   5.704   0.400  14.100  0.5765  0.4435  0.3485
 9437TIP3    H149802   5.704   0.393  14.004  0.3517 -1.2703  0.4399
 9437TIP3    H249803   5.619   0.364  14.126  1.5051 -1.2084  1.2797
 9438TIP3   OH249804   3.536   0.663  14.958 -0.6233 -0.0655  0.1128
 9438TIP3    H149805   3.459   0.695  15.005 -0.2812 -1.0822  1.4356
 9438TIP3    H249806   3.505   0.646  14.869 -1.7371  0.2246  0.4247
 9439TIP3   OH249807   1.246   0.722  16.504 -0.0441 -0.2736  0.3627
 9439TIP3    H149808   1.259   0.753  16.593 -0.9043  0.2405  0.3203
 9439TIP3    H249809   1.210   0.634  16.513 -0.9727  0.1161  0.5463
 9440TIP3   OH249810   6.008   5.190  14.264  0.1050  0.4358  0.4706
 9440TIP3    H149811   6.092   5.199  14.310  0.3619 -1.2675  0.3647
 9440TIP3    H249812   6.025   5.128  14.194 -0.3573  2.7775 -1.8603
 9441TIP3   OH249813   5.958   0.925  16.521  0.1376  0.1682 -0.0081
 9441TIP3    H149814   5.874   0.878  16.526 -0.4579  0.9184 -2.0188
 9441TIP3    H249815   5.933   1.015  16.503  1.3165  1.1430  2.7135
 9442TIP3   OH249816   2.394   0.771   3.261  0.4207 -0.0180  0.2397
 9442TIP3    H149817   2.309   0.765   3.217 -0.7456 -1.9135  2.5618
 9442TIP3    H249818   2.455   0.728   3.201 -0.9260 -1.6891  0.0081
 9443TIP3   OH249819   6.161   3.108  15.693 -0.5590 -0.5452  0.3377
 9443TIP3    H149820   6.207   3.178  15.740  0.0732 -1.6631  1.4368
 9443TIP3    H249821   6.087   3.087  15.750 -1.5586  0.1576 -0.6635
 9444TIP3   OH249822   4.071   1.467  14.499 -0.0157  0.3491 -0.1388
 9444TIP3    H149823   4.115   1.514  14.428  0.4943 -1.2636 -0.9429
 9444TIP3    H249824   3.981   1.453  14.468 -0.3621  1.3283  0.3802
 9445TIP3   OH249825   6.711   6.745  15.280  0.1719 -0.0198  0.4787
 9445TIP3    H149826   6.779   6.810  15.294 -0.7044  1.1092 -0.3109
 9445TIP3    H249827   6.643   6.767  15.344 -1.4730  1.8178 -1.7549
 9446TIP3   OH249828   0.691   2.437  14.940  0.0174  0.3415 -0.0023
 9446TIP3    H149829   0.669   2.384  14.863 -2.5465 -0.8196  1.4103
 9446TIP3    H249830   0.739   2.377  14.997  1.6950  1.1288 -0.5267
 9447TIP3   OH249831   1.073   0.021  15.311  0.0440  0.0325  0.2341
 9447TIP3    H149832   1.161   0.031  15.347 -0.3202 -0.8616  1.4257
 9447TIP3    H249833   1.085  -0.037  15.236  0.2335 -1.8104  1.6202
 9448TIP3   OH249834   4.648   1.722  15.554 -1.0616 -0.1486  0.4336
 9448TIP3    H149835   4.684   1.807  15.527  0.3245 -0.5567  0.8826
 9448TIP3    H249836   4.617   1.682  15.473  0.1906 -0.0584 -0.1141
 9449TIP3   OH249837   5.371   1.460  16.165 -0.2802 -0.6385  0.7759
 9449TIP3    H149838   5.392   1.415  16.247  0.9256 -2.5663 -0.5183
 9449TIP3    H249839   5.456   1.482  16.127 -0.8268  0.5657  0.1771
 9450TIP3   OH249840   5.458   1.264   3.689 -0.1526 -0.5130  0.3310
 9450TIP3    H149841   5.363   1.261   3.680 -0.1779  0.7736 -0.0796
 9450TIP3    H249842   5.487   1.174   3.674 -1.0468 -0.3794 -3.0639
 9451TIP3   OH249843   5.117   6.642  12.079 -0.1096  0.0437  0.4492
 9451TIP3    H149844   5.032   6.683  12.058  0.0472  1.3754  2.2281
 9451TIP3    H249845   5.144   6.601  11.997 -2.6092 -0.6888 -0.0932
 9452TIP3   OH249846   3.414   4.774   5.418  0.3083  0.0581  0.1349
 9452TIP3    H149847   3.376   4.772   5.505 -2.5188  0.5711 -0.9839
 9452TIP3    H249848   3.477   4.846   5.420 -1.0455  1.2636  1.2775
 9453TIP3   OH249849   3.332   0.330  12.533 -0.1884 -0.1396  0.2685
 9453TIP3    H149850   3.237   0.320  12.535 -0.1632 -0.2207  1.4510
 9453TIP3    H249851   3.346   0.425  12.532 -0.2749 -0.1142  1.0521
 9454TIP3   OH249852   2.130   6.714   2.310  0.2058 -0.3058 -0.3075
 9454TIP3    H149853   2.207   6.764   2.336 -0.0700 -0.8882  1.7712
 9454TIP3    H249854   2.160   6.624   2.303  0.2366 -0.2036 -2.0157
 9455TIP3   OH249855   1.449   2.442  15.055 -0.3582  0.0399  0.6023
 9455TIP3    H149856   1.534   2.402  15.038 -0.2178  0.0378  1.2983
 9455TIP3    H249857   1.392   2.368  15.078 -0.4439  0.0901  0.5544
 9456TIP3   OH249858   1.973   5.157  10.962  0.3246  0.3939  0.4285
 9456TIP3    H149859   1.896   5.100  10.957  2.1489 -2.2778  0.6193
 9456TIP3    H249860   1.994   5.177  10.871 -1.0698  1.9576  0.3988
 9457TIP3   OH249861   0.083   0.752  10.623  0.1166  0.5018 -0.2446
 9457TIP3    H149862  -0.006   0.776  10.597 -0.9355 -0.0891  2.4341
 9457TIP3    H249863   0.127   0.732  10.541 -1.8388  1.9799 -1.7732
 9458TIP3   OH249864   1.983   5.192  13.254  0.1891  0.1792  0.3243
 9458TIP3    H149865   1.919   5.230  13.194 -0.2017  0.8059  1.1199
 9458TIP3    H249866   1.945   5.107  13.279  0.3902 -0.1176 -0.3626
 9459TIP3   OH249867   4.775   1.755  13.795  0.0759  0.1854 -0.2864
 9459TIP3    H149868   4.739   1.680  13.745 -0.3486  0.4935 -0.4519
 9459TIP3    H249869   4.760   1.731  13.886  1.1758 -0.5419 -0.2825
 9460TIP3   OH249870   0.707   4.404  12.237  0.5382  0.0240 -0.1613
 9460TIP3    H149871   0.739   4.363  12.157  0.9372 -1.8173  0.8959
 9460TIP3    H249872   0.671   4.332  12.289 -3.8954  1.6445 -0.4918
 9461TIP3   OH249873   6.028   4.456   3.420 -0.1008 -0.4443 -0.1350
 9461TIP3    H149874   5.950   4.453   3.364  0.1547 -1.0467 -0.4765
 9461TIP3    H249875   5.994   4.467   3.508 -0.5409 -0.0088 -0.3540
 9462TIP3   OH249876   4.470   5.188  15.192 -0.3049 -0.2183 -0.2733
 9462TIP3    H149877   4.509   5.273  15.171 -1.0778  0.0590 -0.6170
 9462TIP3    H249878   4.513   5.162  15.273 -0.5699  0.8425  0.2349
 9463TIP3   OH249879   1.849   4.673  14.856 -0.3136 -0.5203 -0.1893
 9463TIP3    H149880   1.809   4.666  14.769 -0.8577 -1.4581  0.1295
 9463TIP3    H249881   1.935   4.632  14.845  1.2226  2.6124 -1.2071
 9464TIP3   OH249882   6.418   4.256   1.602 -0.3342  0.0555 -0.0077
 9464TIP3    H149883   6.378   4.342   1.594 -0.1096  0.1267 -0.4226
 9464TIP3    H249884   6.358   4.206   1.657 -0.9079  0.2082 -0.4916
 9465TIP3   OH249885   2.476   4.928  15.675 -0.8506 -0.0006 -0.4253
 9465TIP3    H149886   2.408   4.973  15.626 -1.0928  0.4322  0.3021
 9465TIP3    H249887   2.429   4.863  15.728 -0.3810 -2.7436 -3.0617
 9466TIP3   OH249888   6.691   6.031  14.759  0.2662 -0.1132  0.0187
 9466TIP3    H149889   6.598   6.045  14.747  0.4223  0.3949 -0.6316
 9466TIP3    H249890   6.697   5.943  14.798 -0.4188 -0.7284 -1.1997
 9467TIP3   OH249891   2.767   6.402  15.852  0.4081 -0.1306  0.1077
 9467TIP3    H149892   2.693   6.416  15.912 -1.0409  0.5817 -1.7135
 9467TIP3    H249893   2.842   6.442  15.895 -0.5783  0.3270  1.4452
 9468TIP3   OH249894   0.594   3.223   2.552  0.5283 -0.2490 -0.0209
 9468TIP3    H149895   0.687   3.248   2.547  0.5303 -0.0861  0.7011
 9468TIP3    H249896   0.547   3.304   2.535  0.5219 -0.2287  0.0927
 9469TIP3   OH249897   3.349   0.969  13.577 -0.2902 -0.0201 -0.0914
 9469TIP3    H149898   3.441   0.994  13.571 -0.1445 -0.6390 -0.5752
 9469TIP3    H249899   3.348   0.896  13.639 -0.5763  0.5546  0.5837
 9470TIP3   OH249900   5.224   0.885   3.176  0.1012  0.4498  0.5715
 9470TIP3    H149901   5.171   0.838   3.112  0.6112  0.6757 -0.0267
 9470TIP3    H249902   5.213   0.835   3.257 -0.5306  0.1458  0.3092
 9471TIP3   OH249903   3.490   3.688  13.532  0.0706 -0.5224 -0.1155
 9471TIP3    H149904   3.403   3.667  13.567  0.6161 -0.1524  1.5877
 9471TIP3    H249905   3.526   3.604  13.504 -0.3037 -0.8923  0.4904
 9472TIP3   OH249906   1.930   4.470   0.735  0.1801 -0.3538 -0.8000
 9472TIP3    H149907   1.898   4.420   0.810  1.2206  0.9463  0.5713
 9472TIP3    H249908   2.000   4.416   0.698 -0.6757 -1.2353 -1.1935
 9473TIP3   OH249909   4.058   2.434  15.895  0.2611 -0.4068  0.0300
 9473TIP3    H149910   3.977   2.418  15.943  0.5287  0.0806  0.6588
 9473TIP3    H249911   4.071   2.355  15.842  1.0527 -1.8931  2.3082
 9474TIP3   OH249912   3.759   6.561  11.026 -0.2825  0.1061 -0.2823
 9474TIP3    H149913   3.761   6.523  10.938  0.1540 -0.3242 -0.0863
 9474TIP3    H249914   3.760   6.486  11.085 -1.4982  0.3571  0.0938
 9475TIP3   OH249915   1.431   0.089   3.843 -0.0768 -0.3824  0.7772
 9475TIP3    H149916   1.488   0.082   3.920  1.1962 -1.8758 -0.2347
 9475TIP3    H249917   1.373   0.013   3.849  0.4829 -0.8976 -0.0493
 9476TIP3   OH249918   5.925   2.166  15.417 -0.0349 -0.2927  0.2044
 9476TIP3    H149919   5.992   2.194  15.479  1.1271 -2.2583 -0.0843
 9476TIP3    H249920   5.902   2.078  15.444 -0.4458 -0.7079 -1.3784
 9477TIP3   OH249921   6.345   4.477  15.829 -0.1199 -0.2117  0.5123
 9477TIP3    H149922   6.417   4.422  15.860 -0.3781 -1.0254 -0.2844
 9477TIP3    H249923   6.387   4.560  15.806  0.4904 -0.5265  0.4604
 9478TIP3   OH249924   2.319   3.875   5.333 -0.1495  0.3658 -0.5549
 9478TIP3    H149925   2.335   3.797   5.387 -4.2919 -0.1529  0.2121
 9478TIP3    H249926   2.330   3.844   5.243  1.4847 -0.1804 -0.2070
 9479TIP3   OH249927   2.711   2.390   3.720 -0.0720 -0.2503 -0.6684
 9479TIP3    H149928   2.767   2.400   3.797 -0.8081 -0.1323 -0.1416
 9479TIP3    H249929   2.671   2.304   3.730  0.2468 -0.4624 -1.2012
 9480TIP3   OH249930   5.059   5.803   4.072  0.0982  0.2394 -0.0634
 9480TIP3    H149931   5.075   5.709   4.069  0.8129  0.3510  0.1401
 9480TIP3    H249932   5.085   5.835   3.986  1.2998  0.4659  0.3707
 9481TIP3   OH249933   2.103   5.844   2.296 -0.3128  0.8149 -0.2192
 9481TIP3    H149934   2.070   5.785   2.364 -0.9194  0.9175 -0.4128
 9481TIP3    H249935   2.093   5.931   2.334 -0.0885  0.8343 -0.2070
 9482TIP3   OH249936   3.197   1.544   3.728 -0.5312 -0.4963 -0.0237
 9482TIP3    H149937   3.259   1.474   3.707  1.7690  1.6516 -0.9309
 9482TIP3    H249938   3.239   1.592   3.800 -1.7567  0.2937  0.1977
 9483TIP3   OH249939   0.374   1.220   5.092  0.1873 -0.3910 -0.0302
 9483TIP3    H149940   0.443   1.281   5.068  0.3190 -0.0233  1.2073
 9483TIP3    H249941   0.397   1.191   5.180 -1.3328 -0.1132  0.4904
 9484TIP3   OH249942   4.073   4.113   2.635 -0.2528  0.4532  0.6780
 9484TIP3    H149943   4.050   4.171   2.563  0.1725 -0.4861 -0.2371
 9484TIP3    H249944   4.154   4.150   2.671  0.0391  0.4136  0.0771
 9485TIP3   OH249945   2.969   4.131  14.623 -0.6533 -0.0506  0.2939
 9485TIP3    H149946   3.022   4.191  14.677 -0.5282 -0.4845  0.6574
 9485TIP3    H249947   2.993   4.153  14.533 -2.5816  2.3232  0.2463
 9486TIP3   OH249948   3.889   2.855  11.515  0.6161  0.1757 -0.5037
 9486TIP3    H149949   3.903   2.761  11.499 -0.8479 -0.4642  1.4650
 9486TIP3    H249950   3.974   2.895  11.501  1.9716 -1.8813  1.2040
 9487TIP3   OH249951   1.749   4.412  16.105  0.5107 -0.3801  0.8118
 9487TIP3    H149952   1.833   4.370  16.123  1.0058  1.2598  2.8167
 9487TIP3    H249953   1.689   4.375  16.171  0.2877  0.1617  0.9190
 9488TIP3   OH249954   4.488   0.669   4.929 -0.7918  0.5384  0.0368
 9488TIP3    H149955   4.480   0.737   4.861  0.8298  0.5663 -0.1582
 9488TIP3    H249956   4.464   0.714   5.010 -0.5340  1.1346 -0.2068
 9489TIP3   OH249957   1.487   0.867  15.470 -0.7421  0.1226  0.8247
 9489TIP3    H149958   1.400   0.839  15.501 -1.0050 -0.1636 -0.1556
 9489TIP3    H249959   1.541   0.867  15.549 -0.9349 -2.3424  1.0258
 9490TIP3   OH249960   5.524   0.665   5.208 -0.4056  0.2099 -0.3047
 9490TIP3    H149961   5.489   0.749   5.179  0.0039  0.0725 -1.2247
 9490TIP3    H249962   5.474   0.600   5.159 -0.3568 -0.0624  0.0052
 9491TIP3   OH249963   5.308   5.147  13.286  0.3561 -0.1937 -0.3260
 9491TIP3    H149964   5.245   5.079  13.263  0.0070 -0.1839  0.5469
 9491TIP3    H249965   5.360   5.160  13.207  1.5513 -2.6591 -0.0536
 9492TIP3   OH249966   5.736   0.286  13.019  0.4220  0.2298 -0.4733
 9492TIP3    H149967   5.677   0.336  12.962  1.5383  2.2349  0.0501
 9492TIP3    H249968   5.721   0.195  12.994 -1.7431  0.7752 -1.4309
 9493TIP3   OH249969   5.454   5.820   3.674  0.2204  0.1945  0.1768
 9493TIP3    H149970   5.499   5.821   3.758  3.1712 -1.3621 -1.2122
 9493TIP3    H249971   5.486   5.898   3.628  0.0261  0.0805 -0.1615
 9494TIP3   OH249972   2.218   1.517  11.218 -0.5805 -0.3218  0.1510
 9494TIP3    H149973   2.257   1.502  11.132  0.1832  1.4495  0.1414
 9494TIP3    H249974   2.269   1.463  11.278 -0.0618 -0.3132 -0.2820
 9495TIP3   OH249975   0.544   3.542  13.784 -0.6446  0.1502  0.5990
 9495TIP3    H149976   0.500   3.602  13.844  0.2870  0.3711  1.0856
 9495TIP3    H249977   0.630   3.581  13.771 -0.9801  0.3375 -1.2515
 9496TIP3   OH249978   6.519   5.892   3.170 -0.8457  0.2094  0.2852
 9496TIP3    H149979   6.573   5.886   3.091 -0.5790 -1.6090  0.5618
 9496TIP3    H249980   6.558   5.962   3.221  0.4315 -0.1790 -0.1269
 9497TIP3   OH249981   0.018   6.568   5.220 -0.2286 -0.0309  0.8471
 9497TIP3    H149982  -0.030   6.510   5.280  0.0733 -2.1597 -0.8446
 9497TIP3    H249983   0.102   6.525   5.207 -0.4661  0.0641 -1.4590
 9498TIP3   OH249984   2.169   6.100  10.516 -0.1100  0.4795 -0.1002
 9498TIP3    H149985   2.116   6.078  10.439 -0.5791  0.2600  0.2759
 9498TIP3    H249986   2.243   6.039  10.511 -0.3561  0.1782 -0.1553
 9499TIP3   OH249987   0.827   0.857   1.817 -0.4705 -0.0190 -0.5469
 9499TIP3    H149988   0.771   0.925   1.780 -0.5384  0.4769  0.4491
 9499TIP3    H249989   0.769   0.803   1.870  0.0007  0.5768  0.6030
 9500TIP3   OH249990   3.762   0.066  11.250  0.4079 -0.3954 -0.5544
 9500TIP3    H149991   3.854   0.053  11.274 -0.2142 -2.1385  1.1197
 9500TIP3    H249992   3.715   0.063  11.333 -1.1934  0.4060 -1.3912
 9501TIP3   OH249993   4.636   3.851  14.996 -0.0336  0.3787 -0.2893
 9501TIP3    H149994   4.702   3.863  14.929 -0.9849 -0.0719 -1.3335
 9501TIP3    H249995   4.553   3.853  14.949 -0.8374  1.6989  1.0800
 9502TIP3   OH249996   2.164   0.612   4.693  0.0791  0.0543  0.3140
 9502TIP3    H149997   2.170   0.676   4.621 -1.6403 -0.2310 -0.1331
 9502TIP3    H249998   2.127   0.534   4.652 -1.8216  0.1788  1.6345
 9503TIP3   OH249999   1.810   3.698  15.440 -0.3772  1.3380 -0.0867
 9503TIP3    H150000   1.894   3.741  15.421 -0.3566  0.7183 -1.4917
 9503TIP3    H250001   1.831   3.605  15.441 -0.7383  1.2542  1.2821
 9504TIP3   OH250002   5.020   1.652   4.428 -0.0563 -0.3515 -0.0426
 9504TIP3    H150003   5.072   1.593   4.374  1.2949 -0.2258  1.0499
 9504TIP3    H250004   5.020   1.612   4.515  0.2636  0.8481  0.5396
 9505TIP3   OH250005   5.137   0.470   0.709  0.1892 -0.4744 -0.1479
 9505TIP3    H150006   5.074   0.492   0.640 -0.8067  0.6045  1.0516
 9505TIP3    H250007   5.222   0.484   0.668 -0.3753  0.0479 -1.1918
 9506TIP3   OH250008   2.323   3.899  13.359  0.1167 -0.4027  0.7336
 9506TIP3    H150009   2.262   3.955  13.311  0.2956 -0.9901 -0.2092
 9506TIP3    H250010   2.401   3.895  13.303  1.0109  0.2604  1.8737
 9507TIP3   OH250011   1.285   2.831  12.068 -0.4986  0.0636  0.3051
 9507TIP3    H150012   1.272   2.785  11.985 -0.1484  2.0291 -0.9159
 9507TIP3    H250013   1.233   2.782  12.132 -0.7767 -1.5041 -1.0762
 9508TIP3   OH250014   2.848   1.686  12.633  0.7672  0.4873  0.3207
 9508TIP3    H150015   2.921   1.624  12.636 -0.0568 -0.4830  2.3482
 9508TIP3    H250016   2.845   1.725  12.720  0.2277  2.1847 -0.4198
 9509TIP3   OH250017   0.664   5.163   1.768 -0.7755  0.0403 -0.3007
 9509TIP3    H150018   0.600   5.180   1.837  1.2994  0.9165  1.5418
 9509TIP3    H250019   0.713   5.245   1.760 -0.5359 -0.2428 -2.4198
 9510TIP3   OH250020   1.739   4.596   6.048  0.1616 -0.3803  0.2135
 9510TIP3    H150021   1.746   4.684   6.085 -0.4524 -0.0970 -0.3220
 9510TIP3    H250022   1.679   4.551   6.106  0.3301 -0.3899  0.3821
 9511TIP3   OH250023   5.518   5.284   6.128  0.0764 -0.1146  0.5602
 9511TIP3    H150024   5.513   5.190   6.143  0.8059 -0.3743 -0.6815
 9511TIP3    H250025   5.533   5.322   6.214  0.0647 -1.1535  1.0290
 9512TIP3   OH250026   0.790   4.015  14.449 -0.5821  0.4763 -0.3748
 9512TIP3    H150027   0.786   3.938  14.506  1.6202 -0.1879 -1.0327
 9512TIP3    H250028   0.751   4.085  14.501 -1.1218 -0.7016  0.8805
 9513TIP3   OH250029   2.962   4.597  13.426 -0.1200 -0.0660  0.4443
 9513TIP3    H150030   3.020   4.550  13.365  0.2665 -2.0844  2.2449
 9513TIP3    H250031   3.017   4.666  13.463 -0.2583  0.9558 -1.1449
 9514TIP3   OH250032   6.561   6.402   4.364  0.0871 -0.1427  0.7807
 9514TIP3    H150033   6.501   6.402   4.439 -2.0136  2.7177 -0.7000
 9514TIP3    H250034   6.620   6.476   4.380  0.5216 -0.3695  0.2593
 9515TIP3   OH250035   5.505   0.805   2.106 -0.0464  0.3478  0.0052
 9515TIP3    H150036   5.555   0.886   2.097  0.2161  0.2482  0.5059
 9515TIP3    H250037   5.436   0.826   2.169 -1.8578  1.0400 -2.0811
 9516TIP3   OH250038   3.323   5.617  15.451  0.2167  0.2761  0.2393
 9516TIP3    H150039   3.415   5.630  15.475 -0.3923  1.4757  2.1671
 9516TIP3    H250040   3.286   5.570  15.526 -0.8367  0.1923 -0.3284
 9517TIP3   OH250041   0.156   1.859   5.416  0.1113  0.3776  0.3103
 9517TIP3    H150042   0.240   1.871   5.374  0.3842  2.6111  1.3693
 9517TIP3    H250043   0.092   1.897   5.356  0.0999  0.4509  0.3679
 9518TIP3   OH250044   1.820   5.546   2.418 -0.1656  0.3059 -0.1522
 9518TIP3    H150045   1.823   5.633   2.456 -2.5825  1.0719 -1.5192
 9518TIP3    H250046   1.871   5.552   2.337 -0.3531  0.4581 -0.2584
 9519TIP3   OH250047   5.931   2.365   0.701  0.0981 -0.0916 -0.2329
 9519TIP3    H150048   5.898   2.357   0.791 -1.6244 -0.2374 -0.8493
 9519TIP3    H250049   5.959   2.456   0.695 -1.5472  0.4590 -0.0848
 9520TIP3   OH250050   3.126   0.479   0.594  0.5540  0.1650 -0.2130
 9520TIP3    H150051   3.199   0.533   0.625  0.2999  2.0551 -2.6478
 9520TIP3    H250052   3.054   0.540   0.581 -0.2668 -1.0219 -1.5487
 9521TIP3   OH250053   3.431   2.016  13.824 -0.1724  0.4832  0.4163
 9521TIP3    H150054   3.488   2.001  13.899  2.1241  1.4228 -1.0537
 9521TIP3    H250055   3.441   2.109  13.804  0.8998 -0.1021 -2.2412
 9522TIP3   OH250056   2.608   5.063  13.380  0.0472  0.2503 -0.6794
 9522TIP3    H150057   2.668   5.102  13.444 -0.1914 -0.7652  0.1856
 9522TIP3    H250058   2.638   5.098  13.295  0.8243  1.0413 -0.1024
 9523TIP3   OH250059   2.731   5.788  12.542 -0.0596  0.3561 -0.3185
 9523TIP3    H150060   2.636   5.797  12.547 -0.0792  0.1065 -0.2327
 9523TIP3    H250061   2.745   5.706  12.494  0.1055 -0.0708  0.4347
 9524TIP3   OH250062   5.712   1.420  14.359 -0.5225  0.2665 -0.4008
 9524TIP3    H150063   5.676   1.344  14.312 -0.1260 -0.2239  0.0886
 9524TIP3    H250064   5.640   1.450  14.415 -0.3630 -0.3401  0.1254
 9525TIP3   OH250065   5.157   5.130  12.959  0.3757  0.4519  0.2006
 9525TIP3    H150066   5.085   5.074  12.986 -0.0482  0.7776 -0.2403
 9525TIP3    H250067   5.141   5.146  12.866  0.9167  0.6765  0.1426
 9526TIP3   OH250068   1.160   0.318  15.335  0.5986 -0.8125 -0.0831
 9526TIP3    H150069   1.228   0.265  15.293  0.2133 -1.4582  0.0915
 9526TIP3    H250070   1.087   0.257  15.347 -0.0104 -0.1279 -0.2732
 9527TIP3   OH250071   3.432   2.455   0.809  0.3778 -0.5525  0.4352
 9527TIP3    H150072   3.437   2.488   0.719  0.2568  0.9594  0.9694
 9527TIP3    H250073   3.394   2.368   0.800 -0.4343 -0.0855 -0.9029
 9528TIP3   OH250074   2.047   3.467   3.374  0.0291 -0.3290 -0.3002
 9528TIP3    H150075   1.970   3.471   3.432 -0.1516  0.0562 -0.5677
 9528TIP3    H250076   2.120   3.488   3.432 -0.1872  0.3935 -0.2747
 9529TIP3   OH250077   3.644   2.677   4.469 -0.6644  0.1281 -0.2512
 9529TIP3    H150078   3.606   2.712   4.550 -1.6264  0.7372 -0.9320
 9529TIP3    H250079   3.568   2.661   4.412  0.0676  1.3948 -1.6723
 9530TIP3   OH250080   2.981   6.371   4.223  0.0031 -0.5606  0.4377
 9530TIP3    H150081   2.893   6.408   4.229  0.1648  0.1279 -1.1324
 9530TIP3    H250082   3.029   6.410   4.297 -0.8867 -0.6528  1.0786
 9531TIP3   OH250083   2.585   5.446  12.392  0.1969  0.4859  0.5456
 9531TIP3    H150084   2.529   5.482  12.462 -0.2985 -0.3338  0.5891
 9531TIP3    H250085   2.674   5.467  12.420 -0.0940  2.2527  0.2277
 9532TIP3   OH250086   5.988   3.563  13.465 -0.7102 -0.0223 -0.1780
 9532TIP3    H150087   5.968   3.506  13.391 -0.4869 -0.5254  0.1487
 9532TIP3    H250088   5.993   3.651  13.426 -2.7213  0.0237 -0.4053
 9533TIP3   OH250089   1.670   0.794  10.764  0.9483  0.0787 -0.4756
 9533TIP3    H150090   1.656   0.748  10.681  0.9908  0.6544 -0.8027
 9533TIP3    H250091   1.682   0.724  10.828 -0.2101 -0.3991 -0.7463
 9534TIP3   OH250092   3.086   4.058  16.602  0.1659 -1.0629 -0.4002
 9534TIP3    H150093   3.130   3.977  16.628  0.0038 -1.1959 -0.5438
 9534TIP3    H250094   3.021   4.073  16.671  0.4006 -0.8916 -0.2118
 9535TIP3   OH250095   2.948   2.256  10.812  0.0834  0.0927  0.0694
 9535TIP3    H150096   2.968   2.347  10.790  0.1339 -0.0365 -0.4132
 9535TIP3    H250097   3.023   2.227  10.864  0.5848 -0.0176 -0.7114
 9536TIP3   OH250098   0.876   1.875   1.095 -0.3043 -0.6098  0.3053
 9536TIP3    H150099   0.892   1.943   1.030  0.4145 -0.9679  0.0985
 9536TIP3    H250100   0.959   1.867   1.142 -0.5137 -1.0506  0.6072
 9537TIP3   OH250101   1.650   2.746   0.581  0.4287 -0.2375  0.3468
 9537TIP3    H150102   1.670   2.824   0.530  0.1233 -1.2630 -1.4225
 9537TIP3    H250103   1.615   2.779   0.664 -1.2765  1.5057 -0.9898
 9538TIP3   OH250104   1.312   3.383   0.896  0.2623 -0.7025  0.3227
 9538TIP3    H150105   1.344   3.472   0.907 -0.4141 -0.3668 -0.3258
 9538TIP3    H250106   1.218   3.393   0.882  0.5292 -1.2656 -2.4704
 9539TIP3   OH250107   4.828   3.988   1.609  0.3507  0.1789 -0.1210
 9539TIP3    H150108   4.820   4.063   1.667  1.4189 -0.9097  1.5211
 9539TIP3    H250109   4.914   3.951   1.629 -0.5954 -2.1468 -0.0184
 9540TIP3   OH250110   4.721   6.279  12.860 -0.6734  0.2083 -0.2956
 9540TIP3    H150111   4.655   6.327  12.910  1.3075  1.5730  1.1948
 9540TIP3    H250112   4.800   6.333  12.868  0.9062 -1.8809 -1.0398
 9541TIP3   OH250113   3.119   5.789  11.017  0.2679  0.1326 -0.3782
 9541TIP3    H150114   3.147   5.698  11.018 -0.2648 -0.0331  0.7602
 9541TIP3    H250115   3.201   5.839  11.010  0.4344 -0.4272 -4.0573
 9542TIP3   OH250116   6.527   1.613  12.711 -0.0851  0.5141 -0.2200
 9542TIP3    H150117   6.519   1.565  12.629 -0.9955  1.4793 -0.7020
 9542TIP3    H250118   6.590   1.561  12.762  1.1373  0.3508 -1.8226
 9543TIP3   OH250119   6.706   0.334   0.371 -0.2086 -0.0022 -0.0644
 9543TIP3    H150120   6.770   0.327   0.441 -0.3982  0.6525  0.1750
 9543TIP3    H250121   6.640   0.395   0.404 -0.1851  0.4829 -0.8919
 9544TIP3   OH250122   4.950   4.436   3.537 -0.5225  0.7541 -0.6561
 9544TIP3    H150123   4.893   4.360   3.523 -0.0277  0.5673 -1.7214
 9544TIP3    H250124   4.931   4.494   3.463  0.3503  0.8965 -0.7686
 9545TIP3   OH250125   2.128   4.600  12.910  0.2441  0.8353  0.6059
 9545TIP3    H150126   2.041   4.580  12.944  0.1687  1.4561  0.8055
 9545TIP3    H250127   2.163   4.516  12.881 -0.9563  0.7682 -0.7726
 9546TIP3   OH250128   3.666   5.748   6.031 -0.1463 -0.3735 -0.0830
 9546TIP3    H150129   3.710   5.800   6.098 -1.4212  1.0978 -0.3299
 9546TIP3    H250130   3.632   5.672   6.078  0.3991 -0.2070  0.6015
 9547TIP3   OH250131   1.175   4.797   0.223  0.1358  0.4415  0.3371
 9547TIP3    H150132   1.150   4.871   0.169 -0.0493  1.4243  1.7260
 9547TIP3    H250133   1.271   4.797   0.220  0.2147 -1.8890 -3.0541
 9548TIP3   OH250134   4.572   2.587   4.810  0.2557 -0.1573 -0.6753
 9548TIP3    H150135   4.580   2.677   4.780 -0.4499  0.5508  1.2001
 9548TIP3    H250136   4.479   2.575   4.826  0.4693 -0.9061  0.0469
 9549TIP3   OH250137   2.591   4.794  15.405 -0.4829  0.6186 -0.0802
 9549TIP3    H150138   2.618   4.743  15.481  1.1985  2.7086  0.8171
 9549TIP3    H250139   2.532   4.861  15.440 -1.6129  0.1470 -1.0237
 9550TIP3   OH250140   6.658   0.338   2.188 -0.2435  0.3770 -0.3722
 9550TIP3    H150141   6.585   0.377   2.236 -0.1230 -0.7715  0.7618
 9550TIP3    H250142   6.622   0.322   2.100 -1.0421  0.7535 -0.1258
 9551TIP3   OH250143   0.877   2.988  11.229  0.2955  0.3368 -0.7348
 9551TIP3    H150144   0.830   2.905  11.238 -0.1508  0.5327 -1.1720
 9551TIP3    H250145   0.964   2.971  11.265 -0.0149 -0.1211 -0.1904
 9552TIP3   OH250146   0.899   1.130   2.217  0.0155  0.0615 -0.4872
 9552TIP3    H150147   0.938   1.198   2.162 -0.8926 -1.2342 -2.8688
 9552TIP3    H250148   0.937   1.145   2.304  0.6631  2.9016 -1.1549
 9553TIP3   OH250149   0.534   5.354  11.074  0.4198 -0.2849  0.2912
 9553TIP3    H150150   0.562   5.272  11.034  0.1965  0.7473 -2.1377
 9553TIP3    H250151   0.606   5.415  11.058 -0.5416  0.7033 -0.4218
 9554TIP3   OH250152   0.829   1.501  16.570 -0.0369  0.1165 -0.0930
 9554TIP3    H150153   0.790   1.441  16.506  1.9212 -1.4770  0.1081
 9554TIP3    H250154   0.811   1.460  16.654  0.6203  0.2338  0.1098
 9555TIP3   OH250155   6.689   6.263  11.355 -0.3109  0.2049  0.6936
 9555TIP3    H150156   6.784   6.273  11.352 -0.3073 -0.0509 -1.2639
 9555TIP3    H250157   6.656   6.348  11.384  0.4393  0.9858 -0.6719
 9556TIP3   OH250158   0.982   6.016   5.723  0.6695 -0.0196 -0.2957
 9556TIP3    H150159   0.963   6.084   5.787  0.8778 -0.1964 -0.0407
 9556TIP3    H250160   0.952   6.051   5.640 -1.2474 -0.4674  0.1456
 9557TIP3   OH250161   4.583   1.675  14.022 -0.5938 -0.1021  0.1985
 9557TIP3    H150162   4.562   1.594  13.975 -0.2962  0.2116 -0.5001
 9557TIP3    H250163   4.643   1.648  14.091 -0.9976 -0.5697  0.3716
 9558TIP3   OH250164   6.450   3.225   3.374  0.3853  0.3014  0.5873
 9558TIP3    H150165   6.385   3.180   3.320 -1.4036  0.3629  2.5612
 9558TIP3    H250166   6.469   3.305   3.325  0.0465 -0.3706 -0.6994
 9559TIP3   OH250167   1.935   1.099   4.841  0.4180 -0.6005  0.2087
 9559TIP3    H150168   1.933   1.191   4.867  0.7689 -0.3975 -0.4672
 9559TIP3    H250169   1.879   1.055   4.905 -0.1627  0.1617  0.2463
 9560TIP3   OH250170   2.547   3.902   2.522  0.7479 -0.2152  0.2486
 9560TIP3    H150171   2.615   3.964   2.550 -1.7982  2.6106  0.7652
 9560TIP3    H250172   2.514   3.865   2.603  0.1858  0.1877  0.2134
 9561TIP3   OH250173   0.351   1.442   1.836  0.2373  0.1097  0.0587
 9561TIP3    H150174   0.272   1.412   1.880 -0.7343 -0.0986 -1.7417
 9561TIP3    H250175   0.337   1.536   1.823  0.3748  0.1079 -0.1051
 9562TIP3   OH250176   2.351   1.065   3.335  0.0501  0.1534  1.0436
 9562TIP3    H150177   2.415   1.135   3.332 -1.0759  1.2151  0.6848
 9562TIP3    H250178   2.400   0.986   3.313  1.1092  1.0163  0.1927
 9563TIP3   OH250179   0.649   5.408   2.265 -0.1541 -0.3652  0.6196
 9563TIP3    H150180   0.642   5.401   2.361  1.4656 -0.3349  0.7688
 9563TIP3    H250181   0.597   5.334   2.232 -2.6212  0.9178  1.4036
 9564TIP3   OH250182   6.409   0.472  10.371  0.2423 -0.3252 -0.0892
 9564TIP3    H150183   6.376   0.474  10.461  1.1139  0.6451  0.2276
 9564TIP3    H250184   6.488   0.418  10.376  0.5624  0.1330 -0.1693
 9565TIP3   OH250185   2.737   4.672   0.196  0.8046 -0.4274 -0.0230
 9565TIP3    H150186   2.687   4.713   0.267  0.9804  0.7113 -0.5277
 9565TIP3    H250187   2.828   4.694   0.217  0.8794 -0.3365 -0.4439
 9566TIP3   OH250188   3.501   4.260   5.260 -0.2215  0.2874 -0.3414
 9566TIP3    H150189   3.506   4.301   5.347 -2.4116  0.0242 -0.0354
 9566TIP3    H250190   3.443   4.317   5.210 -1.5140 -1.2234 -0.6208
 9567TIP3   OH250191   3.094   3.805   1.788 -0.2959  0.0617  0.1355
 9567TIP3    H150192   3.129   3.765   1.709  1.8087 -1.1776  1.5932
 9567TIP3    H250193   3.033   3.741   1.823  0.2865 -0.2771  0.5426
 9568TIP3   OH250194   5.953   4.175  12.588  0.1977 -0.0658 -0.0231
 9568TIP3    H150195   5.947   4.271  12.586  2.3049  0.0942 -0.1985
 9568TIP3    H250196   5.950   4.149  12.496 -0.9086 -0.2515  0.0414
 9569TIP3   OH250197   4.527   1.537  12.148  0.2189 -0.0560  1.2397
 9569TIP3    H150198   4.555   1.490  12.070  1.1333 -0.7846  1.9841
 9569TIP3    H250199   4.488   1.470  12.204  1.6496  0.0053  2.3622
 9570TIP3   OH250200   3.736   0.205   0.690  0.0329  0.1943 -0.0588
 9570TIP3    H150201   3.643   0.196   0.710 -0.1170  1.0135 -0.3211
 9570TIP3    H250202   3.738   0.236   0.599  0.6516 -2.1878 -0.9216
 9571TIP3   OH250203   1.691   0.144   3.041  0.3677 -0.0472  0.0931
 9571TIP3    H150204   1.633   0.071   3.061  0.4030 -0.2060 -0.3882
 9571TIP3    H250205   1.638   0.222   3.056 -0.2853 -0.2024 -1.3001
 9572TIP3   OH250206   5.951   6.193  15.287 -0.2587 -0.0337  0.2840
 9572TIP3    H150207   5.903   6.186  15.369  0.6850  0.2891  0.8813
 9572TIP3    H250208   6.041   6.168  15.309 -0.2328 -1.0993 -0.9076
 9573TIP3   OH250209   3.373   4.877  13.868 -0.4159 -0.1041  0.8630
 9573TIP3    H150210   3.442   4.864  13.803  0.4158 -0.4832  1.7975
 9573TIP3    H250211   3.420   4.898  13.948 -1.4627  1.2228  1.1582
 9574TIP3   OH250212   0.501   0.104   0.581  0.0581  0.1632  0.3571
 9574TIP3    H150213   0.597   0.104   0.579  0.0655  1.4482  0.1113
 9574TIP3    H250214   0.475   0.174   0.521 -1.0189  0.2640  0.9112
 9575TIP3   OH250215   1.362   2.536   1.895 -0.4838 -0.0038 -0.3117
 9575TIP3    H150216   1.380   2.479   1.819  1.1744 -2.1100  1.5160
 9575TIP3    H250217   1.278   2.576   1.875 -0.1789 -0.5781 -3.1962
 9576TIP3   OH250218   4.368   6.660  15.541 -0.0113 -0.4373  0.1065
 9576TIP3    H150219   4.285   6.683  15.499  0.0372  1.0582  0.7829
 9576TIP3    H250220   4.396   6.740  15.586  1.8133 -0.8876 -0.1226
 9577TIP3   OH250221   6.189   2.189  16.315 -0.5526 -0.4644 -0.0503
 9577TIP3    H150222   6.147   2.269  16.282 -0.6308 -0.9053 -1.0444
 9577TIP3    H250223   6.231   2.217  16.397 -1.9728  0.2042  0.4905
 9578TIP3   OH250224   1.617   0.809  15.720 -0.6161  0.6749 -0.2501
 9578TIP3    H150225   1.705   0.783  15.747 -0.8569 -0.7032 -0.7441
 9578TIP3    H250226   1.559   0.762  15.779 -1.0401  2.1715  0.5776
 9579TIP3   OH250227   3.418   2.090   3.959  0.4959 -0.1062 -0.2340
 9579TIP3    H150228   3.431   2.092   4.053  1.9962  1.4322 -0.4312
 9579TIP3    H250229   3.494   2.042   3.925  0.1947 -0.2722 -0.6841
 9580TIP3   OH250230   4.051   1.987  11.537  0.3509  0.1553  0.2965
 9580TIP3    H150231   4.012   2.073  11.558  0.7968  0.0480  1.6435
 9580TIP3    H250232   4.087   1.956  11.620 -0.6886 -1.8094  0.0687
 9581TIP3   OH250233   0.461   2.231  12.700  0.0618 -0.3928 -0.2371
 9581TIP3    H150234   0.416   2.177  12.635  0.0104 -0.8175  0.1468
 9581TIP3    H250235   0.406   2.226  12.779  0.1230  0.1163 -0.1530
 9582TIP3   OH250236   2.816   0.775  11.851  0.2216 -0.2712 -0.2542
 9582TIP3    H150237   2.725   0.784  11.820  0.9023 -0.6839 -2.5152
 9582TIP3    H250238   2.840   0.864  11.879 -0.4385  0.1445 -0.9509
 9583TIP3   OH250239   1.813   3.981  15.270 -0.1628 -0.4096 -0.2489
 9583TIP3    H150240   1.760   4.059  15.252  0.2194 -0.8073 -3.6222
 9583TIP3    H250241   1.754   3.924  15.320 -1.0169  1.3019  0.8046
 9584TIP3   OH250242   2.247   5.939   3.877 -0.4000 -0.0842  0.2343
 9584TIP3    H150243   2.276   5.855   3.842  1.8946  1.2497 -1.3396
 9584TIP3    H250244   2.230   5.993   3.799  0.5435  1.6326  1.1672
 9585TIP3   OH250245   4.372   3.263  13.054 -0.0721 -0.0143 -0.2460
 9585TIP3    H150246   4.328   3.314  13.121 -1.2505 -0.9526 -0.2635
 9585TIP3    H250247   4.303   3.206  13.018  1.0482 -1.1836 -0.6208
 9586TIP3   OH250248   4.633   4.821   5.521  0.7883 -0.6009 -0.1909
 9586TIP3    H150249   4.683   4.839   5.601 -2.3600  1.4054  1.5277
 9586TIP3    H250250   4.590   4.738   5.538 -0.8973  0.4275  0.8931
 9587TIP3   OH250251   5.284   6.816  11.854 -0.4747  0.7599 -0.4033
 9587TIP3    H150252   5.243   6.903  11.848  0.3141  1.1249 -0.5244
 9587TIP3    H250253   5.377   6.832  11.844 -0.3640 -0.1652 -0.9551
 9588TIP3   OH250254   2.935   4.181   3.207  0.4746 -0.0628 -0.0461
 9588TIP3    H150255   2.907   4.194   3.298 -0.3543  1.4145 -0.4757
 9588TIP3    H250256   2.863   4.216   3.155  1.4888  0.2862 -1.2648
 9589TIP3   OH250257   1.801   4.783  10.392  0.6363  1.0046 -0.7398
 9589TIP3    H150258   1.820   4.813  10.480 -0.6162  0.9072 -0.4208
 9589TIP3    H250259   1.742   4.849  10.356  0.7078  0.7697 -1.3072
 9590TIP3   OH250260   4.921   1.738   2.912  0.1356 -0.6036  0.3666
 9590TIP3    H150261   4.964   1.694   2.838 -1.1524 -0.3328 -0.5925
 9590TIP3    H250262   4.986   1.739   2.981  1.7308 -0.0088 -1.0776
 9591TIP3   OH250263   2.181   2.427  12.838 -0.1720 -0.3343 -0.0654
 9591TIP3    H150264   2.125   2.402  12.763 -0.0897 -0.8309  0.0338
 9591TIP3    H250265   2.130   2.494  12.884 -1.0520 -1.3407  0.4713
 9592TIP3   OH250266   1.932   5.292   1.338 -0.0290  0.1881 -0.5513
 9592TIP3    H150267   1.977   5.329   1.414 -0.7455  2.3578 -1.1371
 9592TIP3    H250268   1.982   5.212   1.319  0.4009 -0.2329  1.9268
 9593TIP3   OH250269   3.640   2.122  11.940  0.4201 -0.4877 -0.2077
 9593TIP3    H150270   3.627   2.091  12.029  2.8825  1.0721  0.7889
 9593TIP3    H250271   3.671   2.045  11.892 -0.8512 -1.3141  0.2423
 9594TIP3   OH250272   2.759   5.917  11.428  0.3221 -0.9607 -0.6549
 9594TIP3    H150273   2.807   5.926  11.510 -0.0141 -0.6580 -0.4898
 9594TIP3    H250274   2.828   5.913  11.361  0.5831  0.2690 -0.4978
 9595TIP3   OH250275   4.785   6.798  16.006 -0.2143 -0.2062  0.1566
 9595TIP3    H150276   4.711   6.736  16.008 -1.0114  0.7356  0.6507
 9595TIP3    H250277   4.791   6.831  16.096 -0.1667  0.8474 -0.2232
 9596TIP3   OH250278   3.186   5.567   6.000 -0.1712 -0.1420 -0.2237
 9596TIP3    H150279   3.108   5.617   6.025  0.2876  1.3614 -1.6324
 9596TIP3    H250280   3.219   5.610   5.921  1.4410 -1.4501 -0.3394
 9597TIP3   OH250281   2.261   5.210   5.064 -0.5803  0.2091  0.0199
 9597TIP3    H150282   2.310   5.173   4.990 -1.0976 -2.4262  0.8921
 9597TIP3    H250283   2.178   5.162   5.064 -0.2851 -0.4279  2.7115
 9598TIP3   OH250284   3.489   0.401  13.850 -0.0267 -0.5302 -0.0589
 9598TIP3    H150285   3.417   0.419  13.790  0.0047 -2.0845 -0.6092
 9598TIP3    H250286   3.446   0.381  13.933 -0.3779 -2.7812 -0.7111
 9599TIP3   OH250287   2.168   5.273  15.619 -0.5279  0.1543 -0.8712
 9599TIP3    H150288   2.195   5.283  15.710  0.6112  0.9209 -1.2653
 9599TIP3    H250289   2.075   5.297  15.618 -0.7082 -0.4437  0.1691
 9600TIP3   OH250290   1.076   2.977   3.836  0.2607  0.2468  0.5701
 9600TIP3    H150291   1.134   2.951   3.908 -0.2170  0.9218  1.2166
 9600TIP3    H250292   1.004   2.915   3.840  0.7455 -0.3606  0.0050
 9601TIP3   OH250293   4.800   6.473   1.141 -0.3287 -0.4109  0.1137
 9601TIP3    H150294   4.887   6.490   1.105 -0.2796  0.1025  0.4616
 9601TIP3    H250295   4.816   6.412   1.214 -0.2075 -0.0031  0.4330
 9602TIP3   OH250296   1.328   2.709  10.415 -0.0881  0.0449  0.0475
 9602TIP3    H150297   1.418   2.681  10.395  1.0931  1.3730  2.9364
 9602TIP3    H250298   1.315   2.683  10.506 -1.6974  2.0380  0.4482
 9603TIP3   OH250299   0.869   3.953   5.742 -0.1057  0.8209 -0.5260
 9603TIP3    H150300   0.888   3.880   5.800  0.4683 -0.0234 -1.7254
 9603TIP3    H250301   0.870   4.030   5.798 -0.1316 -0.0243  0.6597
 9604TIP3   OH250302   1.551   4.696  14.888  0.0596  0.1227  1.1676
 9604TIP3    H150303   1.554   4.775  14.942  0.7855  0.7472  0.2384
 9604TIP3    H250304   1.642   4.678  14.866 -0.3327  1.3701 -1.9014
 9605TIP3   OH250305   6.596   2.844  11.477  0.2963 -0.1280  0.2745
 9605TIP3    H150306   6.636   2.930  11.464  2.0733 -0.7454  1.2487
 9605TIP3    H250307   6.657   2.782  11.436 -1.5733 -0.8775 -1.5306
 9606TIP3   OH250308   2.069   5.615  13.321 -0.2302  0.6988  0.8362
 9606TIP3    H150309   2.018   5.693  13.298 -0.3977  0.2882 -0.2402
 9606TIP3    H250310   2.086   5.572  13.237  2.9032  1.4207  0.9754
 9607TIP3   OH250311   5.077   5.734   0.534  0.1247  0.3268  0.0315
 9607TIP3    H150312   5.166   5.769   0.522 -0.1069  0.6631 -0.7981
 9607TIP3    H250313   5.075   5.656   0.478 -0.3493  0.7759 -0.5893
 9608TIP3   OH250314   3.655   0.574  13.724  0.2560 -0.0824 -0.0872
 9608TIP3    H150315   3.730   0.567  13.782 -0.5982 -0.2481  1.0224
 9608TIP3    H250316   3.590   0.514  13.761  0.6632 -2.4037 -2.7808
 9609TIP3   OH250317   5.232   5.341  14.867  0.0413  0.1011  0.2858
 9609TIP3    H150318   5.243   5.246  14.868  0.1734  0.1190  1.4813
 9609TIP3    H250319   5.167   5.358  14.935  1.7491  1.0620  1.7542
 9610TIP3   OH250320   4.144   0.808  14.150  0.0423 -0.0713 -0.1574
 9610TIP3    H150321   4.119   0.830  14.060  2.4885 -0.7282 -1.0731
 9610TIP3    H250322   4.188   0.886  14.182 -0.3471 -0.0344  0.2947
 9611TIP3   OH250323   6.814   2.562  11.769 -0.3606 -0.8851 -0.7623
 9611TIP3    H150324   6.829   2.468  11.780  1.4617 -0.8542 -2.3807
 9611TIP3    H250325   6.808   2.574  11.674 -1.5724  0.5289 -0.5354
 9612TIP3   OH250326   6.618   3.592   4.082  0.4596  0.6470 -0.4980
 9612TIP3    H150327   6.647   3.573   4.172 -0.1126  4.3073  0.6345
 9612TIP3    H250328   6.687   3.649   4.047 -0.5155  1.2629 -1.4610
 9613TIP3   OH250329   6.690   0.471   3.626 -0.1058  0.2822 -0.4544
 9613TIP3    H150330   6.637   0.392   3.618 -0.9209  0.8161 -0.4611
 9613TIP3    H250331   6.778   0.439   3.648 -0.4795 -0.6048 -0.2099
 9614TIP3   OH250332   4.740   0.304   0.684  0.4371 -0.4204  0.5749
 9614TIP3    H150333   4.659   0.252   0.685 -0.1825  0.5176  0.8593
 9614TIP3    H250334   4.729   0.365   0.757  0.5909  0.9222 -0.4991
 9615TIP3   OH250335   6.562   5.115  10.434 -0.0021 -0.0214  0.4094
 9615TIP3    H150336   6.553   5.164  10.352 -0.3906 -1.0252 -0.1646
 9615TIP3    H250337   6.539   5.178  10.502  1.4211  1.1468 -0.1493
 9616TIP3   OH250338   6.708   2.078   2.568 -0.1158  1.0837 -0.0663
 9616TIP3    H150339   6.629   2.031   2.593 -0.0394 -0.2921 -2.1274
 9616TIP3    H250340   6.769   2.009   2.539  2.3034  1.9820  2.4443
 9617TIP3   OH250341   0.477   4.063   5.801  0.4659  0.0046 -0.0596
 9617TIP3    H150342   0.498   4.064   5.708  0.2525 -0.8353 -0.1298
 9617TIP3    H250343   0.513   3.981   5.833  1.1529  0.6096  0.7608
 9618TIP3   OH250344   5.643   2.498   2.678  0.2705  0.0748  0.0040
 9618TIP3    H150345   5.625   2.584   2.716  0.6873  0.5833 -0.9159
 9618TIP3    H250346   5.600   2.436   2.737 -1.5980  1.0214 -0.3183
 9619TIP3   OH250347   1.145   6.204   0.581  0.3224 -0.8036 -0.0336
 9619TIP3    H150348   1.155   6.136   0.646  1.7295  0.5836  1.2882
 9619TIP3    H250349   1.054   6.199   0.553  0.0623 -2.2998  1.0401
 9620TIP3   OH250350   1.625   3.363  10.763  0.1028 -0.0012 -0.1203
 9620TIP3    H150351   1.659   3.293  10.817 -0.0951  0.2072  0.2737
 9620TIP3    H250352   1.551   3.324  10.716  1.0650 -0.5533 -1.2321
 9621TIP3   OH250353   3.928   1.134  16.888 -0.2956 -0.0643 -0.4887
 9621TIP3    H150354   3.940   1.039  16.882 -1.7038 -0.2362 -0.9314
 9621TIP3    H250355   3.875   1.146  16.966  1.8000  0.5884  0.9146
 9622TIP3   OH250356   1.793   6.191  14.899 -0.0950  0.1499 -0.2845
 9622TIP3    H150357   1.762   6.123  14.958  0.1969  0.8395  0.6887
 9622TIP3    H250358   1.773   6.158  14.811 -1.0154 -0.6559  0.2130
 9623TIP3   OH250359   6.253   0.348   0.876  0.5981  0.2303  0.1808
 9623TIP3    H150360   6.270   0.254   0.882 -2.7011 -0.4021  1.8102
 9623TIP3    H250361   6.336   0.388   0.901  2.4260 -2.1502 -1.5497
 9624TIP3   OH250362   2.932   1.957   1.235  1.0012  0.9497 -0.0184
 9624TIP3    H150363   2.878   1.965   1.156  0.1773  0.2074  0.4445
 9624TIP3    H250364   2.881   1.900   1.293  2.5684 -0.2950  0.2061
 9625TIP3   OH250365   0.770   6.247  13.897 -0.0071 -0.1932 -0.1853
 9625TIP3    H150366   0.860   6.276  13.909  0.2547 -0.0103 -2.2876
 9625TIP3    H250367   0.717   6.319  13.931  0.5855 -0.6589  1.8561
 9626TIP3   OH250368   1.660   0.895  15.262  0.6585 -0.2112 -0.4203
 9626TIP3    H150369   1.594   0.883  15.329  0.7529 -2.1493 -0.6284
 9626TIP3    H250370   1.688   0.986  15.272 -1.4044  0.3971  0.2162
 9627TIP3   OH250371   0.670   6.045   6.073  0.3742  0.1682  0.3498
 9627TIP3    H150372   0.679   6.118   6.134  0.2982 -0.0918  0.6722
 9627TIP3    H250373   0.700   6.081   5.989  0.7954  0.4280  0.6056
 9628TIP3   OH250374   0.885   2.112   4.658 -0.0679  0.0679 -0.1895
 9628TIP3    H150375   0.923   2.034   4.698  2.2102  0.8897 -0.6441
 9628TIP3    H250376   0.851   2.082   4.574 -1.5634 -0.9021  0.6971
 9629TIP3   OH250377   4.606   3.345  14.523  0.4133  0.0871 -0.0746
 9629TIP3    H150378   4.655   3.381  14.597 -1.0670  1.7931  0.1377
 9629TIP3    H250379   4.660   3.365  14.446  1.8685 -1.5281  0.4759
 9630TIP3   OH250380   5.847   5.820  15.274  0.4757  0.1002  0.1241
 9630TIP3    H150381   5.811   5.907  15.258  0.7454  0.3011  0.5787
 9630TIP3    H250382   5.891   5.797  15.192  0.4687  0.4276  0.0264
 9631TIP3   OH250383   4.800   0.208   0.274  0.8107  0.1294 -0.7477
 9631TIP3    H150384   4.721   0.161   0.249  0.4860 -0.3546  1.0843
 9631TIP3    H250385   4.871   0.146   0.258  0.7456  0.2437 -1.5297
 9632TIP3   OH250386   3.824   3.522  12.080 -0.1544 -0.0385  0.0983
 9632TIP3    H150387   3.911   3.537  12.042 -0.8807  2.2787 -0.7760
 9632TIP3    H250388   3.821   3.579  12.156 -0.9732 -0.0108  0.0455
 9633TIP3   OH250389   1.157   3.659   0.086  0.4093  0.4698 -0.2163
 9633TIP3    H150390   1.135   3.624   0.173 -1.1273  2.3480  0.2193
 9633TIP3    H250391   1.199   3.743   0.104  1.9089 -0.0311 -1.2753
 9634TIP3   OH250392   6.098   5.248   4.808 -0.2026 -0.3352 -0.3294
 9634TIP3    H150393   6.122   5.335   4.841  1.8778 -1.7036  2.0513
 9634TIP3    H250394   6.037   5.214   4.873 -0.2807 -1.0311 -0.7605
 9635TIP3   OH250395   1.648   1.255   4.142  0.2963  0.0758  0.2645
 9635TIP3    H150396   1.741   1.236   4.144  0.0329 -1.2775  0.4530
 9635TIP3    H250397   1.634   1.295   4.056  1.1199  0.7282  0.4222
 9636TIP3   OH250398   3.665   0.780   5.464  0.0998  0.3217  0.1835
 9636TIP3    H150399   3.691   0.822   5.546 -1.8009  0.1430  0.9252
 9636TIP3    H250400   3.703   0.692   5.469  1.5638  0.9105 -0.0171
 9637TIP3   OH250401   5.110   0.739   0.194 -0.5590 -0.0719 -1.0134
 9637TIP3    H150402   5.109   0.794   0.116  0.9418  0.0598 -0.9712
 9637TIP3    H250403   5.103   0.802   0.267 -2.0772 -0.2030 -1.0220
 9638TIP3   OH250404   1.661   5.637  14.772  0.0836  0.2054 -0.1547
 9638TIP3    H150405   1.656   5.725  14.735 -1.3204  0.3001  0.1860
 9638TIP3    H250406   1.651   5.650  14.866 -0.7670 -0.3559 -0.1595
 9639TIP3   OH250407   4.567   6.221   1.275 -0.2318 -0.3247 -0.0209
 9639TIP3    H150408   4.492   6.266   1.237  0.2237  0.9882  0.5708
 9639TIP3    H250409   4.626   6.291   1.303  0.6982 -1.2995  0.5709
 9640TIP3   OH250410   1.393   3.713   4.594 -0.1995  1.1439  0.0402
 9640TIP3    H150411   1.461   3.647   4.606  0.4863  1.6756 -0.8311
 9640TIP3    H250412   1.416   3.757   4.512 -1.3578  1.6168 -0.0472
 9641TIP3   OH250413   3.870   4.289  12.800 -0.4518 -0.2007  0.2744
 9641TIP3    H150414   3.788   4.279  12.850 -1.3007  0.3440 -0.9475
 9641TIP3    H250415   3.891   4.201  12.771 -1.3841 -0.1773 -0.5411
 9642TIP3   OH250416   5.869   3.444   2.494 -0.1750 -0.0153 -0.2967
 9642TIP3    H150417   5.820   3.391   2.556  0.6803 -0.4898 -0.0104
 9642TIP3    H250418   5.912   3.510   2.547 -0.6735  0.5397 -0.5714
 9643TIP3   OH250419   0.605   2.867   2.715 -0.1517 -0.1937 -0.1382
 9643TIP3    H150420   0.585   2.869   2.808 -0.1029 -0.4653 -0.1229
 9643TIP3    H250421   0.690   2.823   2.709  0.3818  0.8192 -0.2162
 9644TIP3   OH250422   6.042   1.811  13.523 -0.6270 -0.5523  0.3498
 9644TIP3    H150423   6.067   1.903  13.538  1.6097 -1.3079  1.8113
 9644TIP3    H250424   5.975   1.816  13.455  1.2377  2.0312 -1.5726
 9645TIP3   OH250425   2.234   3.784   0.461 -0.6989 -0.6197  0.0985
 9645TIP3    H150426   2.195   3.810   0.377 -0.3967  0.0321  0.1527
 9645TIP3    H250427   2.170   3.725   0.500 -0.8790 -0.8733 -0.5574
 9646TIP3   OH250428   3.734   1.593   1.863 -0.2020  0.3445 -0.0326
 9646TIP3    H150429   3.724   1.680   1.824 -0.1299  0.6861  0.6830
 9646TIP3    H250430   3.721   1.532   1.791 -0.8723  0.9396 -0.4263
 9647TIP3   OH250431   6.694   1.397   3.339  0.4107 -0.0683  0.0288
 9647TIP3    H150432   6.654   1.466   3.393  0.1799  0.0549 -0.2940
 9647TIP3    H250433   6.623   1.368   3.282  0.6060 -0.3234 -0.0814
 9648TIP3   OH250434   0.029   0.953  15.822  0.2034 -0.4725 -0.0718
 9648TIP3    H150435  -0.056   0.918  15.849  0.8397 -1.4534  0.7295
 9648TIP3    H250436   0.059   1.003  15.898  0.5631 -0.5403 -0.1696
 9649TIP3   OH250437   0.323   3.817  10.876  0.2741  0.2915 -0.2921
 9649TIP3    H150438   0.303   3.910  10.877  1.5370  0.5929  0.8799
 9649TIP3    H250439   0.365   3.802  10.791  0.5146  0.9046 -0.2823
 9650TIP3   OH250440   2.091   0.879  13.017  0.4134  0.0190  0.0056
 9650TIP3    H150441   2.019   0.942  13.015 -0.3510 -0.8272  0.1737
 9650TIP3    H250442   2.072   0.819  12.945  0.8684 -0.3026  0.1513
 9651TIP3   OH250443   0.498   5.154   0.175  0.0862 -0.2072 -0.2259
 9651TIP3    H150444   0.521   5.169   0.267 -0.4687  0.1503 -0.1409
 9651TIP3    H250445   0.502   5.059   0.165 -2.3041 -0.4960  0.8592
 9652TIP3   OH250446   4.074   2.666   5.046 -0.2079 -0.0075  0.2507
 9652TIP3    H150447   4.081   2.647   4.953  0.5476 -0.1874  0.3357
 9652TIP3    H250448   4.148   2.725   5.064 -0.3678  0.0515  0.7256
 9653TIP3   OH250449   4.235   3.266   5.671  0.1336  0.9768 -0.3552
 9653TIP3    H150450   4.154   3.314   5.687 -1.2356 -1.3049  0.0288
 9653TIP3    H250451   4.242   3.206   5.746  0.3130 -1.2492 -2.0699
 9654TIP3   OH250452   5.346   5.581   3.912 -0.4734  0.2341  0.0043
 9654TIP3    H150453   5.281   5.640   3.874 -0.7555  0.3779  0.6910
 9654TIP3    H250454   5.298   5.535   3.981  0.0053 -0.0849  0.1249
 9655TIP3   OH250455   4.422   3.280   0.623 -0.1272 -0.3246 -0.4345
 9655TIP3    H150456   4.388   3.362   0.588 -0.7359 -0.9564 -1.3855
 9655TIP3    H250457   4.500   3.261   0.571  0.4667  0.0374  0.3088
 9656TIP3   OH250458   4.909   0.469  14.168 -0.0111 -0.4197  0.1667
 9656TIP3    H150459   4.912   0.554  14.213  0.7297 -1.5088  2.3708
 9656TIP3    H250460   4.998   0.457  14.134 -0.9615  1.1343 -3.3127
 9657TIP3   OH250461   1.524   2.843  12.466 -0.1303  0.0675 -0.3214
 9657TIP3    H150462   1.503   2.781  12.536 -1.1557 -0.9867 -1.5114
 9657TIP3    H250463   1.440   2.885  12.445 -0.0372 -0.2990 -1.5177
 9658TIP3   OH250464   1.792   3.482  14.682  0.4909 -0.0232  0.4166
 9658TIP3    H150465   1.804   3.459  14.774 -0.8428  1.2839  0.9601
 9658TIP3    H250466   1.853   3.554  14.667 -0.3421  0.7746  0.7337
 9659TIP3   OH250467   3.558   4.322  15.887 -0.3060 -0.1925 -0.6265
 9659TIP3    H150468   3.620   4.321  15.960  0.0723 -1.3649 -0.9324
 9659TIP3    H250469   3.477   4.357  15.923  0.7873  2.3315 -0.4564
 9660TIP3   OH250470   0.022   4.815   2.485  0.3213  0.3602 -0.4194
 9660TIP3    H150471   0.030   4.720   2.501 -1.3282  0.3268  0.4162
 9660TIP3    H250472   0.111   4.843   2.463  0.8121 -1.4071 -0.8469
 9661TIP3   OH250473   6.072   3.524  12.920  0.3913  0.4034 -0.4244
 9661TIP3    H150474   6.038   3.611  12.900 -0.7486  0.1969  0.5103
 9661TIP3    H250475   6.122   3.536  13.000 -2.7145 -0.3360  1.8256
 9662TIP3   OH250476   4.880   4.427   2.878 -0.1919 -0.3687  0.0167
 9662TIP3    H150477   4.822   4.392   2.947  0.6227  2.1507  2.1464
 9662TIP3    H250478   4.821   4.442   2.804 -1.1268 -3.0807  0.0725
 9663TIP3   OH250479   3.487   2.084  13.437  0.1628 -0.0183 -0.5755
 9663TIP3    H150480   3.446   2.122  13.359 -1.0896 -1.2003 -0.5323
 9663TIP3    H250481   3.430   2.010  13.460  1.4776 -0.7541  0.4376
 9664TIP3   OH250482   2.730   4.909  14.421 -0.0815  0.0265  0.5316
 9664TIP3    H150483   2.707   4.860  14.342 -0.6188  0.3120  0.5045
 9664TIP3    H250484   2.812   4.870  14.450  0.9532  0.9216 -1.0229
 9665TIP3   OH250485   2.134   0.571  15.126 -0.2063 -0.2727 -0.0891
 9665TIP3    H150486   2.078   0.515  15.179  0.5046 -0.1110  0.8582
 9665TIP3    H250487   2.176   0.511  15.064 -0.9933 -0.4735 -0.4410
 9666TIP3   OH250488   6.766   0.933  13.838  0.4959 -0.2229 -0.3834
 9666TIP3    H150489   6.795   0.902  13.753 -0.7091  0.1365 -0.9475
 9666TIP3    H250490   6.724   1.018  13.821  1.0198  0.2758  0.6925
 9667TIP3   OH250491   1.319   0.085  14.959  0.0663  0.3130 -0.3991
 9667TIP3    H150492   1.261   0.130  14.897  2.2915  0.2525 -2.7301
 9667TIP3    H250493   1.380   0.036  14.903 -0.1301 -2.9635  1.9424
 9668TIP3   OH250494   6.705   1.498  14.122 -0.3856 -0.3250 -0.1102
 9668TIP3    H150495   6.643   1.534  14.186 -0.8650 -0.4233 -0.5189
 9668TIP3    H250496   6.695   1.403  14.129 -0.4828 -0.3345 -0.3738
 9669TIP3   OH250497   5.899   6.140   0.950 -0.3889 -0.0949  0.1353
 9669TIP3    H150498   5.966   6.186   1.001  0.3140  0.2188 -1.0169
 9669TIP3    H250499   5.944   6.115   0.869 -1.6927  0.2223 -0.7198
 9670TIP3   OH250500   4.088   6.268  17.047 -0.1129 -0.0384  0.3126
 9670TIP3    H150501   3.999   6.275  17.082  0.7291  0.1872  2.5680
 9670TIP3    H250502   4.102   6.174  17.033 -0.4731 -0.1377  0.6166
 9671TIP3   OH250503   2.925   4.375   1.245 -0.3191  0.3619  0.1651
 9671TIP3    H150504   2.911   4.428   1.323  1.6937  0.7955  0.2868
 9671TIP3    H250505   2.891   4.289   1.268 -2.0676  1.1274  0.5823
 9672TIP3   OH250506   1.925   1.707   3.745  0.7183  0.3928  0.1556
 9672TIP3    H150507   1.834   1.729   3.760  0.8130  1.9194 -1.3088
 9672TIP3    H250508   1.958   1.681   3.832 -1.5339 -2.1141  0.3977
 9673TIP3   OH250509   6.517   4.268  15.921  0.3002 -0.1451 -0.0849
 9673TIP3    H150510   6.500   4.190  15.974  1.1041 -0.5064 -0.3508
 9673TIP3    H250511   6.586   4.241  15.861  2.2346  1.4199  1.3236
 9674TIP3   OH250512   2.042   0.408  12.815 -0.9381  0.1057 -0.2501
 9674TIP3    H150513   2.069   0.363  12.735  0.9976  1.2519 -0.3060
 9674TIP3    H250514   1.964   0.361  12.844  0.5094 -2.8208 -0.6830
 9675TIP3   OH250515   3.290   1.139  15.006  0.0640  0.0316 -0.2567
 9675TIP3    H150516   3.366   1.102  15.050 -0.3805 -0.0193  0.4903
 9675TIP3    H250517   3.308   1.233  15.002 -0.2870  0.1603  0.8622
 9676TIP3   OH250518   2.297   4.378  14.386  0.2292  0.4210 -0.4250
 9676TIP3    H150519   2.372   4.325  14.414 -0.6255 -1.0444 -0.7864
 9676TIP3    H250520   2.221   4.333  14.422 -0.6980  0.0527 -2.6773
 9677TIP3   OH250521   4.008   2.975  14.315 -0.3423 -0.0559  0.0686
 9677TIP3    H150522   3.987   2.949  14.226 -1.8229  2.7175 -0.4916
 9677TIP3    H250523   4.017   3.070  14.311 -0.2266  0.1367  2.8549
 9678TIP3   OH250524   2.295   5.683  16.855  0.0613 -0.6373  0.1596
 9678TIP3    H150525   2.216   5.736  16.857  0.4630 -0.0455  0.7218
 9678TIP3    H250526   2.352   5.726  16.792  1.2048  0.8477  2.0846
 9679TIP3   OH250527   2.494   4.586  14.894 -0.1727  0.2995 -0.0526
 9679TIP3    H150528   2.508   4.634  14.976 -0.5127 -0.9137  0.7302
 9679TIP3    H250529   2.506   4.652  14.826  4.8320  0.5001  0.6316
 9680TIP3   OH250530   0.974   4.532  11.107  0.3877  0.4154  0.2085
 9680TIP3    H150531   1.049   4.473  11.097  0.3006  0.1233  1.2090
 9680TIP3    H250532   0.997   4.588  11.181 -0.3941  0.2916  0.5572
 9681TIP3   OH250533   1.630   5.526   0.175  0.2108 -0.0239 -0.3790
 9681TIP3    H150534   1.691   5.453   0.172 -1.6011 -1.5688 -1.6607
 9681TIP3    H250535   1.565   5.501   0.241  0.2939  1.0744  0.1527
 9682TIP3   OH250536   5.622   2.021  16.991  0.4676  0.4185 -0.1363
 9682TIP3    H150537   5.696   1.960  16.983 -2.1135 -3.0337 -0.0052
 9682TIP3    H250538   5.612   2.033  17.086  1.0077  1.1617 -0.1635
 9683TIP3   OH250539   1.606   5.446  15.146 -0.0395  0.0417  0.2235
 9683TIP3    H150540   1.676   5.386  15.121 -2.0249 -2.1451 -0.4112
 9683TIP3    H250541   1.609   5.449  15.241  1.4211  0.6763  0.1814
 9684TIP3   OH250542   0.212   4.406  12.867  0.0455  0.0548  0.7317
 9684TIP3    H150543   0.228   4.312  12.882 -1.7415 -0.1154  1.8991
 9684TIP3    H250544   0.196   4.412  12.773  1.4374 -0.5847  0.4307
 9685TIP3   OH250545   6.306   1.719   5.489 -0.2408 -0.4134 -0.1181
 9685TIP3    H150546   6.318   1.790   5.552 -1.3333  1.7166 -2.1331
 9685TIP3    H250547   6.215   1.692   5.501  0.1182 -1.3639  0.5122
 9686TIP3   OH250548   4.198   3.733   1.100 -0.2960 -0.2400  0.4465
 9686TIP3    H150549   4.265   3.728   1.032 -0.9198  0.2954 -0.2126
 9686TIP3    H250550   4.161   3.645   1.104 -1.3214  0.0872 -1.0160
 9687TIP3   OH250551   5.842   2.819  11.378  0.0811  0.6921 -0.3409
 9687TIP3    H150552   5.804   2.817  11.466  0.6520 -1.3296 -0.0955
 9687TIP3    H250553   5.849   2.727  11.353  2.3063  1.0992 -1.4614
 9688TIP3   OH250554   4.418   1.880  12.607 -0.3651 -0.0502  0.6930
 9688TIP3    H150555   4.501   1.859  12.565 -0.3463  0.8742  0.2479
 9688TIP3    H250556   4.408   1.813  12.674 -0.8370 -2.1633 -1.3383
 9689TIP3   OH250557   1.596   1.469  13.683  0.6148 -0.3481  0.3447
 9689TIP3    H150558   1.616   1.533  13.752 -0.4058  1.8127 -1.2319
 9689TIP3    H250559   1.538   1.405  13.726  2.4187 -0.8371  2.2180
 9690TIP3   OH250560   2.463   5.504   0.224  0.5566 -0.2530  0.5697
 9690TIP3    H150561   2.394   5.556   0.184 -0.1808 -0.1036  1.9720
 9690TIP3    H250562   2.542   5.558   0.215  0.5138 -0.4320 -1.0590
 9691TIP3   OH250563   3.401   1.144  15.584 -0.2121  0.1970 -0.1808
 9691TIP3    H150564   3.436   1.058  15.563 -0.3427  0.2043 -0.4337
 9691TIP3    H250565   3.306   1.136  15.569 -0.4486 -0.0651  1.2854
 9692TIP3   OH250566   6.198   0.665   2.330  0.4222 -0.0115 -0.1631
 9692TIP3    H150567   6.279   0.616   2.311  0.1625  0.0998 -1.7030
 9692TIP3    H250568   6.212   0.702   2.417  1.3563 -1.3505  0.2915
 9693TIP3   OH250569   4.884   2.183   4.379 -0.1193 -0.1717  0.3819
 9693TIP3    H150570   4.853   2.227   4.458  0.6121  1.4080 -0.1656
 9693TIP3    H250571   4.804   2.150   4.338 -0.4372 -1.6832  2.1203
 9694TIP3   OH250572   0.659   1.348  10.211 -0.1667 -0.1507 -0.5541
 9694TIP3    H150573   0.577   1.316  10.174  0.3358 -2.0922 -0.0926
 9694TIP3    H250574   0.724   1.283  10.186  1.1664  1.1341 -0.5513
 9695TIP3   OH250575   6.493   5.996  15.285  0.5404 -0.0519 -0.2547
 9695TIP3    H150576   6.437   5.986  15.361 -0.2259  1.9911 -0.4669
 9695TIP3    H250577   6.558   6.062  15.312  1.0250 -0.2285 -0.9598
 9696TIP3   OH250578   3.506   6.024  14.602 -0.3177 -0.4440  0.0362
 9696TIP3    H150579   3.540   5.968  14.532  0.5962  1.8840 -1.5437
 9696TIP3    H250580   3.570   6.095  14.608 -0.3115 -0.5874  3.3980
 9697TIP3   OH250581   6.467   4.237  12.664 -0.1465 -0.2580  0.3810
 9697TIP3    H150582   6.374   4.251  12.685 -0.1265 -0.2729  0.4819
 9697TIP3    H250583   6.478   4.142  12.669 -1.0611 -0.7401 -3.5479
 9698TIP3   OH250584   3.824   6.483  14.663 -0.4102 -0.2298  1.0770
 9698TIP3    H150585   3.815   6.490  14.758 -0.7927  2.4237  0.9066
 9698TIP3    H250586   3.867   6.565  14.637 -2.0069 -0.0373 -1.2185
 9699TIP3   OH250587   3.560   6.298   3.725  0.4408 -0.0610 -0.3139
 9699TIP3    H150588   3.481   6.350   3.736  0.7487  0.5283 -0.8132
 9699TIP3    H250589   3.560   6.237   3.799  0.1007  0.6912  0.3166
 9700TIP3   OH250590   2.286   3.530   0.155  0.2271 -0.1234 -0.4466
 9700TIP3    H150591   2.278   3.435   0.148  0.2970 -0.0572 -1.6107
 9700TIP3    H250592   2.225   3.565   0.089 -0.6533  0.6757  0.7360
 9701TIP3   OH250593   4.841   6.296  11.685 -0.0823 -0.4161 -0.0537
 9701TIP3    H150594   4.858   6.379  11.641  2.9434 -0.6086  0.5358
 9701TIP3    H250595   4.864   6.312  11.777 -1.1704 -1.4547  0.4345
 9702TIP3   OH250596   3.095   5.433  15.537  0.0442  0.4045 -1.0619
 9702TIP3    H150597   3.088   5.528  15.532  0.0212  0.4779  0.0804
 9702TIP3    H250598   3.073   5.402  15.449 -2.2598  1.3224 -0.8605
 9703TIP3   OH250599   2.950   6.248   3.342 -0.4325 -0.2618  0.2126
 9703TIP3    H150600   2.973   6.169   3.294  0.1694  0.5714 -0.9237
 9703TIP3    H250601   2.909   6.305   3.277 -0.5717  0.4864  0.9307
 9704TIP3   OH250602   3.744   3.470  13.681  0.0180 -0.2006 -0.4029
 9704TIP3    H150603   3.773   3.551  13.722 -0.9609  0.0750 -0.2216
 9704TIP3    H250604   3.683   3.431  13.744  1.2703 -1.6240 -0.0172
 9705TIP3   OH250605   6.191   2.591  11.681 -0.1139  0.1914  0.4703
 9705TIP3    H150606   6.184   2.662  11.617  0.2053  0.2102  0.4533
 9705TIP3    H250607   6.285   2.583  11.697 -0.1304 -0.3843  0.2954
 9706TIP3   OH250608   2.694   2.622  12.707 -0.4113  0.1061 -0.3853
 9706TIP3    H150609   2.708   2.649  12.797  2.5746 -0.1493 -0.6911
 9706TIP3    H250610   2.599   2.623  12.696 -0.9558 -1.0622  3.1119
 9707TIP3   OH250611   6.193   1.524   1.261  0.2304 -0.4553 -0.3630
 9707TIP3    H150612   6.191   1.432   1.290  1.1616 -0.7038 -1.0137
 9707TIP3    H250613   6.273   1.559   1.300  2.1711 -1.1217 -3.3505
 9708TIP3   OH250614   0.709   2.844  12.926  0.1057  0.4592  0.1637
 9708TIP3    H150615   0.722   2.773  12.988 -0.5340 -0.5624 -0.8303
 9708TIP3    H250616   0.688   2.920  12.980 -0.9920 -0.5272  1.1754
 9709TIP3   OH250617   0.573   1.997  14.122 -0.0902  0.3389  0.1552
 9709TIP3    H150618   0.530   1.911  14.121 -1.2453  0.8729 -1.8850
 9709TIP3    H250619   0.612   2.003  14.209  3.3250 -3.8177 -0.6993
 9710TIP3   OH250620   3.694   0.456  14.167 -0.2410 -0.0842 -0.4260
 9710TIP3    H150621   3.754   0.387  14.198  1.2111  1.6915  0.9627
 9710TIP3    H250622   3.748   0.509  14.109 -1.4309 -0.2431 -1.6993
 9711TIP3   OH250623   0.343   0.738   2.862  0.3818 -0.7078  0.0727
 9711TIP3    H150624   0.418   0.710   2.809 -0.8096 -0.9322 -1.5686
 9711TIP3    H250625   0.344   0.834   2.854  0.1383 -0.7458 -0.4797
 9712TIP3   OH250626   1.600   4.463  12.854 -0.0998 -0.0992 -0.6188
 9712TIP3    H150627   1.514   4.478  12.814 -0.0004  1.5792 -0.2803
 9712TIP3    H250628   1.586   4.391  12.915 -1.5116  0.7402  0.0969
 9713TIP3   OH250629   4.510   3.255   3.952 -0.2863  0.5511  0.0934
 9713TIP3    H150630   4.468   3.318   3.894  1.6578  1.1293 -0.7779
 9713TIP3    H250631   4.515   3.300   4.037  1.2794  1.7527 -0.5694
 9714TIP3   OH250632   5.952   4.778  15.769  0.0306 -0.2951  0.1400
 9714TIP3    H150633   5.928   4.722  15.696 -0.4063 -1.0534  0.8459
 9714TIP3    H250634   6.017   4.728  15.818  0.4456  0.2724  0.1847
 9715TIP3   OH250635   5.477   5.826  11.540 -0.3390 -0.2429  0.1453
 9715TIP3    H150636   5.504   5.885  11.469  0.9421 -1.4726 -0.4446
 9715TIP3    H250637   5.558   5.808  11.587 -0.8046 -1.0823  0.6472
 9716TIP3   OH250638   5.583   1.560   2.077 -0.4342 -0.5285 -0.0227
 9716TIP3    H150639   5.650   1.492   2.075  1.1753  1.0234 -1.1561
 9716TIP3    H250640   5.530   1.545   1.999 -1.0181 -1.3466  0.5166
 9717TIP3   OH250641   0.629   2.771  16.166 -0.0798 -0.5721 -0.5194
 9717TIP3    H150642   0.626   2.675  16.158  5.2972 -1.0458 -0.9688
 9717TIP3    H250643   0.655   2.787  16.257 -0.9831  0.5147 -0.4335
 9718TIP3   OH250644   2.963   3.138  17.052 -0.0783 -0.5646 -0.1747
 9718TIP3    H150645   3.039   3.142  16.994  0.8592 -0.0183  1.0358
 9718TIP3    H250646   2.888   3.155  16.996  0.6012 -1.8457 -1.5468
 9719TIP3   OH250647   1.427   6.100  12.827  0.7387 -0.0789 -0.1682
 9719TIP3    H150648   1.419   6.180  12.878 -1.2685 -0.9874  1.0816
 9719TIP3    H250649   1.343   6.055  12.839 -0.2281 -0.0765 -4.7973
 9720TIP3   OH250650   0.187   4.036  12.884 -0.3543  0.5646 -0.5377
 9720TIP3    H150651   0.226   4.084  12.957 -2.2457  0.5819  0.5556
 9720TIP3    H250652   0.239   3.957  12.876 -0.0178  0.6254  0.7795
 9721TIP3   OH250653   4.952   0.182   3.214  0.0200 -0.3790  0.1656
 9721TIP3    H150654   5.040   0.180   3.253  0.4335  1.0103 -0.6230
 9721TIP3    H250655   4.918   0.094   3.226  1.6455 -1.0274  0.2127
 9722TIP3   OH250656   5.361   4.238   1.735 -0.3089 -0.1024  0.2015
 9722TIP3    H150657   5.406   4.177   1.794 -0.3012  0.3592  0.6791
 9722TIP3    H250658   5.419   4.246   1.659 -0.4708 -0.9520 -0.0209
 9723TIP3   OH250659   4.547   6.465  11.732  0.0607  0.1342  0.2247
 9723TIP3    H150660   4.557   6.403  11.660  0.8875  0.6828 -0.1508
 9723TIP3    H250661   4.498   6.417  11.799 -0.5980 -0.4253 -0.6490
 9724TIP3   OH250662   4.518   3.468   6.252  0.3577  0.1616 -0.0574
 9724TIP3    H150663   4.431   3.504   6.270  0.9774  0.7116  2.0205
 9724TIP3    H250664   4.575   3.507   6.318  1.8520 -1.5811 -0.2263
 9725TIP3   OH250665   3.202   4.857   6.527 -0.1048 -0.2641 -0.2984
 9725TIP3    H150666   3.295   4.839   6.513 -0.2167 -0.1482 -1.2899
 9725TIP3    H250667   3.158   4.777   6.501 -0.2487 -0.5959  0.9184
 9726TIP3   OH250668   1.386   4.716  16.488  0.8077 -0.3405  0.2682
 9726TIP3    H150669   1.355   4.702  16.398 -1.3068  0.1036  0.8578
 9726TIP3    H250670   1.352   4.802  16.511 -0.0482 -1.1089  2.0127
 9727TIP3   OH250671   3.457   3.832   4.198  0.0877 -0.3021 -0.2444
 9727TIP3    H150672   3.429   3.743   4.223  1.7328 -0.6485  0.5296
 9727TIP3    H250673   3.402   3.854   4.123 -0.5703 -1.8650 -0.2720
 9728TIP3   OH250674   3.705   5.057   4.340  0.1559  0.1925  0.0989
 9728TIP3    H150675   3.702   5.132   4.399  0.1212  1.3288 -1.2777
 9728TIP3    H250676   3.613   5.042   4.316  0.1327 -0.4878  0.5908
 9729TIP3   OH250677   2.214   3.661  12.396 -0.2174 -0.0868 -0.6282
 9729TIP3    H150678   2.239   3.616  12.315 -0.3297 -0.7140 -0.3196
 9729TIP3    H250679   2.295   3.702  12.426 -0.6390  2.0420 -2.2184
 9730TIP3   OH250680   6.077   2.753  14.127 -0.4253 -0.3946  0.3548
 9730TIP3    H150681   6.009   2.764  14.060  0.3287  0.8188 -0.2499
 9730TIP3    H250682   6.099   2.842  14.153  0.8300 -0.7726  0.6347
 9731TIP3   OH250683   2.564   3.392   5.549 -0.2067  0.0042  0.4873
 9731TIP3    H150684   2.529   3.344   5.473 -1.2934  0.8072  0.4470
 9731TIP3    H250685   2.646   3.348   5.569 -0.6755 -1.2382 -0.1658
 9732TIP3   OH250686   3.061   2.659   3.140  0.0173 -0.3545 -0.7259
 9732TIP3    H150687   2.970   2.649   3.170  0.1065  0.1283 -0.2752
 9732TIP3    H250688   3.112   2.604   3.200  0.4173  1.9785  1.2699
 9733TIP3   OH250689   2.557   4.838  14.181  0.3278  0.8665 -0.0856
 9733TIP3    H150690   2.621   4.791  14.127  0.2437  0.4122  0.2037
 9733TIP3    H250691   2.509   4.893  14.119  1.6221  1.9463 -0.1763
 9734TIP3   OH250692   1.925   4.273  13.818 -0.0387  0.3336  0.1906
 9734TIP3    H150693   1.875   4.235  13.890  0.3780  1.8730  1.3503
 9734TIP3    H250694   1.859   4.306  13.758 -0.4281  0.8313  0.8773
 9735TIP3   OH250695   3.394   2.280  14.211 -0.0133  0.4291  0.4933
 9735TIP3    H150696   3.354   2.353  14.163  0.2922 -1.3693 -2.7970
 9735TIP3    H250697   3.488   2.290  14.196 -0.0431 -1.3126 -1.2388
 9736TIP3   OH250698   6.137   2.834   3.496 -0.3980  0.8607 -0.3856
 9736TIP3    H150699   6.045   2.833   3.469 -0.8125 -0.3680  0.9262
 9736TIP3    H250700   6.153   2.924   3.525 -1.2729  1.0188 -0.3662
 9737TIP3   OH250701   2.814   6.205   2.903  0.1649 -0.3638 -0.4415
 9737TIP3    H150702   2.760   6.195   2.824  2.4028 -1.5871 -1.9080
 9737TIP3    H250703   2.811   6.119   2.945  1.3179 -0.5964 -0.8034
 9738TIP3   OH250704   5.762   1.812   3.504 -0.0676 -0.3773  0.5280
 9738TIP3    H150705   5.781   1.740   3.564 -1.2304 -0.9809  0.2108
 9738TIP3    H250706   5.780   1.777   3.417  1.7356  0.5347  0.4976
 9739TIP3   OH250707   4.752   4.449   2.108 -0.2730  0.3440  0.6002
 9739TIP3    H150708   4.691   4.520   2.126 -0.3978  0.8188 -1.4695
 9739TIP3    H250709   4.755   4.398   2.190 -2.2458  1.1774  1.2373
 9740TIP3   OH250710   4.923   3.595  16.717  0.4318  0.0333 -0.0605
 9740TIP3    H150711   4.873   3.514  16.724 -0.5869  0.4935 -1.3680
 9740TIP3    H250712   4.988   3.577  16.650  1.0387 -0.0900  0.5555
 9741TIP3   OH250713   1.283   1.060   0.315  0.4170  0.8779  0.6772
 9741TIP3    H150714   1.310   1.151   0.298  0.0703  0.6485 -1.3087
 9741TIP3    H250715   1.218   1.067   0.385  0.9708  2.0673  1.1074
 9742TIP3   OH250716   2.225   4.972   3.112  0.2105 -0.6757  0.5896
 9742TIP3    H150717   2.202   4.982   3.019  1.2605 -1.7576  0.1965
 9742TIP3    H250718   2.140   4.963   3.156 -0.3182  0.1085 -0.2089
 9743TIP3   OH250719   5.282   5.538  16.489 -0.3973 -0.3356 -0.5660
 9743TIP3    H150720   5.337   5.614  16.475 -0.4758 -0.0763  0.4254
 9743TIP3    H250721   5.204   5.554  16.435 -1.4702  1.4379  1.3395
 9744TIP3   OH250722   2.585   1.329   2.444 -0.5921  0.1124  0.3661
 9744TIP3    H150723   2.644   1.327   2.368  1.5267 -0.4203  1.9224
 9744TIP3    H250724   2.618   1.401   2.498 -1.2238 -0.3498  1.3907
 9745TIP3   OH250725   5.314   6.429   2.395  0.5620 -0.0497 -0.0679
 9745TIP3    H150726   5.325   6.346   2.442  1.7427 -0.9685 -1.8647
 9745TIP3    H250727   5.225   6.457   2.415  0.4916 -1.2069  1.3924
 9746TIP3   OH250728   4.172   4.577   3.996  0.2241  0.2450 -0.3143
 9746TIP3    H150729   4.104   4.630   3.956  2.8519  1.1734 -4.1221
 9746TIP3    H250730   4.140   4.487   3.991 -1.5563  0.8280  0.0864
 9747TIP3   OH250731   2.934   5.784  17.041 -0.2326  0.1062 -0.9094
 9747TIP3    H150732   2.969   5.871  17.062 -0.1002 -0.1840  0.1096
 9747TIP3    H250733   2.970   5.727  17.109 -2.6488 -0.2224  0.1795
 9748TIP3   OH250734   1.297   2.063   6.058 -0.0612 -0.0663 -0.5500
 9748TIP3    H150735   1.220   2.118   6.041 -0.2578  0.0175  0.5659
 9748TIP3    H250736   1.261   1.977   6.078  0.0158  0.3395  1.5283
 9749TIP3   OH250737   1.852   3.315  15.621  0.1938  0.7863  0.1185
 9749TIP3    H150738   1.935   3.315  15.573  0.0916  1.4324 -0.0685
 9749TIP3    H250739   1.785   3.317  15.552  0.0496  2.2023  0.2883
 9750TIP3   OH250740   2.075   3.790  16.815 -0.2090  0.4232 -0.5953
 9750TIP3    H150741   2.093   3.697  16.828 -0.4047  0.5410  0.5841
 9750TIP3    H250742   1.980   3.797  16.820 -0.1798  0.7236 -0.4596
 9751TIP3   OH250743   3.943   4.941   5.256 -0.1463  0.0101 -0.9693
 9751TIP3    H150744   3.953   4.990   5.337 -0.4915 -0.0652 -0.8806
 9751TIP3    H250745   4.013   4.876   5.258  1.0327  1.2202 -1.6106
 9752TIP3   OH250746   0.318   0.923   1.310 -0.4301  0.3475  0.4230
 9752TIP3    H150747   0.343   1.012   1.283 -0.3829 -0.1035 -1.1212
 9752TIP3    H250748   0.327   0.923   1.405  0.9336  1.5878  0.3255
 9753TIP3   OH250749   1.164   2.641  12.231 -0.9211  0.0763 -0.4113
 9753TIP3    H150750   1.170   2.578  12.303 -0.3006  0.7686  0.1610
 9753TIP3    H250751   1.092   2.608  12.177 -1.7254 -0.2159  0.7757
 9754TIP3   OH250752   5.050   0.779   3.956  0.4513 -0.2044  0.3441
 9754TIP3    H150753   5.069   0.702   3.902  1.1917  0.1723  0.0482
 9754TIP3    H250754   5.129   0.833   3.949  0.8866 -0.4840  2.4079
 9755TIP3   OH250755   2.515   4.242  14.476 -0.1270 -0.2455  0.3233
 9755TIP3    H150756   2.511   4.159  14.523 -1.1185 -0.9484 -0.9555
 9755TIP3    H250757   2.609   4.263  14.472  0.0939 -1.0178  1.1072
 9756TIP3   OH250758   6.825   2.319   1.609  0.0079 -0.0532  0.1481
 9756TIP3    H150759   6.788   2.315   1.698  1.5045  0.8011  0.8334
 9756TIP3    H250760   6.775   2.253   1.560 -1.0935 -0.2872  1.5198
 9757TIP3   OH250761   2.319   4.017  16.278  0.2506  0.8726 -0.0014
 9757TIP3    H150762   2.275   3.934  16.261 -0.7816  1.2096  0.9140
 9757TIP3    H250763   2.249   4.076  16.305  0.9110  2.1570 -0.9918
 9758TIP3   OH250764   0.248   0.021  10.429  0.2141  0.5361 -0.4996
 9758TIP3    H150765   0.177  -0.041  10.412  0.7902 -0.5520  0.8383
 9758TIP3    H250766   0.269   0.058  10.343 -1.0091 -0.1795 -1.1312
 9759TIP3   OH250767   1.697   5.532  16.992 -0.1580  0.0472 -0.1239
 9759TIP3    H150768   1.613   5.557  16.954 -0.4563  0.5618  0.8330
 9759TIP3    H250769   1.692   5.564  17.082  0.4094 -1.3832  0.4304
 9760TIP3   OH250770   4.108   6.316  11.927 -0.1615  0.3041  0.0101
 9760TIP3    H150771   4.123   6.221  11.922 -1.6415  0.0230  0.4158
 9760TIP3    H250772   4.100   6.334  12.020 -0.6476  0.6939 -0.1035
 9761TIP3   OH250773   2.753   4.956  15.732  0.4756 -0.8360 -0.5869
 9761TIP3    H150774   2.661   4.957  15.704 -0.3286 -0.4248  1.8177
 9761TIP3    H250775   2.768   5.044  15.767  1.9265 -0.7829 -1.3067
 9762TIP3   OH250776   2.691   6.567   1.296 -0.0005  0.2025 -0.8401
 9762TIP3    H150777   2.717   6.492   1.241  0.2766 -0.1215 -0.2763
 9762TIP3    H250778   2.643   6.528   1.369  0.4374  0.5426 -0.3647
 9763TIP3   OH250779   6.003   1.314  15.581 -0.0785 -0.1007 -0.3974
 9763TIP3    H150780   6.021   1.307  15.675 -0.1378  2.0065 -0.1758
 9763TIP3    H250781   6.034   1.401  15.558  2.0007 -1.3605 -2.8655
 9764TIP3   OH250782   0.812   3.713  13.311 -0.1784 -0.3068 -0.8331
 9764TIP3    H150783   0.904   3.726  13.287  0.4320 -0.8071  1.0557
 9764TIP3    H250784   0.790   3.790  13.364 -0.3597 -0.9095 -0.0123
 9765TIP3   OH250785   1.580   1.512   0.346  0.5611 -0.4923  0.3540
 9765TIP3    H150786   1.536   1.528   0.263  0.4619 -0.9772  0.3107
 9765TIP3    H250787   1.525   1.447   0.390 -0.4362  1.1219  1.6305
 9766TIP3   OH250788   3.915   2.178   1.593  0.3761 -0.4374 -0.0606
 9766TIP3    H150789   3.877   2.263   1.613  0.0444 -1.0609  2.2624
 9766TIP3    H250790   3.944   2.144   1.678  1.3193 -2.2687 -1.0421
 9767TIP3   OH250791   6.656   3.340  14.954  0.0310 -0.0131 -0.6127
 9767TIP3    H150792   6.586   3.292  14.910  0.0730 -0.9318  0.2900
 9767TIP3    H250793   6.718   3.362  14.883  0.9954 -2.9897 -0.8639
 9768TIP3   OH250794   3.546   2.611   3.730  0.4984  0.1561  0.6101
 9768TIP3    H150795   3.519   2.620   3.639  2.5131  3.2699  0.1691
 9768TIP3    H250796   3.465   2.591   3.777 -0.7688 -0.4905 -1.7100
 9769TIP3   OH250797   5.165   4.646  15.869 -0.0220  0.5692 -0.2121
 9769TIP3    H150798   5.170   4.710  15.798  1.3489 -0.3459 -1.0102
 9769TIP3    H250799   5.256   4.636  15.898 -0.6086  1.3542  2.1239
 9770TIP3   OH250800   2.965   5.424  11.639 -0.0798  0.2693  0.5188
 9770TIP3    H150801   2.917   5.488  11.692 -1.8919 -0.4260 -0.1743
 9770TIP3    H250802   2.951   5.452  11.549 -1.1124 -1.1754  0.1870
 9771TIP3   OH250803   4.357   4.153   3.800  0.4280 -0.5491  0.4654
 9771TIP3    H150804   4.395   4.135   3.713 -0.6785 -1.6523  0.1862
 9771TIP3    H250805   4.430   4.190   3.850  1.0198  0.3909 -1.0088
 9772TIP3   OH250806   4.198   1.103   5.690  0.4169  0.5727  1.0830
 9772TIP3    H150807   4.283   1.126   5.725  1.4866 -0.7802 -0.4765
 9772TIP3    H250808   4.193   1.008   5.698 -0.5591  0.5361  0.3110
 9773TIP3   OH250809   6.557   0.662   5.878  0.0501  0.3709 -0.6711
 9773TIP3    H150810   6.639   0.669   5.927  0.5597  0.0371 -1.4662
 9773TIP3    H250811   6.520   0.750   5.880 -1.0571 -0.0246  2.1659
 9774TIP3   OH250812   3.652   6.506   4.952 -0.4358  0.1310 -0.0579
 9774TIP3    H150813   3.562   6.515   4.919 -0.1816 -0.4834 -0.9475
 9774TIP3    H250814   3.685   6.596   4.956 -0.9705  0.3345 -0.0474
 9775TIP3   OH250815   4.354   0.677   3.879  0.0429 -0.1933  0.4808
 9775TIP3    H150816   4.274   0.654   3.927 -0.5383  0.6650 -0.0385
 9775TIP3    H250817   4.370   0.602   3.821 -1.2954  0.2703 -0.5358
 9776TIP3   OH250818   3.078   4.208   0.814 -0.4800 -0.3285  0.4232
 9776TIP3    H150819   3.048   4.136   0.870 -0.3208 -0.6398  0.1107
 9776TIP3    H250820   3.161   4.177   0.777 -0.1078  0.2525  0.7449
 9777TIP3   OH250821   4.484   2.655   0.767  0.3371  0.1195  0.2880
 9777TIP3    H150822   4.447   2.584   0.715 -2.3796  2.9328 -2.0183
 9777TIP3    H250823   4.544   2.699   0.707 -1.4437  2.3292  0.0066
 9778TIP3   OH250824   2.857   6.558  15.595  0.2036 -0.2492 -0.2981
 9778TIP3    H150825   2.829   6.510  15.673 -2.4423  1.2010 -0.2465
 9778TIP3    H250826   2.828   6.504  15.522  0.1026 -0.2474 -0.2591
 9779TIP3   OH250827   1.935   1.102   5.223  0.3826 -0.1698 -0.7322
 9779TIP3    H150828   2.017   1.118   5.177  0.3536  0.4202 -0.5799
 9779TIP3    H250829   1.909   1.014   5.194  1.7521 -0.9377  0.2503
 9780TIP3   OH250830   3.867   2.871   2.706  0.3709 -0.1184 -0.4373
 9780TIP3    H150831   3.838   2.869   2.798  0.5839  0.2094 -0.3609
 9780TIP3    H250832   3.788   2.850   2.656  0.3763 -0.8597 -0.1533
 9781TIP3   OH250833   1.405   2.342  14.429  0.0343 -0.3969  0.2462
 9781TIP3    H150834   1.319   2.380  14.449  0.1642  0.1805 -0.2487
 9781TIP3    H250835   1.428   2.379  14.343 -0.7666 -3.2081 -1.2881
 9782TIP3   OH250836   1.353   5.103   3.306  0.4646 -0.0416  0.0795
 9782TIP3    H150837   1.258   5.097   3.292  0.4877  1.7338 -1.2352
 9782TIP3    H250838   1.370   5.197   3.314  2.1877 -0.2950 -0.2045
 9783TIP3   OH250839   6.340   2.351   4.090  0.0901  0.0752 -0.5182
 9783TIP3    H150840   6.304   2.292   4.023  0.3405  0.4405 -0.9797
 9783TIP3    H250841   6.394   2.413   4.041 -0.9341  1.3038 -0.1559
 9784TIP3   OH250842   5.225   2.260   0.258 -0.1517 -0.2968 -0.1746
 9784TIP3    H150843   5.292   2.258   0.326 -0.1997  0.2503 -0.1108
 9784TIP3    H250844   5.273   2.275   0.177 -0.2647  0.9904 -0.0247
 9785TIP3   OH250845   6.561   2.184  14.842  0.0967 -0.2156  0.3422
 9785TIP3    H150846   6.559   2.269  14.799  0.7013  0.0310  0.7807
 9785TIP3    H250847   6.471   2.169  14.871  0.2936  1.0043  1.6572
 9786TIP3   OH250848   2.488   1.609  11.501 -0.3083 -0.2148  0.2711
 9786TIP3    H150849   2.474   1.703  11.499  0.0785 -0.1511  0.3111
 9786TIP3    H250850   2.578   1.598  11.469 -0.1929 -0.5279  0.6843
 9787TIP3   OH250851   3.088   3.696   3.874 -0.2519  0.7700  0.0372
 9787TIP3    H150852   3.168   3.646   3.858 -0.1277  0.5050  1.3733
 9787TIP3    H250853   3.031   3.675   3.800  0.5320  0.1778 -0.4111
 9788TIP3   OH250854   3.563   5.916   4.608  0.4737  0.2891  0.2408
 9788TIP3    H150855   3.627   5.985   4.589  1.1828 -0.3270  0.3531
 9788TIP3    H250856   3.615   5.838   4.622 -0.2874 -0.1267  0.8184
 9789TIP3   OH250857   5.903   0.588   4.870  0.4333  0.5638 -0.4212
 9789TIP3    H150858   5.928   0.668   4.823 -1.9619  1.0416 -1.0246
 9789TIP3    H250859   5.985   0.542   4.885  1.7037  2.3593 -1.5095
 9790TIP3   OH250860   2.958   2.788  16.950  0.1061 -0.4177 -0.7080
 9790TIP3    H150861   2.903   2.807  17.026 -0.0932 -0.2573 -0.8903
 9790TIP3    H250862   2.938   2.859  16.889  0.3324 -0.4977 -0.8735
 9791TIP3   OH250863   1.313   6.126   1.323  0.2549 -0.3831 -0.1168
 9791TIP3    H150864   1.355   6.144   1.407 -1.2943 -0.0233  0.6074
 9791TIP3    H250865   1.337   6.201   1.268 -0.4884  0.4760  0.6998
 9792TIP3   OH250866   6.478   1.765  13.736  0.1512  0.0536 -0.3069
 9792TIP3    H150867   6.401   1.735  13.688 -0.9177  1.3444  0.5148
 9792TIP3    H250868   6.503   1.847  13.694  1.1918 -0.4211 -0.6571
 9793TIP3   OH250869   1.407   5.565  15.373  0.5816 -0.4904  0.8057
 9793TIP3    H150870   1.497   5.540  15.393  1.3230  0.8323 -0.7240
 9793TIP3    H250871   1.399   5.655  15.406 -0.1870 -0.6084  0.9561
 9794TIP3   OH250872   5.956   1.247   1.064  0.1193 -0.1172  0.1539
 9794TIP3    H150873   5.949   1.212   0.975  0.7363 -0.5471  0.2705
 9794TIP3    H250874   6.031   1.306   1.061  0.7425 -0.8711  0.6204
 9795TIP3   OH250875   2.053   4.899  15.723 -0.2253 -0.5148  0.6619
 9795TIP3    H150876   2.121   4.934  15.781  0.6426 -0.3990 -0.3989
 9795TIP3    H250877   1.990   4.970  15.714  0.7535  0.2645 -0.2743
 9796TIP3   OH250878   6.493   4.319   6.366 -0.5894  0.2287  0.3454
 9796TIP3    H150879   6.423   4.279   6.315 -0.6456 -0.3165  0.8439
 9796TIP3    H250880   6.572   4.273   6.339 -0.6653 -0.2847  0.9722
 9797TIP3   OH250881   3.211   0.290   6.182  0.1100 -0.2591 -0.8870
 9797TIP3    H150882   3.203   0.382   6.157 -1.2490 -0.0779  0.1276
 9797TIP3    H250883   3.125   0.252   6.163  0.1383 -0.9177  0.2082
 9798TIP3   OH250884   0.489   6.486   4.244  0.0155  0.2383 -0.0328
 9798TIP3    H150885   0.576   6.493   4.205 -0.7716 -0.4620 -2.0242
 9798TIP3    H250886   0.498   6.418   4.311  0.3627 -2.1129 -2.3097
 9799TIP3   OH250887   2.608   0.389  12.662 -0.0745  0.6615  0.1708
 9799TIP3    H150888   2.692   0.387  12.708  0.1166 -0.1462 -0.1950
 9799TIP3    H250889   2.566   0.307  12.686  0.7195 -0.5601 -2.3434
 9800TIP3   OH250890   5.299   2.280   4.771 -0.0901  0.1814 -0.2403
 9800TIP3    H150891   5.237   2.310   4.705 -1.5393  0.1724  1.0558
 9800TIP3    H250892   5.268   2.320   4.853  0.8488 -0.8730  0.6642
 9801TIP3   OH250893   4.141   0.196   1.557  0.1984 -0.1039 -0.1294
 9801TIP3    H150894   4.190   0.230   1.481  0.2299 -0.7427 -0.3990
 9801TIP3    H250895   4.052   0.227   1.542  0.5743  1.4129  0.5732
 9802TIP3   OH250896   0.697   6.446  14.342  0.0321  0.1288 -0.0959
 9802TIP3    H150897   0.635   6.465  14.272 -0.6203 -1.7763 -0.1025
 9802TIP3    H250898   0.661   6.491  14.418 -1.6699 -1.2799  0.0007
 9803TIP3   OH250899   5.163   6.792   1.582  0.2220 -0.4774 -0.1454
 9803TIP3    H150900   5.183   6.847   1.506  0.8845 -0.8954 -0.2829
 9803TIP3    H250901   5.081   6.826   1.616 -0.5860 -0.8918 -1.6189
 9804TIP3   OH250902   3.565   4.715   0.346 -0.5476  0.7999 -0.0355
 9804TIP3    H150903   3.622   4.773   0.397  0.3784 -0.6057  0.6037
 9804TIP3    H250904   3.619   4.688   0.272 -0.6765  0.1239  0.1104
 9805TIP3   OH250905   5.037   6.104   1.950 -0.2193 -0.1427 -0.5107
 9805TIP3    H150906   5.072   6.178   2.000  1.5302 -1.1449 -0.1605
 9805TIP3    H250907   4.981   6.144   1.884 -0.6512  1.3736  0.7207
 9806TIP3   OH250908   2.227   0.551   1.640  0.2445  0.0521 -0.1400
 9806TIP3    H150909   2.286   0.574   1.712 -0.3120  0.3514  0.2284
 9806TIP3    H250910   2.232   0.625   1.579  1.0801 -0.4126 -0.6578
 9807TIP3   OH250911   5.626   1.180  10.424  0.6094 -0.0318 -0.3948
 9807TIP3    H150912   5.712   1.211  10.453 -0.4460  1.3976  1.4238
 9807TIP3    H250913   5.615   1.217  10.336  2.6024 -1.8684 -1.5041
 9808TIP3   OH250914   4.342   1.065  12.448 -0.1233 -0.1120  0.2269
 9808TIP3    H150915   4.292   1.141  12.479 -0.2796  0.8684 -2.1753
 9808TIP3    H250916   4.278   1.014  12.398  0.0396 -1.7877  1.6248
 9809TIP3   OH250917   5.802   1.270   1.547  0.1730  0.1679 -1.1350
 9809TIP3    H150918   5.891   1.250   1.517  0.5518  0.2464 -0.1020
 9809TIP3    H250919   5.765   1.324   1.477  0.7206 -0.3522 -1.8501
 9810TIP3   OH250920   2.954   2.673   1.600 -0.2361 -0.7030  0.5979
 9810TIP3    H150921   2.868   2.692   1.638  0.5541 -0.0645  2.1801
 9810TIP3    H250922   3.016   2.709   1.663  1.1886  0.1592 -1.2031
 9811TIP3   OH250923   4.517   3.970   5.918 -0.2801 -0.0514  0.7040
 9811TIP3    H150924   4.477   3.883   5.922 -0.2649 -0.1709 -0.9963
 9811TIP3    H250925   4.574   3.966   5.840  0.8759  1.0063  1.4573
 9812TIP3   OH250926   3.421   3.180   1.599 -0.4034  0.2646 -0.2811
 9812TIP3    H150927   3.509   3.167   1.635 -0.6775  2.5274  1.4438
 9812TIP3    H250928   3.366   3.194   1.675 -1.5458  2.5767 -1.4358
 9813TIP3   OH250929   0.847   3.572   0.565  0.1553 -0.1469  0.4448
 9813TIP3    H150930   0.935   3.598   0.591 -0.1646 -0.3579  1.8049
 9813TIP3    H250931   0.859   3.521   0.485  1.3767 -1.0882  1.2056
 9814TIP3   OH250932   6.154   6.604   2.578  0.0651  0.2214  0.6405
 9814TIP3    H150933   6.079   6.547   2.566  1.6169 -1.9686  0.6674
 9814TIP3    H250934   6.174   6.599   2.672  1.3682 -0.8085  0.3395
 9815TIP3   OH250935   4.094   3.449   1.798 -0.3674  0.0098 -0.1049
 9815TIP3    H150936   4.154   3.514   1.760  0.6143  1.6635  3.7224
 9815TIP3    H250937   4.031   3.501   1.848 -3.5944 -1.8374 -1.9166
 9816TIP3   OH250938   2.293   2.549  16.751 -0.3674 -0.0970  0.0607
 9816TIP3    H150939   2.355   2.487  16.789 -0.4736 -0.1446  0.1554
 9816TIP3    H250940   2.343   2.630  16.742  0.3614 -0.7041 -1.8586
 9817TIP3   OH250941   5.374   4.198   3.226  0.2382 -0.0950  0.1203
 9817TIP3    H150942   5.413   4.114   3.202 -1.4169 -0.6679 -0.6882
 9817TIP3    H250943   5.378   4.249   3.145  2.1474  1.0353  0.8508
 9818TIP3   OH250944   3.620   3.181   4.510 -0.7025 -0.1587  0.2796
 9818TIP3    H150945   3.711   3.151   4.510 -0.9120 -0.8935 -1.2747
 9818TIP3    H250946   3.624   3.269   4.473 -0.7460 -0.7228 -1.1254
 9819TIP3   OH250947   2.241   2.090  14.574  0.7366 -0.2721 -0.1269
 9819TIP3    H150948   2.243   2.060  14.665 -0.2487 -2.8183 -0.8438
 9819TIP3    H250949   2.331   2.116  14.555  1.1118 -0.4000  1.3692
 9820TIP3   OH250950   1.004   1.091  15.348  0.1368  0.5787 -0.2882
 9820TIP3    H150951   1.052   1.096  15.265 -1.3082  0.0569 -1.2021
 9820TIP3    H250952   1.029   1.007  15.385  0.0209  0.3552 -0.7077
 9821TIP3   OH250953   2.729   3.919  11.495  0.3680  0.2655  0.2608
 9821TIP3    H150954   2.660   3.857  11.471  0.2624 -0.6362  2.6348
 9821TIP3    H250955   2.683   4.003  11.503  0.1941  0.3561 -1.3016
 9822TIP3   OH250956   1.584   3.462  12.751  0.3082 -0.3241 -0.2280
 9822TIP3    H150957   1.495   3.460  12.787  0.2714 -1.7448 -0.3436
 9822TIP3    H250958   1.637   3.416  12.816  1.7010  3.3764  1.5660
 9823TIP3   OH250959   0.560   6.542   9.971 -0.1469  0.3923 -0.4471
 9823TIP3    H150960   0.575   6.637   9.963 -0.4661  0.4613 -0.2414
 9823TIP3    H250961   0.471   6.535  10.005 -0.0623  0.0176 -0.3059
 9824TIP3   OH250962   1.966   6.774  16.843  0.3578 -0.0788  0.2118
 9824TIP3    H150963   1.945   6.700  16.787  0.3130 -0.6076  0.9199
 9824TIP3    H250964   2.011   6.736  16.918  0.6319  0.6461  0.4246
 9825TIP3   OH250965   5.366   4.186  12.771 -0.4067  0.3582  0.1238
 9825TIP3    H150966   5.274   4.211  12.763 -1.1853 -1.8636  1.4397
 9825TIP3    H250967   5.366   4.091  12.767  1.8292  0.2945  0.4498
 9826TIP3   OH250968   5.838   5.063   3.107  0.3422  0.2964 -0.0808
 9826TIP3    H150969   5.821   5.130   3.041  0.0095  0.1962 -0.0996
 9826TIP3    H250970   5.921   5.089   3.148  1.0095 -0.1073 -1.1293
 9827TIP3   OH250971   2.616   3.495   4.084  0.1009 -0.2892  0.6759
 9827TIP3    H150972   2.637   3.545   4.006 -1.7244  0.1500  0.4260
 9827TIP3    H250973   2.693   3.504   4.140  0.8518  0.5911 -0.4627
 9828TIP3   OH250974   1.764   3.392   2.981  0.0351  0.3779 -0.4031
 9828TIP3    H150975   1.789   3.336   2.907 -0.6880 -2.2281  1.1884
 9828TIP3    H250976   1.717   3.465   2.941  1.4424  0.1494 -2.6374
 9829TIP3   OH250977   3.243   1.353   5.093 -0.6703 -0.6686 -0.1681
 9829TIP3    H150978   3.177   1.307   5.043 -0.2400 -0.5751 -0.8372
 9829TIP3    H250979   3.325   1.308   5.072 -0.3588 -0.0834 -0.2220
 9830TIP3   OH250980   5.512   5.190   2.872  0.5837  0.5562  0.4935
 9830TIP3    H150981   5.485   5.281   2.882 -0.9946  0.1464  0.1158
 9830TIP3    H250982   5.457   5.141   2.932 -1.4027 -0.6043 -2.0711
 9831TIP3   OH250983   2.857   3.543   1.174 -0.2004  0.1983  0.6432
 9831TIP3    H150984   2.884   3.616   1.118  1.6716 -0.4101  0.6659
 9831TIP3    H250985   2.762   3.538   1.165 -0.0922  1.0570 -1.2822
 9832TIP3   OH250986   4.319   2.071  12.454 -0.6432  0.3381  0.4436
 9832TIP3    H150987   4.350   2.002  12.514  0.1958  0.7297  0.4696
 9832TIP3    H250988   4.319   2.151  12.507 -0.1620  0.6365 -0.0061
 9833TIP3   OH250989   5.348   1.877   5.530  0.0228  0.5602  0.5109
 9833TIP3    H150990   5.398   1.839   5.603 -0.4701 -1.6603 -0.2249
 9833TIP3    H250991   5.261   1.894   5.566  0.0776  0.4336  0.7023
 9834TIP3   OH250992   0.533   4.256   3.384  0.3456  0.3145  0.2981
 9834TIP3    H150993   0.454   4.307   3.397 -1.7030 -2.4252 -0.5831
 9834TIP3    H250994   0.604   4.314   3.412 -1.9554  2.7410  1.4935
 9835TIP3   OH250995   3.186   1.843   1.312 -0.4865  0.0672  0.5018
 9835TIP3    H150996   3.121   1.902   1.274  1.6670  1.2415 -1.6458
 9835TIP3    H250997   3.181   1.764   1.258 -1.2053 -0.5239  1.3929
 9836TIP3   OH250998   5.458   2.388  13.585 -0.3948 -0.0435 -0.3379
 9836TIP3    H150999   5.532   2.449  13.590 -0.9800  0.6487 -0.0540
 9836TIP3    H251000   5.428   2.380  13.676 -1.1870  0.3265 -0.5622
 9837TIP3   OH251001   2.736   5.154  13.631  0.0121 -0.1956 -0.2001
 9837TIP3    H151002   2.737   5.147  13.727 -1.2586 -0.0244 -0.1482
 9837TIP3    H251003   2.711   5.245  13.614 -0.5580 -0.4314 -0.6731
 9838TIP3   OH251004   1.371   2.975  16.909  0.2364  0.4430  0.1250
 9838TIP3    H151005   1.464   2.995  16.923 -0.1515  2.2324  0.2947
 9838TIP3    H251006   1.328   2.999  16.991 -0.3249 -1.0175  0.3012
 9839TIP3   OH251007   2.160   4.927   0.307  0.0381 -0.5220  0.0518
 9839TIP3    H151008   2.110   4.859   0.353  0.9039 -1.8584 -0.9178
 9839TIP3    H251009   2.221   4.960   0.373 -0.4847 -0.5832  0.5764
 9840TIP3   OH251010   2.009   5.138  12.960 -0.3004  0.2187  0.3185
 9840TIP3    H151011   2.031   5.146  13.052  0.7089  2.9604 -0.0698
 9840TIP3    H251012   2.025   5.046  12.939 -0.8542 -0.5411  2.8948
 9841TIP3   OH251013   0.923   0.752  15.789 -0.0283 -0.4370 -0.1184
 9841TIP3    H151014   0.877   0.682  15.743  0.6028  0.0846 -1.5892
 9841TIP3    H251015   0.879   0.833  15.762 -1.4040 -0.2623  2.3487
 9842TIP3   OH251016   4.677   5.167  10.602 -0.1198 -0.3007  0.6463
 9842TIP3    H151017   4.737   5.218  10.546 -0.8415 -0.5459 -0.3806
 9842TIP3    H251018   4.609   5.229  10.626  0.5678 -0.0013  1.8811
 9843TIP3   OH251019   5.197   0.232   0.362 -0.0536 -0.5409 -0.4665
 9843TIP3    H151020   5.159   0.302   0.309  1.0783 -1.1465 -2.1578
 9843TIP3    H251021   5.130   0.212   0.427 -1.6926 -0.0740 -1.9310
 9844TIP3   OH251022   0.621   6.060  16.079  0.1241 -0.3354 -0.5651
 9844TIP3    H151023   0.702   6.096  16.042  0.6328  0.2534  1.0052
 9844TIP3    H251024   0.652   5.995  16.143 -0.3564  2.4626  2.8147
 9845TIP3   OH251025   2.847   4.842   6.625 -0.2249  0.4949 -0.1131
 9845TIP3    H151026   2.927   4.878   6.663 -0.7894  0.6448  0.9546
 9845TIP3    H251027   2.776   4.890   6.668 -0.9480 -0.8248  0.2193
 9846TIP3   OH251028   1.970   4.072  12.817 -0.3711  0.1029  0.1388
 9846TIP3    H151029   1.982   3.982  12.787  0.8463  0.3411 -0.1536
 9846TIP3    H251030   1.965   4.124  12.737 -1.0919  0.2946  0.3036
 9847TIP3   OH251031   3.523   0.002   1.568 -0.3344 -0.1636 -0.8476
 9847TIP3    H151032   3.513   0.029   1.477 -0.3300  0.0872 -0.7734
 9847TIP3    H251033   3.605   0.042   1.597  0.0044 -0.7855 -0.9315
 9848TIP3   OH251034   5.974   4.541   5.877 -0.1473 -0.0623 -0.4770
 9848TIP3    H151035   5.966   4.494   5.960  2.3844  1.3335  0.6523
 9848TIP3    H251036   5.908   4.610   5.882  0.7616  0.7501  0.9590
 9849TIP3   OH251037   5.283   3.043  12.115  0.0766 -0.2955  0.2943
 9849TIP3    H151038   5.378   3.043  12.118  0.0787 -1.0824  0.3807
 9849TIP3    H251039   5.262   3.051  12.022  0.2908 -3.9118 -0.2019
 9850TIP3   OH251040   3.677   3.851  15.097  0.5642  0.1749  0.9921
 9850TIP3    H151041   3.757   3.809  15.067  1.0785  1.7003  0.1285
 9850TIP3    H251042   3.611   3.781  15.097  1.9810 -1.2435  2.2779
 9851TIP3   OH251043   3.563   5.079  10.568  0.0723  0.5566 -0.5859
 9851TIP3    H151044   3.522   5.147  10.622  0.9964 -0.2365  1.1977
 9851TIP3    H251045   3.633   5.125  10.520 -0.9564  1.3302 -1.3872
 9852TIP3   OH251046   5.512   6.533   4.740 -0.0669  0.0484 -0.8654
 9852TIP3    H151047   5.420   6.538   4.716 -0.8715  0.9384  2.0295
 9852TIP3    H251048   5.518   6.458   4.799  0.4516  1.5795  1.1271
 9853TIP3   OH251049   1.808   3.923   5.935  0.4034 -0.1776  0.7256
 9853TIP3    H151050   1.801   3.991   6.002  0.2875  0.3431  0.1935
 9853TIP3    H251051   1.751   3.953   5.864 -0.4310 -1.3079  0.8713
 9854TIP3   OH251052   0.571   4.819   3.142 -0.3615  0.0976 -0.1132
 9854TIP3    H151053   0.594   4.775   3.060  1.3673 -0.9933  0.9011
 9854TIP3    H251054   0.588   4.911   3.125  1.1975 -0.2518 -0.6252
 9855TIP3   OH251055   2.017   3.029   1.096 -0.2999  0.3549  0.3758
 9855TIP3    H151056   2.027   2.999   1.186  2.1029 -1.0819 -0.2850
 9855TIP3    H251057   1.958   2.965   1.056  0.4072 -0.3154  0.3849
 9856TIP3   OH251058   6.197   2.645  14.534  0.1233  0.0791  0.2051
 9856TIP3    H151059   6.117   2.698  14.530 -0.2652 -0.0935  3.3045
 9856TIP3    H251060   6.193   2.590  14.455 -2.8662  0.0052  0.2917
 9857TIP3   OH251061   2.993   0.314  11.794 -0.0455  0.2979 -0.1252
 9857TIP3    H151062   3.009   0.240  11.853  3.0534  0.5066 -0.5274
 9857TIP3    H251063   2.952   0.380  11.850  0.0267 -0.5942  1.0286
 9858TIP3   OH251064   3.927   6.801   0.800 -0.2035 -0.1873 -0.0605
 9858TIP3    H151065   3.935   6.889   0.835 -0.5443 -0.4982  0.8200
 9858TIP3    H251066   3.834   6.788   0.785 -0.2868 -0.7906  0.8850
 9859TIP3   OH251067   0.191   0.274  12.561  0.5181  0.2076  0.5147
 9859TIP3    H151068   0.274   0.301  12.600 -1.2644  2.5531  3.0536
 9859TIP3    H251069   0.155   0.209  12.621  0.6442 -1.0796 -0.7619
 9860TIP3   OH251070   1.129   0.046  16.593  0.0579  0.0050 -0.1495
 9860TIP3    H151071   1.214   0.058  16.635  0.0703  0.3784 -0.2768
 9860TIP3    H251072   1.148   0.047  16.499  0.0134 -0.6951 -0.1714
 9861TIP3   OH251073   2.744   5.228  13.899 -0.0891 -0.1680 -0.0129
 9861TIP3    H151074   2.701   5.260  13.978  0.5818  0.5543  0.0680
 9861TIP3    H251075   2.831   5.268  13.901 -0.1130 -0.0210 -1.1801
 9862TIP3   OH251076   6.321   0.279  12.263  0.2452  0.5579 -0.0837
 9862TIP3    H151077   6.375   0.284  12.342  0.6473  1.3503 -0.4047
 9862TIP3    H251078   6.309   0.185  12.249  3.4912  0.2165 -1.3267
 9863TIP3   OH251079   0.838   3.016  11.665  0.6729 -0.2746 -0.1377
 9863TIP3    H151080   0.793   2.951  11.610  1.2140 -0.8473  0.0818
 9863TIP3    H251081   0.768   3.075  11.694  0.7882  2.6824 -4.8077
 9864TIP3   OH251082   1.922   0.992   4.586 -0.3273  0.4962 -0.1015
 9864TIP3    H151083   2.000   0.940   4.601 -0.2787  0.5746 -0.0803
 9864TIP3    H251084   1.913   1.046   4.665 -0.5506  0.2993  0.0091
 9865TIP3   OH251085   5.341   5.451   5.266  0.4316  0.2274 -0.3000
 9865TIP3    H151086   5.321   5.362   5.235 -2.5713  1.4574 -2.3225
 9865TIP3    H251087   5.371   5.438   5.356 -2.8938 -2.6916  0.6411
 9866TIP3   OH251088   5.460   4.685  13.991  0.2706  0.2816  0.0353
 9866TIP3    H151089   5.507   4.619  13.941  0.6268 -0.7460  1.6259
 9866TIP3    H251090   5.525   4.721  14.051 -0.6582 -0.3971  1.5263
 9867TIP3   OH251091   2.014   1.410  13.979 -0.3194  0.3344 -0.4026
 9867TIP3    H151092   1.981   1.442  14.062  1.2904  0.2006  0.3296
 9867TIP3    H251093   2.040   1.489  13.932  1.7138  0.3032  0.5568
 9868TIP3   OH251094   4.474   5.057  11.932  0.0145  0.0755  0.5504
 9868TIP3    H151095   4.523   4.985  11.971 -1.1629  0.2028  2.3740
 9868TIP3    H251096   4.481   5.043  11.838  0.8721 -1.6742  0.8411
 9869TIP3   OH251097   3.401   0.353  13.281  0.3908 -0.4996  0.3274
 9869TIP3    H151098   3.406   0.310  13.367  0.9482  0.5348  0.8272
 9869TIP3    H251099   3.417   0.282  13.218 -4.1634 -2.2478  0.7378
 9870TIP3   OH251100   3.553   5.504   0.011 -0.4124 -0.7076 -0.1833
 9870TIP3    H151101   3.459   5.490   0.025 -0.2413 -2.1227 -0.3070
 9870TIP3    H251102   3.570   5.591   0.048 -1.9152 -0.0640 -0.9102
 9871TIP3   OH251103   4.859   4.094   5.807 -0.6478  0.5800 -0.0923
 9871TIP3    H151104   4.933   4.104   5.748  0.9751  1.5892  2.0057
 9871TIP3    H251105   4.817   4.181   5.808 -2.1902 -0.0809 -1.5711
 9872TIP3   OH251106   3.268   4.263  15.101  0.1769  0.1452 -0.0365
 9872TIP3    H151107   3.184   4.218  15.109 -1.5176  3.0477 -0.1069
 9872TIP3    H251108   3.323   4.224  15.168 -1.9971 -0.3116  1.5781
 9873TIP3   OH251109   5.758   3.785   0.353 -0.3352 -0.5845  0.4555
 9873TIP3    H151110   5.699   3.741   0.414  0.4270  0.1335  1.7760
 9873TIP3    H251111   5.817   3.716   0.323 -0.8803 -0.9981  0.3230
 9874TIP3   OH251112   2.639   4.876  12.059  0.3031 -0.4117  0.0815
 9874TIP3    H151113   2.580   4.848  12.129 -0.3199 -0.2703 -0.3749
 9874TIP3    H251114   2.709   4.923  12.104  0.1927 -0.7898  0.6544
 9875TIP3   OH251115   4.984   1.496   0.716  0.6019 -0.2032 -0.1399
 9875TIP3    H151116   5.016   1.420   0.668 -0.7699 -1.1406  0.3676
 9875TIP3    H251117   4.929   1.460   0.785 -0.1642  1.2396  0.0528
 9876TIP3   OH251118   2.794   4.624  13.721  0.2833  0.1365 -0.2868
 9876TIP3    H151119   2.729   4.609  13.651  0.8110 -0.8764 -0.5834
 9876TIP3    H251120   2.873   4.650  13.674  0.1789  1.1240  0.0616
 9877TIP3   OH251121   2.194   6.570  13.899 -0.1462  0.0103 -0.9005
 9877TIP3    H151122   2.197   6.532  13.987 -4.0538  1.4053  0.0378
 9877TIP3    H251123   2.221   6.661  13.912 -1.0773  0.3125 -1.0693
 9878TIP3   OH251124   4.647   1.020   4.359 -0.3162  0.6558 -0.7503
 9878TIP3    H151125   4.578   0.960   4.385  0.0671 -0.3251 -1.9473
 9878TIP3    H251126   4.604   1.083   4.301 -0.9589  2.2674  1.3421
 9879TIP3   OH251127   1.363   1.322   3.703 -0.0206  0.4149  0.8936
 9879TIP3    H151128   1.327   1.304   3.616  0.1450 -1.1457  1.1151
 9879TIP3    H251129   1.298   1.379   3.745 -0.5420  0.4345  0.0832
 9880TIP3   OH251130   5.344   6.541   3.185 -0.6280 -0.2203  0.0677
 9880TIP3    H151131   5.405   6.614   3.176  0.4770 -1.1679 -0.3627
 9880TIP3    H251132   5.355   6.512   3.276  0.7807 -1.3692 -0.4114
 9881TIP3   OH251133   2.052   2.098  14.277  0.2380  0.1554 -0.1166
 9881TIP3    H151134   2.015   2.043  14.346  1.9743 -2.0199 -0.8146
 9881TIP3    H251135   2.083   2.036  14.211  3.7592  1.8297 -0.2449
 9882TIP3   OH251136   1.636   6.691   2.789 -0.0116  0.3250 -0.2161
 9882TIP3    H151137   1.704   6.706   2.855  0.0527 -0.9083  0.0244
 9882TIP3    H251138   1.674   6.626   2.730 -0.3338  0.9104 -1.0886
 9883TIP3   OH251139   0.209   4.525  10.939 -0.4243 -0.2056  0.4345
 9883TIP3    H151140   0.114   4.529  10.945 -0.5902 -1.9664 -0.4613
 9883TIP3    H251141   0.230   4.567  10.855 -0.3312  0.7992  0.9465
 9884TIP3   OH251142   4.678   4.704  16.852 -0.1439  0.3222 -0.1489
 9884TIP3    H151143   4.596   4.666  16.884 -0.1903  0.8743  0.4195
 9884TIP3    H251144   4.744   4.676  16.916  0.6770 -2.3685 -2.0114
 9885TIP3   OH251145   3.529   5.831  16.566 -0.0354  0.1566 -0.2981
 9885TIP3    H151146   3.524   5.848  16.661  0.3832  2.4606 -0.6202
 9885TIP3    H251147   3.457   5.771  16.549 -1.1412  0.9546  1.2662
 9886TIP3   OH251148   6.345   6.141  13.430 -0.5434  0.3193 -0.2036
 9886TIP3    H151149   6.400   6.193  13.489  0.3168 -1.3346  0.5451
 9886TIP3    H251150   6.279   6.102  13.487 -0.0527 -0.8413 -0.3975
 9887TIP3   OH251151   0.344   4.611  13.927  0.0516  0.3609  0.9247
 9887TIP3    H151152   0.411   4.583  13.863  0.0834 -1.6597  1.7548
 9887TIP3    H251153   0.287   4.669  13.877  0.7124 -0.2650 -0.6599
 9888TIP3   OH251154   3.720   5.855  16.220 -0.0072  0.4362  0.6787
 9888TIP3    H151155   3.695   5.848  16.128 -0.6242  2.4023  0.6565
 9888TIP3    H251156   3.675   5.782  16.263  0.0943 -0.3625 -0.5245
 9889TIP3   OH251157   1.959   6.141  11.763  0.3483 -0.4561 -0.3838
 9889TIP3    H151158   1.945   6.181  11.677 -0.0124 -0.0527 -0.1359
 9889TIP3    H251159   1.995   6.054  11.743  1.4169  0.0913 -0.9096
 9890TIP3   OH251160   2.213   5.387  16.646 -0.0321  0.4714 -0.1329
 9890TIP3    H151161   2.286   5.420  16.698  0.0437  1.2585 -0.7175
 9890TIP3    H251162   2.141   5.448  16.663 -0.1385  0.4861 -0.6239
 9891TIP3   OH251163   0.653   0.862   2.460  0.1741 -0.2096  0.4373
 9891TIP3    H151164   0.607   0.935   2.501 -0.5885 -0.7879  0.6231
 9891TIP3    H251165   0.587   0.817   2.408  0.9905  0.1463 -0.9728
 9892TIP3   OH251166   5.538   6.086  12.222 -0.2382 -0.1547  0.2342
 9892TIP3    H151167   5.471   6.030  12.183 -1.1526  0.9355  0.1814
 9892TIP3    H251168   5.582   6.030  12.286 -2.6261 -0.3480  1.8244
 9893TIP3   OH251169   6.687   1.021  11.959 -0.5823  0.3141 -0.2273
 9893TIP3    H151170   6.718   1.023  11.868 -0.0514  0.9727 -0.0434
 9893TIP3    H251171   6.697   1.111  11.989 -0.4691  0.0367  0.5750
 9894TIP3   OH251172   6.355   4.665   3.650  0.0147  0.2246  0.1698
 9894TIP3    H151173   6.300   4.594   3.686 -0.4663  1.3883  1.8602
 9894TIP3    H251174   6.444   4.633   3.660 -0.2349 -0.6847 -0.3342
 9895TIP3   OH251175   6.724   5.074   4.816 -0.2203  0.5595  0.2914
 9895TIP3    H151176   6.818   5.062   4.800  0.0803  1.5216  1.2100
 9895TIP3    H251177   6.682   5.045   4.735  0.9158  0.8498 -0.4273
 9896TIP3   OH251178   4.980   5.600   0.097 -0.4447  0.1385 -0.3284
 9896TIP3    H151179   4.990   5.635   0.009 -0.5290 -1.0580 -0.8360
 9896TIP3    H251180   4.961   5.676   0.152 -2.2007  0.6740 -1.6253
 9897TIP3   OH251181   0.172   5.350   0.001  0.4042  1.0666 -0.0537
 9897TIP3    H151182   0.218   5.274  -0.035  0.4647  0.7218  0.7229
 9897TIP3    H251183   0.158   5.408  -0.074 -1.1843 -0.4768 -1.0192
 9898TIP3   OH251184   2.906   5.688  15.400 -0.0073  0.5810 -0.2602
 9898TIP3    H151185   2.848   5.617  15.426  0.8061 -0.2133 -0.5549
 9898TIP3    H251186   2.952   5.713  15.480  0.5661 -0.0427 -0.3908
 9899TIP3   OH251187   1.796   1.466   3.450 -0.1078 -0.3471  0.4603
 9899TIP3    H151188   1.787   1.473   3.355 -1.8346 -3.3895  0.2473
 9899TIP3    H251189   1.878   1.417   3.462  0.3927  0.5051  0.6097
 9900TIP3   OH251190   6.663   0.806   0.885  0.1495  0.4135 -0.2132
 9900TIP3    H151191   6.743   0.848   0.916 -0.6852 -0.1085  2.9851
 9900TIP3    H251192   6.593   0.862   0.918 -0.8573 -0.8094 -0.2191
 9901TIP3   OH251193   1.170   6.615   2.549  0.5790  0.1438 -0.3835
 9901TIP3    H151194   1.201   6.687   2.493 -4.6598  0.0447 -4.1708
 9901TIP3    H251195   1.094   6.652   2.595 -0.3996 -2.1248 -0.0661
 9902TIP3   OH251196   0.009   4.019   5.308  0.3335 -0.1099 -0.1145
 9902TIP3    H151197   0.018   4.112   5.290 -0.9278  0.0090 -0.2506
 9902TIP3    H251198  -0.065   4.013   5.369  0.8874 -0.9672  0.5139
 9903TIP3   OH251199   2.409   1.204   1.336 -0.3576 -0.2445 -0.0477
 9903TIP3    H151200   2.504   1.206   1.328 -0.2830 -1.2395  0.4605
 9903TIP3    H251201   2.386   1.290   1.370  0.3721 -0.0470 -0.0289
 9904TIP3   OH251202   2.151   1.298  13.093  0.8146  0.4366 -0.2496
 9904TIP3    H151203   2.148   1.366  13.025 -0.5660 -0.5083 -1.1775
 9904TIP3    H251204   2.147   1.347  13.175  0.8261  1.5258 -0.8706
 9905TIP3   OH251205   3.431   5.896   2.300  0.0970  0.2180  0.0997
 9905TIP3    H151206   3.378   5.817   2.308  0.3396  0.1272  0.8513
 9905TIP3    H251207   3.371   5.961   2.262 -0.8798  0.4024  1.8614
 9906TIP3   OH251208   5.881   3.460   3.050  0.4813 -0.2616  0.1595
 9906TIP3    H151209   5.830   3.457   3.131  0.8865  0.6925  0.4710
 9906TIP3    H251210   5.818   3.439   2.981 -0.3031  0.6672  0.5543
 9907TIP3   OH251211   4.054   4.333   3.438  0.2809 -0.1199 -1.0196
 9907TIP3    H151212   4.003   4.259   3.405 -0.3258  0.1193 -0.6319
 9907TIP3    H251213   4.034   4.404   3.378  0.0324  0.0201 -0.7685
 9908TIP3   OH251214   5.354   3.256   0.881 -0.3758 -0.0301 -0.4108
 9908TIP3    H151215   5.314   3.299   0.806 -2.9474 -0.1826  0.7780
 9908TIP3    H251216   5.285   3.253   0.948  0.7536 -2.8483  0.8063
 9909TIP3   OH251217   4.181   3.111  14.536  0.3259 -0.2830 -0.2612
 9909TIP3    H151218   4.125   3.057  14.591 -0.3613 -0.2705 -0.9382
 9909TIP3    H251219   4.269   3.100  14.572 -0.0405 -0.6854  0.5064
 9910TIP3   OH251220   5.268   2.700   3.836  0.7595 -0.6270  0.3559
 9910TIP3    H151221   5.194   2.744   3.795 -0.0272 -1.9614  0.3124
 9910TIP3    H251222   5.326   2.678   3.763  0.8435 -0.2488  0.3073
 9911TIP3   OH251223   0.894   6.605   4.755  0.1236 -0.2028  0.3442
 9911TIP3    H151224   0.970   6.615   4.812  0.4643 -0.2701 -0.0887
 9911TIP3    H251225   0.868   6.694   4.733 -0.1280 -0.1724  0.7568
 9912TIP3   OH251226   1.870   0.530  11.769 -0.3930 -0.2408  0.3121
 9912TIP3    H151227   1.831   0.572  11.846  1.2360  0.8408  0.6187
 9912TIP3    H251228   1.862   0.437  11.786  0.9769 -0.0674  2.4551
 9913TIP3   OH251229   3.388   1.646   2.835 -0.3212  0.1004  0.7044
 9913TIP3    H151230   3.398   1.603   2.749  2.0528  0.0121  0.9451
 9913TIP3    H251231   3.471   1.628   2.879 -0.6830  1.9376  2.2145
 9914TIP3   OH251232   1.780   1.274  13.862  0.3531  0.2825  0.6449
 9914TIP3    H151233   1.845   1.307  13.924 -1.4073  0.8175  2.3041
 9914TIP3    H251234   1.702   1.256  13.915 -0.6262 -1.1132 -1.1236
 9915TIP3   OH251235   2.937   5.355   0.487  1.2325 -0.0194  0.2305
 9915TIP3    H151236   3.006   5.338   0.423  0.6060 -1.5217 -0.0801
 9915TIP3    H251237   2.883   5.423   0.447  1.8852  0.3524 -0.0237
 9916TIP3   OH251238   5.183   2.907  15.249  0.2611 -0.1105  0.2838
 9916TIP3    H151239   5.098   2.880  15.285  0.2715 -0.1156  0.3053
 9916TIP3    H251240   5.214   2.974  15.311 -0.6845  1.4330 -0.8321
 9917TIP3   OH251241   5.227   1.661  16.014  0.2476 -0.5421 -0.8548
 9917TIP3    H151242   5.301   1.696  15.964  1.2627  2.6458  2.4353
 9917TIP3    H251243   5.258   1.579  16.050  1.6654  0.0062 -0.7586
 9918TIP3   OH251244   3.824   1.413  15.079 -0.5012 -0.4236  0.1561
 9918TIP3    H151245   3.862   1.326  15.068 -0.1841 -0.5436  1.8982
 9918TIP3    H251246   3.871   1.468  15.017  1.8043 -0.8047  1.4541
 9919TIP3   OH251247   0.604   6.756  10.986  0.7753  0.6139 -0.0362
 9919TIP3    H151248   0.553   6.675  10.985  0.4081  0.8347  0.3442
 9919TIP3    H251249   0.583   6.796  11.070 -1.7873  2.8045 -1.5274
 9920TIP3   OH251250   4.077   2.663  13.866  0.4554  0.0650  0.3712
 9920TIP3    H151251   4.001   2.638  13.813  1.3292  2.3749 -2.2333
 9920TIP3    H251252   4.145   2.601  13.841 -0.1252 -1.1632  1.6945
 9921TIP3   OH251253   2.213   1.902   2.637  0.8888  0.2159  0.2953
 9921TIP3    H151254   2.286   1.845   2.613 -1.1056 -1.6395 -1.9972
 9921TIP3    H251255   2.230   1.984   2.591  2.5752  0.6571  1.6136
 9922TIP3   OH251256   0.691   2.680  11.365 -0.1434  0.0262  0.4723
 9922TIP3    H151257   0.723   2.598  11.402  1.3477 -0.3183 -1.4019
 9922TIP3    H251258   0.626   2.654  11.300  1.0451  0.2084 -0.8328
 9923TIP3   OH251259   0.098   0.204   1.859 -0.3399 -0.0111  0.6354
 9923TIP3    H151260   0.180   0.181   1.816 -0.8348 -0.8354  0.1109
 9923TIP3    H251261   0.098   0.300   1.862  0.0047  0.0434 -0.6162
 9924TIP3   OH251262   5.958   1.564   1.101  0.0942  0.0520 -0.0680
 9924TIP3    H151263   6.035   1.534   1.148 -0.0196 -0.4426 -0.1942
 9924TIP3    H251264   5.992   1.600   1.019  0.3497  1.4660  0.6285
 9925TIP3   OH251265   1.881   3.102  13.220 -0.0842 -0.8137  0.4823
 9925TIP3    H151266   1.948   3.113  13.288  2.3788 -1.2227 -1.7312
 9925TIP3    H251267   1.929   3.109  13.137 -2.2878 -3.7060 -1.2528
 9926TIP3   OH251268   6.290   3.916  16.222  0.4098  0.6354 -0.1172
 9926TIP3    H151269   6.370   3.882  16.183  0.7026  0.4344  0.6480
 9926TIP3    H251270   6.239   3.838  16.245 -0.1463  0.7615 -0.8569
 9927TIP3   OH251271   2.823   6.733   3.486  1.0220  0.0452 -0.1096
 9927TIP3    H151272   2.806   6.639   3.496 -0.4694  0.3920  1.0031
 9927TIP3    H251273   2.777   6.757   3.406  0.8191 -0.0404 -0.0189
 9928TIP3   OH251274   6.801   4.602  14.552 -0.2254  0.3853  0.4463
 9928TIP3    H151275   6.891   4.576  14.530 -0.2764 -0.0403  0.7286
 9928TIP3    H251276   6.751   4.584  14.473 -0.0320  0.8036  0.2226
 9929TIP3   OH251277   5.590   0.263  16.295  0.1700 -0.2685 -0.1804
 9929TIP3    H151278   5.594   0.358  16.289 -0.6828 -0.2805 -1.0599
 9929TIP3    H251279   5.676   0.238  16.330  0.9732  0.7040 -1.3699
 9930TIP3   OH251280   5.556   5.661  11.783  0.3399  0.3580  0.1344
 9930TIP3    H151281   5.650   5.640  11.783  0.8662  2.4471 -0.3722
 9930TIP3    H251282   5.541   5.700  11.869 -0.0178  0.2107  0.1371
 9931TIP3   OH251283   2.607   2.832   0.823 -0.4969 -0.2950  0.1319
 9931TIP3    H151284   2.521   2.806   0.790  0.7170 -0.7550 -2.9682
 9931TIP3    H251285   2.611   2.926   0.808 -0.1619 -0.4082 -0.5047
 9932TIP3   OH251286   0.565   3.201  15.139 -0.3704 -0.4470 -0.0496
 9932TIP3    H151287   0.487   3.147  15.128 -1.2668  0.4180  1.5540
 9932TIP3    H251288   0.637   3.147  15.109 -1.5282 -1.4972 -1.0121
 9933TIP3   OH251289   4.155   1.839   3.250  0.0863 -0.1192  0.6433
 9933TIP3    H151290   4.069   1.856   3.210 -0.1508 -2.3362  0.0706
 9933TIP3    H251291   4.134   1.801   3.335  0.5815  2.2810  1.9131
 9934TIP3   OH251292   0.082   5.619   4.881  0.3439  0.1568  0.9620
 9934TIP3    H151293   0.028   5.668   4.820 -0.6525 -1.1080  0.7868
 9934TIP3    H251294   0.040   5.533   4.888  0.5912  0.1378  3.1770
 9935TIP3   OH251295   3.099   0.961  11.506  0.1101  0.6154 -0.1269
 9935TIP3    H151296   3.145   1.027  11.454  0.3949  1.3539  1.0204
 9935TIP3    H251297   3.139   0.878  11.482  2.7704  1.3135  1.5265
 9936TIP3   OH251298   3.939   0.775   5.112  0.3205  0.2489 -0.3742
 9936TIP3    H151299   3.967   0.863   5.087  1.9293 -0.0708  0.2152
 9936TIP3    H251300   4.015   0.737   5.155 -1.3257 -0.3134  2.2753
 9937TIP3   OH251301   0.987   2.441  16.092  0.2896 -0.2326  0.3595
 9937TIP3    H151302   1.058   2.474  16.147  0.7836 -1.3773  0.4371
 9937TIP3    H251303   1.013   2.465  16.003  0.5271 -0.2039  0.4339
 9938TIP3   OH251304   3.346   5.872   4.094  0.1590 -0.1844  0.2435
 9938TIP3    H151305   3.260   5.913   4.108 -0.1071 -0.7184  0.2157
 9938TIP3    H251306   3.334   5.819   4.014  0.6115  0.0015  0.0503
 9939TIP3   OH251307   5.297   4.771   6.761 -0.4299  0.4439 -0.4188
 9939TIP3    H151308   5.202   4.760   6.763 -0.5050  1.0911  0.8536
 9939TIP3    H251309   5.316   4.828   6.835  0.7901  1.7432 -1.6624
 9940TIP3   OH251310   5.186   1.467   1.101  0.4297 -0.3796  0.0211
 9940TIP3    H151311   5.142   1.551   1.109  0.4224 -0.5005  1.3483
 9940TIP3    H251312   5.234   1.456   1.182  1.7511 -0.9280 -0.7993
 9941TIP3   OH251313   1.985   6.797   0.579 -0.9127  0.0032  0.1292
 9941TIP3    H151314   2.054   6.861   0.558 -1.0396  0.4264  0.9618
 9941TIP3    H251315   1.955   6.766   0.493  0.8953 -0.8440 -0.2342
 9942TIP3   OH251316   1.865   4.857  17.075 -0.4049  0.5510 -0.0986
 9942TIP3    H151317   1.884   4.773  17.116 -2.0634  0.3020  0.1898
 9942TIP3    H251318   1.949   4.905  17.079  0.6908 -1.2239 -0.6788
 9943TIP3   OH251319   6.184   6.667  15.126  0.0905  0.3154  0.1479
 9943TIP3    H151320   6.263   6.642  15.175  0.2641  2.7835  1.2522
 9943TIP3    H251321   6.118   6.680  15.194 -0.4862  0.9681 -0.5363
 9944TIP3   OH251322   3.451   2.396  12.118  0.1584  0.2304 -0.1165
 9944TIP3    H151323   3.543   2.419  12.117  0.4702 -0.9469 -1.0661
 9944TIP3    H251324   3.443   2.329  12.186  0.0620  0.0983 -0.2570
 9945TIP3   OH251325   6.695   1.380  11.044  0.7875  0.4488 -0.0549
 9945TIP3    H151326   6.635   1.312  11.073  0.7879  0.7643  0.6935
 9945TIP3    H251327   6.693   1.446  11.113 -0.5520  2.0667 -1.5524
 9946TIP3   OH251328   3.279   2.036  13.020  0.2470 -0.1484  0.3596
 9946TIP3    H151329   3.361   1.988  13.006  0.6845  0.4248  0.9328
 9946TIP3    H251330   3.225   1.976  13.072 -0.3069 -1.1466 -1.2876
 9947TIP3   OH251331   4.871   4.823   5.780  0.1623  0.0509  0.7376
 9947TIP3    H151332   4.905   4.797   5.695 -0.9384  0.3900  0.1743
 9947TIP3    H251333   4.827   4.744   5.813 -1.9199  0.7046 -0.3262
 9948TIP3   OH251334   3.226   1.387  13.822 -0.3298 -0.0264 -0.1124
 9948TIP3    H151335   3.269   1.326  13.762  0.1196 -2.5268  2.5168
 9948TIP3    H251336   3.160   1.333  13.867 -1.0349  1.8548  1.2322
 9949TIP3   OH251337   3.700   0.376  15.790 -0.3816 -0.3531  0.1692
 9949TIP3    H151338   3.658   0.298  15.827  0.3497 -0.9537 -0.2391
 9949TIP3    H251339   3.734   0.423  15.866  1.3912 -1.7431  0.3223
 9950TIP3   OH251340   6.407   5.878  13.774 -0.2473  0.0539 -0.3671
 9950TIP3    H151341   6.413   5.969  13.800 -1.4207 -0.1325  0.6759
 9950TIP3    H251342   6.445   5.875  13.686  1.5210  1.1810  0.3230
 9951TIP3   OH251343   0.053   6.790   5.658 -0.2163 -0.3455  0.4013
 9951TIP3    H151344   0.062   6.696   5.672 -1.7989 -0.4464  0.8729
 9951TIP3    H251345   0.056   6.801   5.563  2.0270 -0.6055  0.3895
 9952TIP3   OH251346   5.895   1.928   1.279 -0.2378 -0.1813 -0.3516
 9952TIP3    H151347   5.917   1.837   1.263 -0.2178 -0.1370 -0.5804
 9952TIP3    H251348   5.971   1.977   1.249 -0.6350 -0.0285 -1.1433
 9953TIP3   OH251349   1.040   5.858  13.771  0.6229  0.1311  0.2697
 9953TIP3    H151350   0.984   5.842  13.847  1.9682 -0.9990  1.0743
 9953TIP3    H251351   1.089   5.937  13.793  0.2002  0.4529  0.0703
 9954TIP3   OH251352   0.759   6.181   1.430 -0.2056  0.0385 -0.8042
 9954TIP3    H151353   0.843   6.169   1.386  0.0814 -1.6790  0.1306
 9954TIP3    H251354   0.695   6.187   1.358  0.3481 -1.7940 -1.4994
 9955TIP3   OH251355   3.642   0.373  11.721  0.2574  0.1716  0.1181
 9955TIP3    H151356   3.652   0.397  11.813 -3.0657 -0.7593  0.8753
 9955TIP3    H251357   3.608   0.283  11.724  0.0786  0.1315 -2.0024
 9956TIP3   OH251358   2.498   6.060  15.346  0.4984 -0.0137 -0.2688
 9956TIP3    H151359   2.423   6.061  15.287  0.1673  0.4170  0.1583
 9956TIP3    H251360   2.567   6.105  15.297  0.9911 -1.7945 -1.3024
 9957TIP3   OH251361   6.140   1.638  17.050  0.0657 -0.2125 -0.0794
 9957TIP3    H151362   6.049   1.615  17.035 -0.2747 -0.0390  1.5878
 9957TIP3    H251363   6.167   1.682  16.969 -0.6007 -2.2953 -1.5040
 9958TIP3   OH251364   2.689   4.286   3.884 -0.0482  0.0979 -0.1893
 9958TIP3    H151365   2.618   4.341   3.850 -0.8190 -0.3492  0.6459
 9958TIP3    H251366   2.654   4.197   3.878  0.6427 -0.1725 -0.2286
 9959TIP3   OH251367   6.633   4.654  15.762 -0.4722 -0.0673  0.0404
 9959TIP3    H151368   6.665   4.610  15.683  1.4370  0.5971  0.3894
 9959TIP3    H251369   6.706   4.648  15.824 -0.8492  1.9602  0.7395
 9960TIP3   OH251370   5.326   1.742   4.596  0.4565  0.8487  0.3315
 9960TIP3    H151371   5.411   1.781   4.574 -0.2826  2.8702  0.8098
 9960TIP3    H251372   5.263   1.802   4.557 -0.7670 -0.2864  0.5291
 9961TIP3   OH251373   3.572   2.551  10.760 -0.1019 -0.1562 -0.5317
 9961TIP3    H151374   3.617   2.475  10.797 -0.3790  0.4465  1.1522
 9961TIP3    H251375   3.480   2.526  10.759  0.0065 -0.5821 -1.9331
 9962TIP3   OH251376   3.619   6.552   2.154 -0.2625  0.1607  0.3832
 9962TIP3    H151377   3.682   6.588   2.092  0.6369  1.7368  2.0964
 9962TIP3    H251378   3.533   6.582   2.122 -0.1941 -1.7909 -1.8296
 9963TIP3   OH251379   2.551   5.013   5.405  0.4083 -0.0302  0.5280
 9963TIP3    H151380   2.527   4.990   5.315  0.5483 -0.5897  0.6307
 9963TIP3    H251381   2.610   4.943   5.432 -1.2018 -0.9746  1.7571
 9964TIP3   OH251382   4.748   0.380   3.228 -0.3238  0.5695 -0.0366
 9964TIP3    H151383   4.813   0.309   3.224 -2.2704 -1.3862  0.7399
 9964TIP3    H251384   4.692   0.365   3.152  0.6591  2.8787 -1.3102
 9965TIP3   OH251385   4.857   4.870  14.450  0.6378 -0.3904 -0.1112
 9965TIP3    H151386   4.766   4.852  14.425  0.4886  1.2431 -0.8987
 9965TIP3    H251387   4.906   4.795  14.417 -0.3175 -0.9404 -0.3391
 9966TIP3   OH251388   2.752   2.665  14.151  0.0993  0.1059  0.6620
 9966TIP3    H151389   2.783   2.743  14.105 -1.2483 -0.6636 -1.7027
 9966TIP3    H251390   2.671   2.694  14.194  0.4920  0.4109  1.2110
 9967TIP3   OH251391   6.612   6.571   0.093 -0.8408 -0.0272 -0.1944
 9967TIP3    H151392   6.673   6.552   0.165 -0.6323  1.0356 -0.0633
 9967TIP3    H251393   6.645   6.520   0.020  0.1195  0.3707 -0.0654
 9968TIP3   OH251394   5.854   6.094   2.026 -0.1394  0.5423  0.4951
 9968TIP3    H151395   5.830   6.044   2.104  0.7889  1.6939  1.5649
 9968TIP3    H251396   5.864   6.184   2.058 -0.3465  1.1580 -1.0875
 9969TIP3   OH251397   5.005   5.405   5.980  0.2257  0.0468  0.1988
 9969TIP3    H151398   5.033   5.387   5.891  0.4348 -1.5868  0.5642
 9969TIP3    H251399   5.069   5.360   6.035  0.6507  1.8318  1.2126
 9970TIP3   OH251400   5.129   0.305  15.914 -0.1054  0.0632 -0.4437
 9970TIP3    H151401   5.074   0.285  15.838 -1.5071 -0.6979  0.7092
 9970TIP3    H251402   5.210   0.257  15.899  0.0782  0.7763 -1.9371
 9971TIP3   OH251403   1.472   0.617  10.625  0.8955  0.1653 -0.0443
 9971TIP3    H151404   1.479   0.708  10.596 -1.0245  0.2131 -0.5355
 9971TIP3    H251405   1.498   0.566  10.549  0.9496  0.3168 -0.1279
 9972TIP3   OH251406   1.971   6.183  14.484 -0.1650  0.7695 -0.1213
 9972TIP3    H151407   1.949   6.102  14.440  0.1334  0.4621  0.2812
 9972TIP3    H251408   2.065   6.175  14.503 -0.3626  0.7245  0.8937
 9973TIP3   OH251409   2.763   3.008  15.934  1.0350  0.1861 -0.3421
 9973TIP3    H151410   2.794   3.098  15.947 -1.0144  0.9168 -0.0805
 9973TIP3    H251411   2.709   3.013  15.854  1.2561 -0.9240 -0.5787
 9974TIP3   OH251412   6.828   3.429  15.147 -0.1535  1.0070 -0.4573
 9974TIP3    H151413   6.900   3.366  15.144 -0.3500  0.7403  0.2702
 9974TIP3    H251414   6.776   3.409  15.069  0.6492  1.3207 -1.0891
 9975TIP3   OH251415   5.180   3.722   4.549 -0.4267  0.1828 -0.0641
 9975TIP3    H151416   5.186   3.738   4.643 -0.3644 -1.1266  0.1659
 9975TIP3    H251417   5.268   3.742   4.516  0.0351 -0.9684  0.4271
 9976TIP3   OH251418   2.883   2.805   4.095  0.1202  0.2135  0.0352
 9976TIP3    H151419   2.869   2.898   4.116  1.4075  0.4396  0.0076
 9976TIP3    H251420   2.860   2.798   4.003 -2.0604  0.0073  0.5354
 9977TIP3   OH251421   3.437   0.612   0.831  0.1293  0.4281  0.7676
 9977TIP3    H151422   3.521   0.568   0.819 -0.6191 -1.0679  0.7809
 9977TIP3    H251423   3.380   0.544   0.868 -1.0964  1.4037  0.7193
 9978TIP3   OH251424   2.153   0.358   3.490 -0.3596  0.5837 -0.1302
 9978TIP3    H151425   2.182   0.447   3.473  1.5147 -0.2307 -1.5037
 9978TIP3    H251426   2.234   0.308   3.504 -1.3971 -0.7014  1.8759
 9979TIP3   OH251427   4.839   5.272   2.578 -0.7136  0.0864 -0.1665
 9979TIP3    H151428   4.754   5.238   2.606 -2.1291 -0.0705 -4.0654
 9979TIP3    H251429   4.892   5.193   2.564 -0.6298  0.0763  0.1822
 9980TIP3   OH251430   0.197   1.342  15.032 -0.3765 -0.5473  0.0961
 9980TIP3    H151431   0.172   1.417  15.086  2.9743  1.5347 -0.9054
 9980TIP3    H251432   0.120   1.324  14.978 -1.8919  0.9725  1.6215
 9981TIP3   OH251433   6.010   3.175  13.767  0.0504 -0.5295  0.0527
 9981TIP3    H151434   6.104   3.177  13.748 -0.1830  0.5735 -1.0186
 9981TIP3    H251435   5.985   3.267  13.776 -0.8427 -0.8311  0.8500
 9982TIP3   OH251436   6.566   0.791  11.771  0.1885  0.3014 -0.2501
 9982TIP3    H151437   6.625   0.866  11.779 -1.0968  1.2815  0.5258
 9982TIP3    H251438   6.479   0.827  11.791 -0.5392 -1.2900 -0.3895
 9983TIP3   OH251439   5.890   4.901  15.152 -0.2859 -0.6410 -0.0244
 9983TIP3    H151440   5.821   4.968  15.155  0.2964 -0.0589  0.9769
 9983TIP3    H251441   5.946   4.928  15.079 -0.0251  0.0154  0.4031
 9984TIP3   OH251442   4.077   4.562   0.148 -0.1713 -0.1646 -0.2609
 9984TIP3    H151443   4.082   4.582   0.241  1.0110 -0.1488 -0.3171
 9984TIP3    H251444   4.167   4.571   0.116 -0.8923  2.1586 -1.8922
 9985TIP3   OH251445   2.662   5.396  13.539  0.1410  0.3913  0.0474
 9985TIP3    H151446   2.687   5.362  13.453  1.2401  0.5575  0.2967
 9985TIP3    H251447   2.681   5.490  13.535  2.0203  0.0973  1.0929
 9986TIP3   OH251448   5.182   1.835  15.533  0.1312  0.3485 -0.5321
 9986TIP3    H151449   5.190   1.926  15.504 -1.3131  0.4896 -0.5582
 9986TIP3    H251450   5.149   1.842  15.623  0.4397 -0.1633 -0.3722
 9987TIP3   OH251451   2.542   5.623   1.511 -0.1566  0.3045 -0.1068
 9987TIP3    H151452   2.463   5.612   1.563  1.0448  0.3035  1.7850
 9987TIP3    H251453   2.578   5.535   1.503  0.8396  0.5877  1.0228
 9988TIP3   OH251454   2.844   0.098   5.368 -0.2482  0.6663 -0.1180
 9988TIP3    H151455   2.765   0.150   5.382  0.0305  0.9079  0.5815
 9988TIP3    H251456   2.856   0.097   5.273 -0.5938  1.3637 -0.1709
 9989TIP3   OH251457   3.506   0.028  13.369 -0.7998  0.3372 -0.5271
 9989TIP3    H151458   3.489   0.023  13.275 -2.6029 -0.3113 -0.1935
 9989TIP3    H251459   3.595  -0.008  13.379  0.8180  3.4678 -2.2913
 9990TIP3   OH251460   5.850   4.516  13.091  0.1350  0.1000  0.1257
 9990TIP3    H151461   5.845   4.511  13.187 -0.2011  0.7377  0.1434
 9990TIP3    H251462   5.918   4.452  13.068 -0.2449 -0.5419  0.7324
 9991TIP3   OH251463   5.770   2.335  11.212 -0.1886 -0.3073  0.5094
 9991TIP3    H151464   5.688   2.285  11.222  0.7795 -2.5050 -1.4637
 9991TIP3    H251465   5.839   2.272  11.233  1.0627  0.7943 -0.1531
 9992TIP3   OH251466   4.826   4.233   1.743 -0.5861  0.4758 -0.6483
 9992TIP3    H151467   4.748   4.259   1.791 -0.9292  0.3153 -1.1098
 9992TIP3    H251468   4.886   4.308   1.750 -0.8217  0.6363 -0.3795
 9993TIP3   OH251469   0.727   1.322  11.468  0.7269  0.0705  0.0834
 9993TIP3    H151470   0.710   1.374  11.389  1.2184  0.8085  0.4453
 9993TIP3    H251471   0.682   1.369  11.538 -1.1950 -1.5245  0.0055
 9994TIP3   OH251472   0.243   1.125  13.636  0.5439 -0.4864 -0.6971
 9994TIP3    H151473   0.307   1.062  13.601  1.8418  0.6491 -0.4501
 9994TIP3    H251474   0.174   1.127  13.570  1.3608 -0.8420 -1.5965
 9995TIP3   OH251475   2.708   0.646  13.608  0.1559  0.6234  0.2233
 9995TIP3    H151476   2.687   0.738  13.589  0.2017  0.4638 -0.6490
 9995TIP3    H251477   2.801   0.647  13.631  0.1439  0.8085  0.2633
 9996TIP3   OH251478   1.488   4.916  11.060 -0.0290  0.3600 -0.3211
 9996TIP3    H151479   1.503   4.823  11.043 -1.0894 -0.1694  1.3353
 9996TIP3    H251480   1.447   4.948  10.980  1.1021 -0.3731 -1.2354
 9997TIP3   OH251481   5.274   4.354   6.214  0.3734  0.3602  0.3324
 9997TIP3    H151482   5.204   4.324   6.157  1.5673  0.4169 -1.2344
 9997TIP3    H251483   5.354   4.317   6.176  1.2779  0.9337  1.5982
 9998TIP3   OH251484   0.125   2.627  15.053  0.4348 -0.4398  0.0553
 9998TIP3    H151485   0.147   2.546  15.101 -1.8194 -1.7302 -0.9279
 9998TIP3    H251486   0.057   2.600  14.992 -1.5643  2.5399  0.7711
 9999TIP3   OH251487   3.530   3.196  14.171 -0.6121  0.1826  0.0268
 9999TIP3    H151488   3.610   3.205  14.222 -0.4013 -0.9678 -0.0910
 9999TIP3    H251489   3.540   3.115  14.122 -1.5182  0.4172 -0.5959
10000TIP3   OH251490   2.821   6.314  12.361  0.5755 -0.1069 -0.2805
10000TIP3    H151491   2.790   6.380  12.300  1.9233  1.6414  0.7955
10000TIP3    H251492   2.749   6.252  12.369 -0.1104  0.2953 -2.6144
10001TIP3   OH251493   5.204   3.645  14.566 -0.1494  0.4103 -0.4320
10001TIP3    H151494   5.146   3.716  14.594  0.2681  0.1839  1.1184
10001TIP3    H251495   5.261   3.685  14.500 -0.7414  1.1712 -0.4980
10002TIP3   OH251496   6.110   2.367   2.923  0.1439 -0.1212  0.6616
10002TIP3    H151497   6.048   2.405   2.985 -3.2975 -0.9094 -1.9909
10002TIP3    H251498   6.102   2.272   2.936  1.6542 -0.2365  0.9570
10003TIP3   OH251499   3.076   3.338  12.833 -0.2115  0.6033  0.7083
10003TIP3    H151500   3.070   3.243  12.822  0.7302  0.4567  1.2981
10003TIP3    H251501   3.031   3.355  12.916  0.1707  0.5768  0.9263
10004TIP3   OH251502   4.796   6.514  11.488 -0.5845 -0.3450  0.2552
10004TIP3    H151503   4.714   6.464  11.494 -0.7383 -0.0844  0.3244
10004TIP3    H251504   4.825   6.500  11.398 -1.7461  1.1788 -0.4025
10005TIP3   OH251505   4.609   1.809  12.111 -0.7809 -0.1273  0.8584
10005TIP3    H151506   4.586   1.720  12.135 -0.6695 -0.4398 -0.1590
10005TIP3    H251507   4.616   1.808  12.015 -0.5657  0.9165  0.8444
10006TIP3   OH251508   0.075   0.098   1.452  0.1959  0.5666 -0.2715
10006TIP3    H151509   0.015   0.027   1.475  0.7012 -0.5157 -2.1091
10006TIP3    H251510   0.140   0.098   1.522 -0.6749  0.2502  0.5534
10007TIP3   OH251511   6.239   3.440  14.204 -0.0002  0.3346 -0.7177
10007TIP3    H151512   6.284   3.444  14.289 -0.0445  0.6838 -0.7069
10007TIP3    H251513   6.219   3.532  14.184 -2.1366  0.0899  0.0205
10008TIP3   OH251514   0.735   2.578   2.280 -0.4627 -0.3704 -0.1308
10008TIP3    H151515   0.719   2.672   2.272 -0.4466 -0.2676  0.9268
10008TIP3    H251516   0.648   2.540   2.294 -0.3526 -0.3685  0.6213
10009TIP3   OH251517   3.586   0.590   0.007 -0.2093  0.0644 -0.3022
10009TIP3    H151518   3.662   0.646   0.024 -1.3664  1.2046  1.4003
10009TIP3    H251519   3.590   0.571  -0.086  3.1272 -1.3641 -0.0312
10010TIP3   OH251520   6.143   0.153   1.182  0.0123  0.1476  0.5180
10010TIP3    H151521   6.207   0.222   1.198  0.4101 -0.2704  0.7625
10010TIP3    H251522   6.174   0.109   1.102 -1.4375  1.6139 -0.9272
10011TIP3   OH251523   6.109   1.573   4.066  0.1029 -0.2610 -0.2942
10011TIP3    H151524   6.045   1.520   4.019  1.3267 -1.4616 -0.6737
10011TIP3    H251525   6.192   1.553   4.024  0.5566  2.5399 -0.9479
10012TIP3   OH251526   4.198   3.203  16.128  0.0594  0.1120  0.6045
10012TIP3    H151527   4.277   3.198  16.075 -1.1369 -0.4168 -1.2010
10012TIP3    H251528   4.152   3.121  16.111 -2.4711  1.7504 -1.0681
10013TIP3   OH251529   2.579   4.096   1.278  0.8742  0.4307 -0.1729
10013TIP3    H151530   2.581   4.144   1.195  0.2444  1.0192  0.1438
10013TIP3    H251531   2.487   4.097   1.304  0.7821 -1.3061 -0.3522
10014TIP3   OH251532   4.159   6.826  16.200 -0.6169 -0.7327  0.0776
10014TIP3    H151533   4.226   6.762  16.222  0.1173  1.1577  4.4516
10014TIP3    H251534   4.199   6.882  16.133 -0.0962 -2.8318 -1.4472
10015TIP3   OH251535   2.230   6.285  13.912 -0.0062  0.6233 -0.2861
10015TIP3    H151536   2.218   6.373  13.876 -1.3068 -0.2782 -2.2405
10015TIP3    H251537   2.143   6.247  13.910  0.5695 -0.7797  0.3416
10016TIP3   OH251538   4.211   4.362   1.971 -0.5937  0.4220 -0.3087
10016TIP3    H151539   4.285   4.403   1.927 -0.4180  1.0884  0.5744
10016TIP3    H251540   4.175   4.301   1.907  1.3961 -0.7425 -0.4314
10017TIP3   OH251541   3.062   3.367   3.222 -0.3072  0.4806 -0.0388
10017TIP3    H151542   3.020   3.349   3.307  0.2258  0.2875  0.1841
10017TIP3    H251543   3.154   3.379   3.243 -0.1048  0.0276 -0.6527
10018TIP3   OH251544   4.964   2.512   6.375 -0.4802 -0.5694  0.0324
10018TIP3    H151545   4.919   2.442   6.327  0.9058 -1.2029 -0.3831
10018TIP3    H251546   5.004   2.566   6.307 -4.4942  2.9687 -0.0037
10019TIP3   OH251547   5.288   5.919   5.003 -0.5469 -0.5911 -0.2906
10019TIP3    H151548   5.312   5.871   5.082  2.5580 -0.1840 -0.8743
10019TIP3    H251549   5.329   5.871   4.932  0.1815  1.2695 -1.1963
10020TIP3   OH251550   5.216   3.092   5.063 -0.4812 -0.3677  0.4646
10020TIP3    H151551   5.131   3.095   5.019 -0.9375 -2.9334  0.9639
10020TIP3    H251552   5.195   3.104   5.156 -0.2519 -0.6399  0.5526
10021TIP3   OH251553   3.303   2.350  12.645 -0.5776 -0.1956 -0.0391
10021TIP3    H151554   3.302   2.363  12.550 -3.0172  0.2630 -0.0299
10021TIP3    H251555   3.298   2.255  12.656 -3.1227 -0.2044 -0.5072
10022TIP3   OH251556   4.891   2.078   0.413  0.0302 -0.2247 -0.4106
10022TIP3    H151557   4.920   2.164   0.381  1.3412 -1.3216 -2.3767
10022TIP3    H251558   4.971   2.036   0.444 -0.4923 -0.9574 -0.0357
10023TIP3   OH251559   3.679   2.757   1.356 -0.2090 -0.2510 -0.3878
10023TIP3    H151560   3.682   2.804   1.440 -1.4304  0.2218 -0.5960
10023TIP3    H251561   3.729   2.811   1.296  0.1253 -0.2628 -0.1215
10024TIP3   OH251562   2.347   1.551   6.033  0.5365  0.7634 -0.0419
10024TIP3    H151563   2.298   1.474   6.003 -1.4285  2.0711 -0.3715
10024TIP3    H251564   2.428   1.549   5.982  0.6304 -1.1907  0.1174
10025TIP3   OH251565   4.378   0.364  11.959  0.4585  0.0306  0.7504
10025TIP3    H151566   4.413   0.345  12.046  1.5569 -1.6166 -0.0043
10025TIP3    H251567   4.347   0.280  11.926 -3.0234  1.1286  0.7661
10026TIP3   OH251568   5.507   2.135  14.248  0.2808 -0.0198  0.3006
10026TIP3    H151569   5.553   2.213  14.277  0.4826  1.2906 -3.1344
10026TIP3    H251570   5.451   2.111  14.322  2.1162  1.7816  2.4111
10027TIP3   OH251571   2.113   1.175   6.179  0.2138  0.3833 -0.1723
10027TIP3    H151572   2.119   1.099   6.237  0.3274 -0.0319 -0.7162
10027TIP3    H251573   2.072   1.243   6.232  1.4705  0.4213  0.7959
10028TIP3   OH251574   0.448   3.961  15.001 -0.1545  0.3741 -0.1760
10028TIP3    H151575   0.435   4.056  15.003 -0.9569  0.2701 -0.1150
10028TIP3    H251576   0.386   3.930  14.934 -0.3608 -0.1718  0.2613
10029TIP3   OH251577   2.707   6.135  10.992 -0.4027 -0.3120 -0.2877
10029TIP3    H151578   2.769   6.138  11.065  0.1113  2.5566 -0.7019
10029TIP3    H251579   2.622   6.151  11.032 -0.5409 -1.6022 -0.0282
10030TIP3   OH251580   4.446   5.908   5.883  0.1387 -0.6784 -0.1771
10030TIP3    H151581   4.500   5.844   5.836 -0.6621 -1.1310 -0.5044
10030TIP3    H251582   4.506   5.979   5.903  0.2529  0.2501 -3.2108
10031TIP3   OH251583   1.729   3.010  12.386  0.2400 -0.0246  0.0190
10031TIP3    H151584   1.708   3.103  12.395 -0.0326 -0.2584  2.1774
10031TIP3    H251585   1.648   2.964  12.409  0.6938 -0.8288  0.0577
10032TIP3   OH251586   2.608   1.466  14.858 -0.2585 -0.0146 -0.2281
10032TIP3    H151587   2.551   1.410  14.910 -1.6017  1.7832  0.3622
10032TIP3    H251588   2.697   1.437  14.880 -0.8558 -0.7777  1.3561
10033TIP3   OH251589   1.607   2.715   4.973 -0.3479  0.3324 -0.6418
10033TIP3    H151590   1.514   2.739   4.975 -0.7464 -1.1531 -0.3144
10033TIP3    H251591   1.643   2.755   5.052 -1.0069 -0.1608 -0.0785
10034TIP3   OH251592   3.301   1.079  13.935  0.2563 -0.2360 -0.5342
10034TIP3    H151593   3.352   1.104  13.858  0.8261 -0.8175 -0.3530
10034TIP3    H251594   3.227   1.140  13.936  0.6751  0.2882 -1.0875
10035TIP3   OH251595   2.877   0.408   5.177 -0.2090  0.3036  0.0693
10035TIP3    H151596   2.906   0.356   5.252 -0.6367  1.8667  1.3744
10035TIP3    H251597   2.793   0.445   5.204 -1.4904 -0.8636 -2.0697
10036TIP3   OH251598   5.918   0.890   4.099  0.1274 -0.3742  0.0119
10036TIP3    H151599   5.854   0.846   4.044 -0.2325  0.7777 -0.5133
10036TIP3    H251600   5.876   0.972   4.126  1.3289  0.3815 -0.3026
10037TIP3   OH251601   0.304   2.150  10.712  0.3023 -0.6497 -0.2258
10037TIP3    H151602   0.318   2.218  10.778  1.0299 -0.3769 -0.6411
10037TIP3    H251603   0.393   2.125  10.685  0.0725  0.7608 -2.6170
10038TIP3   OH251604   1.844   6.417   3.732 -0.4786  0.2847 -0.2935
10038TIP3    H151605   1.754   6.390   3.712  0.3116 -1.8093 -1.2923
10038TIP3    H251606   1.891   6.410   3.649  0.6692  1.2405  0.2346
10039TIP3   OH251607   4.642   0.444   4.862 -0.4630  0.3825 -0.0807
10039TIP3    H151608   4.693   0.459   4.942 -0.1223  1.7185 -0.5227
10039TIP3    H251609   4.591   0.524   4.851 -1.0764 -0.0948 -0.8031
10040TIP3   OH251610   6.412   6.495  16.120  0.3506  0.5709 -0.3600
10040TIP3    H151611   6.484   6.485  16.058  0.3877  0.7774 -0.3508
10040TIP3    H251612   6.413   6.587  16.145 -0.1754  0.6663 -0.6692
10041TIP3   OH251613   6.648   2.541  10.714  0.3284  0.0727  0.8397
10041TIP3    H151614   6.583   2.607  10.694 -0.5606 -1.4364 -1.8417
10041TIP3    H251615   6.651   2.537  10.810 -0.9180  2.6136  1.0511
10042TIP3   OH251616   6.566   6.389  12.620  0.5126  0.8987  0.8399
10042TIP3    H151617   6.642   6.394  12.678  1.5652  0.8491 -0.4794
10042TIP3    H251618   6.589   6.322  12.556 -0.0500  1.8533 -0.4060
10043TIP3   OH251619   3.263   3.290   5.941 -0.2485  0.7864 -0.0218
10043TIP3    H151620   3.328   3.245   5.889 -0.0260 -0.8272  1.5515
10043TIP3    H251621   3.314   3.337   6.008 -0.6390 -0.0585  0.8956
10044TIP3   OH251622   0.628   1.999  10.962 -0.0716  0.2115 -0.0072
10044TIP3    H151623   0.691   2.050  11.012 -0.6675  0.0604  0.9292
10044TIP3    H251624   0.626   1.913  11.004  0.2597 -0.3119 -1.0129
10045TIP3   OH251625   6.628   6.242   1.966 -0.2059 -0.3044  0.2225
10045TIP3    H151626   6.638   6.159   2.014 -0.7571 -0.7479 -0.4048
10045TIP3    H251627   6.710   6.252   1.918 -0.2753 -0.6828  0.0151
10046TIP3   OH251628   2.168   4.966  11.396 -0.1270 -0.6237  0.3477
10046TIP3    H151629   2.257   4.942  11.424  0.8370 -0.0173 -1.9974
10046TIP3    H251630   2.134   4.886  11.356 -0.2864 -0.5787  0.3963
10047TIP3   OH251631   3.145   0.760  14.258 -0.7139 -0.3299  0.1772
10047TIP3    H151632   3.124   0.853  14.268 -0.4873 -0.3285  0.6285
10047TIP3    H251633   3.206   0.758  14.184 -1.3777 -0.2111 -0.3828
10048TIP3   OH251634   5.844   6.196   3.268  0.1384 -0.5142  0.6742
10048TIP3    H151635   5.788   6.227   3.339  0.2150  3.7847 -0.8509
10048TIP3    H251636   5.785   6.146   3.212 -0.9608 -0.2728  1.5728
10049TIP3   OH251637   4.505   5.097   1.962 -0.0961  0.3723  0.4996
10049TIP3    H151638   4.565   5.072   2.032 -1.0196  0.1859  1.2558
10049TIP3    H251639   4.509   5.192   1.959 -0.4994  0.4228  1.2404
10050TIP3   OH251640   3.380   4.942   0.101 -0.3768 -0.2134  0.5062
10050TIP3    H151641   3.357   4.888   0.177  2.4602 -1.4314  0.6222
10050TIP3    H251642   3.371   4.884   0.026  0.2241 -0.0735  0.3237
10051TIP3   OH251643   1.198   3.814   5.098 -0.1625 -0.6686  0.1117
10051TIP3    H151644   1.184   3.833   5.005 -0.5867  0.2630  0.3617
10051TIP3    H251645   1.168   3.892   5.144 -0.6474 -1.4091  1.0873
10052TIP3   OH251646   6.351   4.450   4.412 -0.0666  0.5432 -0.0461
10052TIP3    H151647   6.282   4.447   4.346  0.5639 -0.3002 -0.6923
10052TIP3    H251648   6.342   4.369   4.461  0.3017  0.5445  0.0319
10053TIP3   OH251649   4.753   0.488  11.169  0.2499  0.1325  0.0136
10053TIP3    H151650   4.803   0.417  11.210  0.1202 -0.5122 -0.9097
10053TIP3    H251651   4.813   0.523  11.102  0.5935  1.4034  0.9556
10054TIP3   OH251652   3.288   6.317   6.074 -0.0860 -0.0490 -0.0758
10054TIP3    H151653   3.361   6.315   6.011 -0.9181  1.0753 -1.1219
10054TIP3    H251654   3.328   6.294   6.158  0.9674 -2.0932 -1.0728
10055TIP3   OH251655   3.610   4.202  16.691  0.8420  0.2535  0.5873
10055TIP3    H151656   3.613   4.107  16.688  0.7524  0.1748  1.9667
10055TIP3    H251657   3.521   4.222  16.722 -0.0782  0.9225 -2.2052
10056TIP3   OH251658   3.880   5.347   2.029 -0.2483 -0.1623 -0.0264
10056TIP3    H151659   3.872   5.269   1.974  0.4991 -0.5109  0.3430
10056TIP3    H251660   3.937   5.405   1.980  0.3419 -0.4347  0.3240
10057TIP3   OH251661   0.133   0.145  10.750 -0.0985 -0.0948 -0.0259
10057TIP3    H151662   0.150   0.230  10.790  0.5122  0.1459 -0.7721
10057TIP3    H251663   0.047   0.154  10.710  0.5343  0.6435 -1.2794
10058TIP3   OH251664   4.712   0.937  13.502 -0.0359 -0.4775 -0.2087
10058TIP3    H151665   4.796   0.967  13.538 -0.1666  0.8993 -0.9718
10058TIP3    H251666   4.657   0.922  13.579  0.1848  0.8843  0.2523
10059TIP3   OH251667   0.420   3.888  15.262 -0.0485  0.1396 -0.0593
10059TIP3    H151668   0.429   3.899  15.167 -2.1072  3.1499 -0.0526
10059TIP3    H251669   0.336   3.843  15.273 -0.5499  1.1322  0.3115
10060TIP3   OH251670   3.229   1.477  11.220 -0.2577  0.1592 -0.4670
10060TIP3    H151671   3.269   1.538  11.158 -3.0092  0.3567 -2.1900
10060TIP3    H251672   3.238   1.520  11.306  1.4249  1.0364 -1.0395
10061TIP3   OH251673   0.997   3.661   5.823  0.9582  0.3281 -1.1121
10061TIP3    H151674   1.026   3.578   5.861  0.7763  0.0365 -1.6076
10061TIP3    H251675   1.077   3.712   5.814  0.8237  1.0861  1.2726
10062TIP3   OH251676   3.906   2.172   0.035  0.5099  0.3928 -0.2732
10062TIP3    H151677   3.816   2.149   0.057  0.9496 -2.2893 -0.9265
10062TIP3    H251678   3.956   2.151   0.113  0.8269 -0.0668 -0.5966
10063TIP3   OH251679   3.180   6.154  11.618 -0.1773 -0.0545  0.2891
10063TIP3    H151680   3.134   6.072  11.636  0.5661 -0.5372  0.0255
10063TIP3    H251681   3.224   6.139  11.535 -0.6223  0.8792 -0.1321
10064TIP3   OH251682   1.661   2.069   0.572  0.5730  0.2945 -0.1081
10064TIP3    H151683   1.753   2.059   0.596  0.5793 -0.0913 -0.2895
10064TIP3    H251684   1.655   2.157   0.535  1.0060  0.0762 -0.7054
10065TIP3   OH251685   3.882   4.278   5.696  0.7624 -0.2743  0.1591
10065TIP3    H151686   3.807   4.226   5.668  0.0202  1.3823 -1.0958
10065TIP3    H251687   3.844   4.356   5.737  1.6409  1.5899 -2.3059
10066TIP3   OH251688   0.079   0.107   3.034 -0.4438  0.3066  0.4008
10066TIP3    H151689   0.162   0.060   3.043 -0.4465  0.1115 -0.5538
10066TIP3    H251690   0.047   0.115   3.124 -0.6692 -1.9393  0.5886
10067TIP3   OH251691   5.055   0.160   2.928  0.4813  0.4782 -0.2899
10067TIP3    H151692   5.037   0.143   3.021  0.5496 -1.3498 -0.5671
10067TIP3    H251693   5.087   0.076   2.895  0.3549  1.0724 -1.9955
10068TIP3   OH251694   6.592   1.941  16.011 -0.8538  0.5136 -0.5787
10068TIP3    H151695   6.647   1.913  15.938 -0.1704  0.6974 -0.1422
10068TIP3    H251696   6.653   1.956  16.083 -1.5023  0.4843 -0.0092
10069TIP3   OH251697   5.325   6.439   3.429  0.0202  0.1085  0.4312
10069TIP3    H151698   5.412   6.447   3.468 -0.7010  0.0557  2.1030
10069TIP3    H251699   5.280   6.373   3.482 -0.6655 -0.7467 -1.1436
10070TIP3   OH251700   2.774   0.735   4.431  0.9609  0.2841 -0.3183
10070TIP3    H151701   2.791   0.657   4.378  0.2636  0.4009 -0.7300
10070TIP3    H251702   2.857   0.781   4.434  1.0385  0.2206 -1.2398
10071TIP3   OH251703   3.199   0.949   1.604 -0.2740 -0.2638  0.1438
10071TIP3    H151704   3.153   0.937   1.687  0.1121  1.5892  0.6799
10071TIP3    H251705   3.256   0.873   1.597  0.1472 -0.1521  1.9139
10072TIP3   OH251706   0.561   2.210  11.718 -0.2320  0.3435 -0.1619
10072TIP3    H151707   0.520   2.268  11.782  1.2941  1.2584  0.0399
10072TIP3    H251708   0.530   2.243  11.633 -1.5115 -0.2882  0.0242
10073TIP3   OH251709   3.731   1.419   2.477 -0.5465  0.4011 -0.3736
10073TIP3    H151710   3.708   1.328   2.463  1.6613 -0.0817 -1.1931
10073TIP3    H251711   3.795   1.439   2.409 -1.6182  2.8590 -0.7972
10074TIP3   OH251712   0.534   5.413   3.683 -0.0089  0.2275 -0.1256
10074TIP3    H151713   0.443   5.438   3.699 -0.5186 -1.1603 -0.6963
10074TIP3    H251714   0.585   5.476   3.734 -1.3311  0.1120  1.4442
10075TIP3   OH251715   3.994   5.345  16.234  0.0980 -0.1838 -0.8039
10075TIP3    H151716   3.957   5.429  16.261  1.0074 -0.1437  0.4009
10075TIP3    H251717   4.049   5.366  16.159  0.7188  0.3975 -0.1977
10076TIP3   OH251718   0.608   1.118   5.515  0.1257 -0.2779 -0.5595
10076TIP3    H151719   0.589   1.025   5.515 -1.0211 -0.1424  2.0237
10076TIP3    H251720   0.690   1.126   5.564 -0.3239  0.1059  0.1550
10077TIP3   OH251721   3.208   5.832  12.775  0.0379  0.3737  0.3186
10077TIP3    H151722   3.142   5.763  12.781 -0.6655  0.7036 -2.1473
10077TIP3    H251723   3.287   5.795  12.814 -0.8382 -1.1073  0.7365
10078TIP3   OH251724   2.210   5.364   0.493 -0.0269  0.0131 -0.4701
10078TIP3    H151725   2.211   5.453   0.527  0.8833 -0.3983  0.6685
10078TIP3    H251726   2.229   5.309   0.569  0.2491 -1.0894 -1.3042
10079TIP3   OH251727   1.309   6.374   1.915  0.3491  0.2698  0.1524
10079TIP3    H151728   1.305   6.469   1.902  0.6092  0.4467  1.2439
10079TIP3    H251729   1.402   6.353   1.907  0.0571 -0.3204 -2.6253
10080TIP3   OH251730   0.294   0.115   1.618  0.5710 -0.2152 -0.6512
10080TIP3    H151731   0.374   0.062   1.624 -0.0452 -1.1764 -0.6188
10080TIP3    H251732   0.318   0.200   1.654  1.5752 -0.4956 -0.6402
10081TIP3   OH251733   6.313   6.654  11.445 -0.6405 -0.0563  0.2878
10081TIP3    H151734   6.218   6.656  11.451 -0.6493 -0.7737  0.4968
10081TIP3    H251735   6.342   6.732  11.493 -1.1374  0.5460 -0.3747
10082TIP3   OH251736   2.046   2.456   4.311  0.2379  0.4030 -0.5161
10082TIP3    H151737   2.014   2.399   4.380  1.5140  0.2221 -0.0585
10082TIP3    H251738   1.972   2.515   4.293 -1.0313 -1.1955 -0.8422
10083TIP3   OH251739   6.383   6.023   5.445  0.4054 -0.4383 -0.1598
10083TIP3    H151740   6.294   6.001   5.470  0.4209 -0.4854 -0.1454
10083TIP3    H251741   6.425   5.939   5.427  0.5986 -0.4496  0.3381
10084TIP3   OH251742   5.465   3.437  10.806 -0.4644  0.0618  0.1433
10084TIP3    H151743   5.555   3.442  10.838 -0.1786  0.8910 -0.7508
10084TIP3    H251744   5.448   3.344  10.796  0.6027 -0.0772 -0.5096
10085TIP3   OH251745   3.154   3.362   4.094  0.6255  0.3425  0.8214
10085TIP3    H151746   3.118   3.381   4.181  1.5378  2.0747  0.8681
10085TIP3    H251747   3.078   3.354   4.037  0.0718  2.2678  1.2290
10086TIP3   OH251748   0.369   2.027  14.395  0.6357 -0.1936 -0.4446
10086TIP3    H151749   0.406   2.043  14.308  1.1264  1.4818  0.0287
10086TIP3    H251750   0.276   2.011  14.379  0.9196 -1.0585 -1.3539
10087TIP3   OH251751   2.189   3.395   1.158  0.1258  0.1678 -0.1468
10087TIP3    H151752   2.213   3.328   1.222 -0.4121  0.6946  0.6270
10087TIP3    H251753   2.122   3.447   1.202 -0.0971  0.6772 -1.0652
10088TIP3   OH251754   4.099   1.828  11.787 -0.1722 -0.0363  0.1984
10088TIP3    H151755   4.190   1.858  11.799  0.0084  0.0848 -1.2817
10088TIP3    H251756   4.108   1.747  11.736 -0.8097 -1.1694  1.8017
10089TIP3   OH251757   3.131   4.361   2.129 -0.1576 -0.0858  0.1373
10089TIP3    H151758   3.190   4.396   2.195  0.0108  1.7840 -0.9160
10089TIP3    H251759   3.127   4.430   2.062 -1.9585 -1.0114 -0.7804
10090TIP3   OH251760   5.255   1.255  13.312 -0.1067 -0.1783  0.5898
10090TIP3    H151761   5.239   1.185  13.376  0.0377 -0.3904  0.3994
10090TIP3    H251762   5.187   1.243  13.246 -1.3238  1.0884  1.5436
10091TIP3   OH251763   2.152   6.071   5.105 -0.4246 -0.5220 -0.1988
10091TIP3    H151764   2.156   6.124   5.185 -2.3287 -0.7788  0.1139
10091TIP3    H251765   2.106   6.126   5.042  0.4055 -0.6088 -0.8903
10092TIP3   OH251766   6.385   4.916  16.244  0.6111 -0.1743 -0.2070
10092TIP3    H151767   6.387   4.931  16.150 -0.4269 -0.0367 -0.2186
10092TIP3    H251768   6.351   4.998  16.280 -0.9788 -0.9365  0.1031
10093TIP3   OH251769   6.582   3.301   4.607 -0.0592  0.0428  0.6825
10093TIP3    H151770   6.542   3.217   4.631  0.8900 -0.5068  0.3992
10093TIP3    H251771   6.671   3.296   4.644  0.5095  0.2908 -0.6171
10094TIP3   OH251772   3.070   1.391  11.496  0.2215  0.4565 -0.2365
10094TIP3    H151773   3.023   1.472  11.479  1.1131  0.9580 -0.3534
10094TIP3    H251774   3.008   1.322  11.471 -0.7919  1.0723  0.5129
10095TIP3   OH251775   4.221   5.585   4.509 -0.5330 -0.0559 -0.0210
10095TIP3    H151776   4.185   5.522   4.571  0.5157 -1.0684 -0.4070
10095TIP3    H251777   4.187   5.558   4.424 -0.4624  0.1817 -0.1252
10096TIP3   OH251778   0.817   3.833   0.464  0.7488 -0.1878  0.1831
10096TIP3    H151779   0.805   3.747   0.502 -0.5730 -0.0270  0.1623
10096TIP3    H251780   0.833   3.817   0.371  0.0610 -0.3891  0.0993
10097TIP3   OH251781   5.340   1.457  12.446 -0.0443  0.0544 -0.0945
10097TIP3    H151782   5.310   1.401  12.375 -0.0829 -0.1276  0.0641
10097TIP3    H251783   5.259   1.487  12.489 -0.0522  0.7540 -0.5727
10098TIP3   OH251784   6.746   2.452   1.019 -0.3717  0.0835  0.1355
10098TIP3    H151785   6.668   2.406   0.987 -0.7802  0.1107  1.0475
10098TIP3    H251786   6.750   2.532   0.966 -2.6382  1.5120  1.9092
10099TIP3   OH251787   1.718   3.016   1.074  0.3457  0.3374  0.0348
10099TIP3    H151788   1.640   3.071   1.068  1.0826  1.3209 -0.6639
10099TIP3    H251789   1.769   3.053   1.145  0.6234  0.2656 -0.1260
10100TIP3   OH251790   3.523   3.691  11.610 -0.2601  0.2132  0.7342
10100TIP3    H151791   3.562   3.776  11.586  0.4829 -0.7365 -1.7482
10100TIP3    H251792   3.444   3.685  11.555  0.8433 -1.5587 -0.7609
10101TIP3   OH251793   0.579   5.911   1.338  0.0444  0.2669 -0.2941
10101TIP3    H151794   0.654   5.927   1.396 -0.5172  1.7143  0.0706
10101TIP3    H251795   0.561   5.817   1.348  0.7237  0.2431  0.9513
10102TIP3   OH251796   5.054   2.050   5.248  0.0158 -0.8296  0.4162
10102TIP3    H151797   4.960   2.057   5.269  0.1300  2.0748  0.3288
10102TIP3    H251798   5.098   2.059   5.333  0.2414  0.6745  0.1624
10103TIP3   OH251799   6.755   3.308   4.205  0.5622 -0.1641  0.7193
10103TIP3    H151800   6.749   3.219   4.171  0.1185  0.0428  0.2497
10103TIP3    H251801   6.838   3.341   4.172  1.8463 -1.1659  2.7581
10104TIP3   OH251802   1.929   1.229   4.158  0.1049 -0.1947 -0.2513
10104TIP3    H151803   1.955   1.142   4.128 -1.6838 -0.8637 -0.0092
10104TIP3    H251804   2.008   1.282   4.150  0.7168 -1.3060 -2.4230
10105TIP3   OH251805   6.738   3.689  13.983  0.1724 -0.4318  0.9962
10105TIP3    H151806   6.793   3.645  13.919  0.5604  0.4607  0.6980
10105TIP3    H251807   6.799   3.721  14.050  0.0157  0.4186  0.7460
10106TIP3   OH251808   0.060   3.385   0.121 -0.6196 -0.0068 -0.1812
10106TIP3    H151809  -0.031   3.411   0.134 -0.1500  1.0211  1.2987
10106TIP3    H251810   0.065   3.298   0.161 -0.0061  1.7216  3.9369
10107TIP3   OH251811   1.976   2.473  15.277 -0.3575 -0.0504  0.3316
10107TIP3    H151812   2.051   2.421  15.305 -0.1504 -0.5209 -1.0084
10107TIP3    H251813   1.920   2.478  15.354  0.1584 -1.2943  0.8122
10108TIP3   OH251814   0.569   4.214   3.731  0.6549  0.0957 -0.0201
10108TIP3    H151815   0.550   4.303   3.762  0.3813  0.2716 -0.6841
10108TIP3    H251816   0.664   4.212   3.720  1.0929 -0.6615  2.9244
10109TIP3   OH251817   1.720   4.966   1.863  0.4689 -0.1248 -0.1185
10109TIP3    H151818   1.702   4.955   1.769  0.6750  0.3794 -0.2227
10109TIP3    H251819   1.670   4.897   1.905  0.8956 -0.7756 -0.6526
10110TIP3   OH251820   6.369   5.559  10.708  0.1495  0.4190 -0.2996
10110TIP3    H151821   6.289   5.507  10.698  1.3580 -1.4824 -0.5662
10110TIP3    H251822   6.353   5.638  10.657 -2.1585  0.8578  0.9440
10111TIP3   OH251823   4.378   5.018   1.730  0.0901 -0.3237  0.2178
10111TIP3    H151824   4.428   5.084   1.682  1.7564 -0.6563  1.3998
10111TIP3    H251825   4.390   5.041   1.822 -2.5188 -0.0619  0.5727
10112TIP3   OH251826   0.794   4.626  11.972 -0.3039 -0.2405  0.1826
10112TIP3    H151827   0.718   4.665  12.015  1.5813  1.3703  2.2897
10112TIP3    H251828   0.779   4.643  11.879 -2.5112 -0.0100  0.5132
10113TIP3   OH251829   5.712   0.494   4.682  0.0995 -0.5454 -0.4247
10113TIP3    H151830   5.775   0.503   4.753  0.2781 -0.8394 -0.5458
10113TIP3    H251831   5.763   0.459   4.609  0.4393  1.8061 -1.4274
10114TIP3   OH251832   0.758   4.952   5.741 -0.2470  0.0503  0.0019
10114TIP3    H151833   0.705   4.872   5.745 -1.5622  0.8824  0.1295
10114TIP3    H251834   0.729   4.995   5.661  0.8220  0.1535 -0.3344
10115TIP3   OH251835   2.632   0.393  16.755  0.3418  0.1176 -0.6953
10115TIP3    H151836   2.608   0.414  16.664 -1.0508  0.7201 -0.2105
10115TIP3    H251837   2.684   0.468  16.783 -2.7611  2.0813  0.3074
10116TIP3   OH251838   3.476   4.579   2.460 -0.0925 -0.3527  0.3692
10116TIP3    H151839   3.526   4.499   2.478 -0.7279 -0.5256  1.4723
10116TIP3    H251840   3.543   4.646   2.447  0.4456 -0.9769 -0.1991
10117TIP3   OH251841   2.699   1.333   1.501 -0.4441 -0.3465  0.4873
10117TIP3    H151842   2.768   1.269   1.481 -0.5819 -0.6384  0.9361
10117TIP3    H251843   2.632   1.283   1.547 -1.5273 -0.3375 -0.9900
10118TIP3   OH251844   6.462   5.633   2.154  0.6842  0.4870  0.1893
10118TIP3    H151845   6.407   5.709   2.135 -1.9358 -1.1730  0.6267
10118TIP3    H251846   6.422   5.594   2.231  2.2513 -1.0990  0.2521
10119TIP3   OH251847   4.583   4.056   1.951  0.6476 -0.3266 -0.0618
10119TIP3    H151848   4.618   4.145   1.950  0.1557 -0.1346 -1.6077
10119TIP3    H251849   4.654   4.003   1.988  0.9603  0.6860  0.8395
10120TIP3   OH251850   6.546   4.908  11.978 -0.2083  0.2788 -0.2803
10120TIP3    H151851   6.624   4.905  11.922  1.2647  1.9188  1.5159
10120TIP3    H251852   6.561   4.838  12.042  1.5868  2.6427  2.0934
10121TIP3   OH251853   3.592   2.178  14.541 -0.1212  0.0018  0.0672
10121TIP3    H151854   3.526   2.119  14.504 -1.6999  0.8580  1.3615
10121TIP3    H251855   3.614   2.139  14.625 -0.6607  0.8923  0.6259
10122TIP3   OH251856   1.018   1.196  12.562 -0.4849 -0.3622 -0.3890
10122TIP3    H151857   0.978   1.155  12.638  1.5234 -2.7150 -0.4446
10122TIP3    H251858   1.078   1.129  12.528  0.3523  1.4155 -2.7074
10123TIP3   OH251859   0.517   5.859  12.065  0.0325  0.3044  0.0276
10123TIP3    H151860   0.478   5.937  12.106  1.3869  0.2143  1.5840
10123TIP3    H251861   0.545   5.889  11.979 -1.1421  1.0250 -0.1409
10124TIP3   OH251862   2.011   2.932   2.683 -0.6743  0.8924 -0.7151
10124TIP3    H151863   1.927   2.968   2.656 -0.3133  0.2662 -2.8837
10124TIP3    H251864   2.077   2.984   2.636  0.1360  1.0065  0.4979
10125TIP3   OH251865   5.463   2.895  16.153  0.4475  0.4164 -0.2109
10125TIP3    H151866   5.368   2.889  16.159  0.5607 -0.1657  1.1426
10125TIP3    H251867   5.479   2.986  16.129 -0.4488  0.4477 -0.7687
10126TIP3   OH251868   6.854   2.938  15.054  0.1117 -0.4921  0.0853
10126TIP3    H151869   6.762   2.913  15.051 -0.3126  0.7796  1.3336
10126TIP3    H251870   6.898   2.864  15.096 -0.0722 -1.7182 -1.7968
10127TIP3   OH251871   2.663   5.092  13.080  0.0501 -0.1694  0.0678
10127TIP3    H151872   2.583   5.142  13.065  0.9671  0.5722 -2.9265
10127TIP3    H251873   2.662   5.024  13.013  1.0060 -1.3815  1.2408
10128TIP3   OH251874   4.070   5.920  13.046 -0.0781 -0.1645 -0.3754
10128TIP3    H151875   4.000   5.885  12.991  0.2971  0.1394 -1.0673
10128TIP3    H251876   4.026   5.971  13.113 -0.5045  0.4943 -1.1408
10129TIP3   OH251877   5.449   2.702   5.586 -0.0386 -0.5880  0.4285
10129TIP3    H151878   5.417   2.613   5.574  1.4312 -0.8710 -2.1160
10129TIP3    H251879   5.542   2.698   5.561  0.0923  1.6321  0.3411
10130TIP3   OH251880   5.408   4.324   2.964 -0.1647 -0.0204 -0.6531
10130TIP3    H151881   5.373   4.289   2.882 -0.6234  0.0655 -0.4970
10130TIP3    H251882   5.370   4.412   2.969 -0.6858 -0.2773 -0.0112
10131TIP3   OH251883   4.835   2.715   5.194 -0.3846  0.0023 -0.4602
10131TIP3    H151884   4.891   2.652   5.240 -0.4696 -0.0160 -0.3800
10131TIP3    H251885   4.885   2.740   5.117 -1.2243 -1.7966 -1.6664
10132TIP3   OH251886   5.264   3.889  16.155 -0.3433  0.6512 -0.4680
10132TIP3    H151887   5.303   3.889  16.243 -2.9037  0.6624  0.7680
10132TIP3    H251888   5.170   3.878  16.171 -0.8355  0.1679 -3.2658
10133TIP3   OH251889   5.041   0.432   2.133 -0.0919 -0.7758  0.3015
10133TIP3    H151890   5.028   0.518   2.093  1.6034  0.1564  1.5848
10133TIP3    H251891   4.981   0.374   2.086  0.3104  0.6316 -2.1493
10134TIP3   OH251892   5.624   6.242   3.408  0.5339 -0.3801 -1.0479
10134TIP3    H151893   5.563   6.291   3.463 -0.3886  0.7361 -2.9508
10134TIP3    H251894   5.580   6.237   3.323  2.2153 -1.3606 -1.9079
10135TIP3   OH251895   1.720   1.347   4.651 -0.2603 -0.2271 -0.0503
10135TIP3    H151896   1.810   1.369   4.671 -0.3858 -0.0691  0.3408
10135TIP3    H251897   1.696   1.281   4.715  0.7603 -3.1513 -2.4173
10136TIP3   OH251898   3.482   2.680   0.326  0.0400  0.4898 -0.3547
10136TIP3    H151899   3.532   2.627   0.264 -0.2127 -0.2128  0.0303
10136TIP3    H251900   3.391   2.670   0.299  0.0053  0.8674 -0.3829
10137TIP3   OH251901   0.709   5.683   5.533  0.1497 -0.1377  0.1807
10137TIP3    H151902   0.720   5.637   5.450  1.1001 -0.7948  0.6548
10137TIP3    H251903   0.797   5.711   5.557 -0.0023 -0.5764  1.3160
10138TIP3   OH251904   4.455   0.920  13.961  0.9470 -0.3563  0.0678
10138TIP3    H151905   4.364   0.893  13.945  0.5745  1.3493 -0.9485
10138TIP3    H251906   4.471   0.897  14.052 -0.2182 -1.4481  0.0324
10139TIP3   OH251907   6.846   3.823  14.213 -0.2500  0.7821  0.1267
10139TIP3    H151908   6.936   3.790  14.216  0.1468  1.8292  0.4658
10139TIP3    H251909   6.812   3.809  14.301  0.0073  1.4779  0.3453
10140TIP3   OH251910   2.834   1.028  15.837 -0.3587 -0.3917  0.2566
10140TIP3    H151911   2.880   1.104  15.874 -0.2890 -0.1322 -0.3500
10140TIP3    H251912   2.888   1.001  15.763 -1.7481  0.6380 -1.2122
10141TIP3   OH251913   1.646   2.396  13.813 -0.0713  0.4842 -0.5741
10141TIP3    H151914   1.652   2.487  13.841  1.9878  0.3609 -0.4551
10141TIP3    H251915   1.737   2.367  13.808 -0.5585 -0.8355 -3.0586
10142TIP3   OH251916   4.246   4.114  11.055 -0.2881  0.0342 -0.0728
10142TIP3    H151917   4.326   4.061  11.061  0.7397  1.5640  0.2941
10142TIP3    H251918   4.239   4.137  10.963 -1.7447 -2.1432 -0.5870
10143TIP3   OH251919   0.927   6.046   3.696  0.1939  0.1875  0.1791
10143TIP3    H151920   0.835   6.054   3.671  0.0518 -1.2325  0.1348
10143TIP3    H251921   0.973   6.109   3.640 -0.5340 -0.4349 -1.1691
10144TIP3   OH251922   4.553   6.245   4.611 -0.0246 -0.1016 -0.4171
10144TIP3    H151923   4.546   6.175   4.676 -0.1458  0.4861  0.2020
10144TIP3    H251924   4.581   6.200   4.531 -0.1807 -0.8708 -0.0461
10145TIP3   OH251925   5.386   1.787   4.208 -0.2015  0.0924 -0.1919
10145TIP3    H151926   5.325   1.721   4.241 -0.2998  0.1606 -0.2394
10145TIP3    H251927   5.423   1.827   4.288 -1.4137  1.1703 -0.1396
10146TIP3   OH251928   5.747   0.166  11.055 -0.2326  0.3225  0.0651
10146TIP3    H151929   5.789   0.128  11.132 -1.1958  1.6197  1.2843
10146TIP3    H251930   5.655   0.140  11.063 -0.6488  1.7355  0.2231
10147TIP3   OH251931   4.028   3.958   1.096  0.0021 -0.0673  0.0457
10147TIP3    H151932   4.051   4.031   1.038  2.0055 -0.4617  0.2684
10147TIP3    H251933   4.112   3.921   1.122 -0.9576 -1.9406  0.6243
10148TIP3   OH251934   4.060   0.020   2.854  0.8065 -0.4456  0.4935
10148TIP3    H151935   4.110  -0.041   2.800  0.7836 -0.4585  0.4870
10148TIP3    H251936   4.075  -0.011   2.944 -0.6482 -1.5567  0.3949
10149TIP3   OH251937   1.720   4.360   1.645  0.2088 -0.2221 -0.3907
10149TIP3    H151938   1.683   4.411   1.717 -0.1672 -0.2974 -0.5299
10149TIP3    H251939   1.728   4.422   1.572 -1.6124 -0.6870 -1.0206
10150TIP3   OH251940   4.357   0.434   5.151  0.0593 -0.0397 -0.3173
10150TIP3    H151941   4.398   0.355   5.186  1.0345  0.1122 -1.0780
10150TIP3    H251942   4.358   0.421   5.056  2.2047  1.7746 -0.6332
10151TIP3   OH251943   5.974   0.148   0.754  0.2772 -0.3011  0.1147
10151TIP3    H151944   5.945   0.239   0.742 -0.6765 -0.1276  2.8824
10151TIP3    H251945   5.900   0.096   0.723 -0.1046 -0.0442  0.5678
10152TIP3   OH251946   0.811   2.582   3.276 -0.0695  0.0111 -0.2563
10152TIP3    H151947   0.846   2.560   3.190 -0.8905 -2.2865 -0.0776
10152TIP3    H251948   0.722   2.547   3.276 -1.1263  2.4817  0.5673
10153TIP3   OH251949   2.655   6.337   5.330  0.3292 -0.5998 -0.1762
10153TIP3    H151950   2.744   6.364   5.352  0.2720  1.2493 -1.8822
10153TIP3    H251951   2.665   6.250   5.292  2.0049  0.9262 -3.6653
10154TIP3   OH251952   2.199   2.717  15.961 -0.0478  0.2145  0.6720
10154TIP3    H151953   2.286   2.757  15.958 -0.7021  1.7459  1.1921
10154TIP3    H251954   2.189   2.674  15.876  1.3284 -0.2456  0.7310
10155TIP3   OH251955   1.042   2.239   4.428  0.3293  0.5633 -0.0899
10155TIP3    H151956   0.978   2.303   4.398  0.6624  0.6265 -0.6769
10155TIP3    H251957   0.990   2.165   4.459 -0.0116  0.0420 -1.8292
10156TIP3   OH251958   4.858   1.230   2.701 -0.0867  0.1177  0.7855
10156TIP3    H151959   4.938   1.281   2.689 -0.0210 -0.1796 -0.1434
10156TIP3    H251960   4.873   1.150   2.651 -1.7349  0.9052 -1.0889
10157TIP3   OH251961   0.040   5.668   2.829  0.1244 -0.5290 -0.0479
10157TIP3    H151962   0.013   5.597   2.887 -1.6895  0.7247  0.7286
10157TIP3    H251963  -0.027   5.671   2.760  0.5086  0.0369 -0.4128
10158TIP3   OH251964   3.286   2.056  11.364 -0.8395  0.3315 -0.5995
10158TIP3    H151965   3.303   1.996  11.291 -0.1133 -0.7066  0.3962
10158TIP3    H251966   3.344   2.130  11.347  0.5424 -0.6318 -0.2584
10159TIP3   OH251967   0.634   5.353  16.813 -0.3055  0.1104 -0.0571
10159TIP3    H151968   0.618   5.422  16.878 -0.6210 -0.6603  0.7147
10159TIP3    H251969   0.595   5.386  16.733 -1.6561  0.2947  0.6328
10160TIP3   OH251970   5.177   4.515  10.619 -0.2197  0.2451  0.3708
10160TIP3    H151971   5.213   4.599  10.647  0.5864  0.4124 -1.0306
10160TIP3    H251972   5.100   4.538  10.567 -0.5411  0.0635  0.7671
10161TIP3   OH251973   5.982   1.372  14.666 -0.0889  0.1840 -0.6108
10161TIP3    H151974   5.928   1.311  14.616  0.2772 -0.5486 -0.1305
10161TIP3    H251975   5.952   1.363  14.756 -0.0470  0.7438 -0.5337
10162TIP3   OH251976   1.330   4.233  14.523  0.6522 -0.4299  0.4112
10162TIP3    H151977   1.347   4.180  14.601 -1.5202 -3.8518 -1.2009
10162TIP3    H251978   1.240   4.264  14.534  0.7503  0.0951 -0.1917
10163TIP3   OH251979   3.800   3.240  13.276  0.0579  0.3527  0.1671
10163TIP3    H151980   3.858   3.315  13.262  0.2228 -0.0158 -1.3743
10163TIP3    H251981   3.856   3.172  13.312  0.2837  0.4571  0.0176
10164TIP3   OH251982   0.809   5.025   1.312 -0.5264  0.0248  0.4131
10164TIP3    H151983   0.766   4.972   1.379 -0.0532 -0.9852 -0.0661
10164TIP3    H251984   0.792   4.979   1.230  0.4602  0.2438  0.0710
10165TIP3   OH251985   6.589   5.348   0.694  1.0574  0.2879  0.3343
10165TIP3    H151986   6.523   5.395   0.745 -0.8246 -1.2740 -0.5178
10165TIP3    H251987   6.608   5.405   0.620 -0.2438  0.2526 -0.0376
10166TIP3   OH251988   0.625   5.980  15.470  0.3461 -0.0193 -0.1119
10166TIP3    H151989   0.539   5.984  15.427 -0.1886  0.7026  0.9507
10166TIP3    H251990   0.604   5.958  15.561  1.3553 -0.5182  0.0083
10167TIP3   OH251991   5.764   0.182   1.731 -0.1055 -0.6356 -0.0172
10167TIP3    H151992   5.719   0.150   1.810 -1.5844  1.5610  0.1130
10167TIP3    H251993   5.850   0.209   1.762 -0.2963 -0.7819  0.6576
10168TIP3   OH251994   6.348   0.283   2.766 -0.1930 -0.7097 -0.2015
10168TIP3    H151995   6.310   0.286   2.678 -0.2162  1.4087 -0.1816
10168TIP3    H251996   6.425   0.339   2.760  1.1068 -2.3268  0.5999
10169TIP3   OH251997   0.585   5.960   1.888 -0.6436  0.5300 -0.2298
10169TIP3    H151998   0.653   5.989   1.948 -1.5186  2.2703  0.0032
10169TIP3    H251999   0.601   6.010   1.808 -1.2223  0.4410 -0.4089
10170TIP3   OH252000   3.464   1.822   6.349  0.5619  0.5494  0.3388
10170TIP3    H152001   3.520   1.882   6.397 -0.8806  1.3581  1.0835
10170TIP3    H252002   3.402   1.878   6.303 -1.0085 -0.3369  1.2932
10171TIP3   OH252003   4.792   4.140   4.404  0.6905  0.5477  0.7618
10171TIP3    H152004   4.787   4.216   4.346 -0.6099  0.4289  0.6798
10171TIP3    H252005   4.793   4.177   4.492 -0.4726  0.6775  0.7411
10172TIP3   OH252006   3.165   6.817   3.578 -0.5367  0.2099 -0.0050
10172TIP3    H152007   3.087   6.840   3.628  0.6522  0.4470  1.8798
10172TIP3    H252008   3.134   6.756   3.511 -2.3137  0.2347  0.7339
10173TIP3   OH252009   1.691   1.529  13.436  0.3513 -0.6232  0.9268
10173TIP3    H152010   1.670   1.478  13.514 -0.2843 -1.7505  0.0565
10173TIP3    H252011   1.755   1.475  13.389 -1.3324 -1.3225 -0.6741
10174TIP3   OH252012   6.392   1.963  11.071  0.0289  0.1543 -0.0053
10174TIP3    H152013   6.308   1.967  11.117 -0.4794  0.0270 -0.9130
10174TIP3    H252014   6.369   1.972  10.979  0.9902 -0.1989 -0.2830
10175TIP3   OH252015   1.378   1.850  14.096 -0.0959  0.4477 -0.3238
10175TIP3    H152016   1.353   1.907  14.169  0.3257  2.2936 -1.5422
10175TIP3    H252017   1.452   1.895  14.055 -0.3285 -0.5268 -1.8977
10176TIP3   OH252018   5.391   5.075  15.388  0.1662 -0.1998  0.1939
10176TIP3    H152019   5.411   5.016  15.315 -0.5276  1.8174 -1.7430
10176TIP3    H252020   5.449   5.150  15.375 -0.9443  0.8140  0.9036
10177TIP3   OH252021   2.294   2.465  16.456  0.1195  0.0085  0.2503
10177TIP3    H152022   2.331   2.505  16.377  2.3907  1.9125  2.1084
10177TIP3    H252023   2.273   2.540  16.512 -1.2544 -1.2977  1.5682
10178TIP3   OH252024   0.104   2.179   5.592 -0.0060 -0.2935 -0.0049
10178TIP3    H152025   0.026   2.188   5.647 -0.8467 -0.4297 -1.1349
10178TIP3    H252026   0.176   2.211   5.647 -1.0861  1.4285  0.4847
10179TIP3   OH252027   3.494   5.059  14.725  0.3866  0.3660  0.2925
10179TIP3    H152028   3.534   5.083  14.642  0.0885  0.9892  0.3176
10179TIP3    H252029   3.512   4.966  14.735  1.2293  0.4860 -0.0223
10180TIP3   OH252030   3.402   2.759  15.260  0.6171  0.2371  0.1381
10180TIP3    H152031   3.418   2.810  15.340 -0.9771  0.0822  0.5922
10180TIP3    H252032   3.482   2.710  15.246  0.8218  0.0479  1.8136
10181TIP3   OH252033   4.684   1.210  15.703 -0.0371 -0.0913  0.0243
10181TIP3    H152034   4.607   1.216  15.760  0.8673 -0.2385  1.2939
10181TIP3    H252035   4.757   1.234  15.759  1.1568 -2.3087 -0.4568
10182TIP3   OH252036   1.441   2.018  16.530 -0.0156 -0.7597  0.5215
10182TIP3    H152037   1.390   2.038  16.608 -1.7031 -0.0806 -0.6919
10182TIP3    H252038   1.447   2.101  16.483  0.9860 -1.1516 -0.0619
10183TIP3   OH252039   3.764   3.062   4.917  0.0915 -0.1023 -0.2852
10183TIP3    H152040   3.786   3.000   4.986  2.7843  1.1936  0.1498
10183TIP3    H252041   3.719   3.133   4.963  2.2066  0.9352  0.3100
10184TIP3   OH252042   4.343   1.495  16.066  0.1894  0.0528  0.2455
10184TIP3    H152043   4.404   1.495  15.992 -1.4488  1.3743 -1.2120
10184TIP3    H252044   4.393   1.533  16.138  1.0632  1.3838 -0.9863
10185TIP3   OH252045   2.801   2.270   0.649  0.4990 -0.1224 -0.5018
10185TIP3    H152046   2.787   2.273   0.744 -0.6426 -0.3194 -0.6501
10185TIP3    H252047   2.768   2.354   0.618  2.8230  0.8355 -0.5075
10186TIP3   OH252048   2.695   4.191  16.018  0.6520 -0.2155 -0.0447
10186TIP3    H152049   2.701   4.263  16.081  0.7505  0.5708 -0.9334
10186TIP3    H252050   2.602   4.189  15.993  1.0287  1.0980 -1.6979
10187TIP3   OH252051   1.623   4.929   0.076 -0.5329 -0.5478  0.4424
10187TIP3    H152052   1.708   4.908   0.038 -0.8604  2.7457 -2.6423
10187TIP3    H252053   1.644   4.976   0.156  0.7256  1.3594 -0.9220
10188TIP3   OH252054   2.425   6.608  12.734 -0.4088  0.3475  0.4871
10188TIP3    H152055   2.466   6.695  12.738 -2.3531  1.2998  0.7919
10188TIP3    H252056   2.481   6.558  12.674  1.0755  1.6153  0.7532
10189TIP3   OH252057   6.592   2.234   5.210 -0.6020 -0.3569 -1.0365
10189TIP3    H152058   6.679   2.265   5.235 -0.7701  0.1918 -1.1215
10189TIP3    H252059   6.559   2.189   5.289 -0.8059  0.6683 -0.5200
10190TIP3   OH252060   6.747   1.259  12.187  0.1755  0.5188  0.0944
10190TIP3    H152061   6.803   1.205  12.243 -0.3097 -0.9482 -0.7845
10190TIP3    H252062   6.803   1.283  12.114  0.0591  0.2028 -0.1011
10191TIP3   OH252063   5.085   2.812   0.359 -0.2664 -0.8149  0.1538
10191TIP3    H152064   5.018   2.874   0.329 -1.8651 -2.2990  0.5294
10191TIP3    H252065   5.129   2.857   0.431 -1.3077 -0.0469  0.3351
10192TIP3   OH252066   2.785   2.786   4.448  0.8978 -0.1002 -0.0583
10192TIP3    H152067   2.774   2.696   4.416 -0.3725  0.1278 -0.3389
10192TIP3    H252068   2.813   2.775   4.539 -2.6607 -0.9171  1.1180
10193TIP3   OH252069   3.099   6.189  12.625  0.1381 -0.0264 -0.4937
10193TIP3    H152070   3.043   6.236  12.686  0.2767  2.2004 -1.9746
10193TIP3    H252071   3.165   6.147  12.680  0.6349  2.3839  0.8722
10194TIP3   OH252072   6.584   2.058  15.705 -0.3366 -0.6902 -0.3624
10194TIP3    H152073   6.582   2.060  15.609  0.7907  1.7133 -0.3934
10194TIP3    H252074   6.676   2.068  15.727 -0.7595  0.5660  0.9706
10195TIP3   OH252075   3.302   4.870  16.488 -0.0998 -0.4093 -0.0253
10195TIP3    H152076   3.331   4.869  16.397  2.5246  1.9475  0.6353
10195TIP3    H252077   3.251   4.950  16.497 -0.0832 -0.4645  0.6413
10196TIP3   OH252078   1.250   2.250  15.017 -0.5772  0.0780  0.1804
10196TIP3    H152079   1.243   2.157  15.039  0.4357  0.5201  2.7798
10196TIP3    H252080   1.249   2.252  14.921  1.3636 -2.8206 -0.0463
10197TIP3   OH252081   3.134   5.575   1.132  0.7656 -0.2565  0.4588
10197TIP3    H152082   3.205   5.515   1.155  1.2829  0.5434  0.9974
10197TIP3    H252083   3.092   5.534   1.056  1.7714 -0.7732  0.1578
10198TIP3   OH252084   4.155   1.838  13.271 -0.3470 -0.5677  0.2376
10198TIP3    H152085   4.250   1.825  13.282 -0.0274  1.9182  1.2311
10198TIP3    H252086   4.147   1.871  13.181  0.0267  0.9850  0.7367
10199TIP3   OH252087   0.594   6.324  11.489 -0.0336 -0.0242 -0.7330
10199TIP3    H152088   0.655   6.353  11.421 -1.1412  1.2391 -1.2462
10199TIP3    H252089   0.600   6.390  11.558 -1.4036  0.6169 -1.1807
10200TIP3   OH252090   0.380   0.652  11.578 -0.0374 -0.1813 -0.0533
10200TIP3    H152091   0.331   0.734  11.591  0.9479  0.3639  0.2685
10200TIP3    H252092   0.429   0.641  11.659  0.7633 -0.4548 -0.5717
10201TIP3   OH252093   0.607   1.304   0.664  0.2544  0.4097 -0.0722
10201TIP3    H152094   0.634   1.241   0.731 -0.1542  1.7040  1.3484
10201TIP3    H252095   0.525   1.268   0.630 -0.1900  0.3816  1.0104
10202TIP3   OH252096   0.814   6.207   5.851  0.1944 -0.0321 -0.0776
10202TIP3    H152097   0.776   6.235   5.768 -0.5276 -2.6940 -0.7660
10202TIP3    H252098   0.804   6.282   5.909 -2.6714  0.6917 -1.3393
10203TIP3   OH252099   4.746   1.725   5.447  0.7548 -0.0232 -0.1030
10203TIP3    H152100   4.795   1.663   5.501  0.2830 -0.0978  0.2490
10203TIP3    H252101   4.655   1.709   5.470  0.6008  0.4957 -0.3437
10204TIP3   OH252102   4.887   6.515  11.233  0.2344 -0.5000 -0.0683
10204TIP3    H152103   4.836   6.452  11.184 -1.1894 -0.0513  0.7739
10204TIP3    H252104   4.946   6.554  11.168  0.2722 -1.7831 -0.8385
10205TIP3   OH252105   5.739   0.091   3.335  0.2487 -0.0685 -0.0673
10205TIP3    H152106   5.665   0.139   3.299  0.2461 -0.2677 -0.3346
10205TIP3    H252107   5.814   0.118   3.282  0.4513  0.4673  0.4881
10206TIP3   OH252108   6.026   1.750  16.565  0.6342 -0.7112 -0.6760
10206TIP3    H152109   6.042   1.820  16.629 -0.4720 -0.5904 -0.5067
10206TIP3    H252110   5.956   1.698  16.604 -0.0014 -0.6907 -1.7375
10207TIP3   OH252111   3.498   5.427  15.795  0.2465 -0.5066  0.0953
10207TIP3    H152112   3.512   5.487  15.869  0.5953 -2.4790  1.7209
10207TIP3    H252113   3.467   5.346  15.835  1.1999 -1.9190 -1.8478
10208TIP3   OH252114   4.869   5.387   3.104 -0.1526 -0.2585 -0.5155
10208TIP3    H152115   4.896   5.452   3.039 -1.1631  0.8289  0.1302
10208TIP3    H252116   4.784   5.356   3.073  0.8065 -2.1420 -1.4208
10209TIP3   OH252117   5.128   0.503  16.122  0.5475  0.2812  0.1857
10209TIP3    H152118   5.101   0.448  16.049  0.1612 -0.5310  0.9201
10209TIP3    H252119   5.054   0.501  16.183  0.9700  0.7149  0.7270
10210TIP3   OH252120   1.364   2.944  13.068  0.1372 -0.3398  0.6282
10210TIP3    H152121   1.403   3.016  13.018  0.2781 -0.5885  0.3792
10210TIP3    H252122   1.312   2.895  13.005 -0.7700  0.1175  1.0095
10211TIP3   OH252123   4.392   4.596   2.494  0.3725  0.1156 -0.3907
10211TIP3    H152124   4.315   4.583   2.550  0.0999  0.6155 -0.6457
10211TIP3    H252125   4.451   4.650   2.546  0.6076 -0.3719 -0.1464
10212TIP3   OH252126   1.921   0.531  12.546 -0.5300  0.2528  0.4218
10212TIP3    H152127   1.973   0.451  12.546  0.2793  0.7117  2.5350
10212TIP3    H252128   1.837   0.506  12.583 -0.7472  0.1227 -0.1542
10213TIP3   OH252129   2.519   3.089   1.023  0.1011  0.1754  0.2208
10213TIP3    H152130   2.561   3.100   0.938  1.1473  3.6410  1.0095
10213TIP3    H252131   2.427   3.111   1.006  0.5774  2.3985  0.1257
10214TIP3   OH252132   3.406   2.457   3.513 -0.0331  0.2807 -0.1707
10214TIP3    H152133   3.321   2.419   3.539 -1.3296  2.1553 -1.4283
10214TIP3    H252134   3.454   2.383   3.476 -1.1295 -0.8225  0.5162
10215TIP3   OH252135   1.162   5.183  14.707 -0.0742  0.3947 -0.6179
10215TIP3    H152136   1.134   5.204  14.796 -0.7942 -3.2113  0.1614
10215TIP3    H252137   1.227   5.114  14.718  0.3516  0.3689 -2.8841
10216TIP3   OH252138   3.773   5.349  13.218 -0.3273  0.0881  0.1728
10216TIP3    H152139   3.830   5.388  13.151 -0.3527 -0.3580 -0.1108
10216TIP3    H252140   3.778   5.410  13.292 -2.9114  2.4674 -1.3634
10217TIP3   OH252141   4.961   5.540   4.690  0.2203  0.6667  0.1134
10217TIP3    H152142   4.920   5.453   4.700 -1.2514  1.2761 -0.2887
10217TIP3    H252143   5.052   5.521   4.669 -0.1211 -0.7936 -0.1789
10218TIP3   OH252144   5.587   0.389  11.020 -1.0596 -0.2951  0.3791
10218TIP3    H152145   5.541   0.350  10.946  0.1045 -0.0208 -0.5186
10218TIP3    H252146   5.650   0.322  11.047 -1.4560 -0.3841  1.1219
10219TIP3   OH252147   5.894   6.472  11.707 -0.4802 -0.3980  0.2341
10219TIP3    H152148   5.891   6.565  11.687 -0.5786 -0.5113 -0.2844
10219TIP3    H252149   5.907   6.429  11.623 -2.7596 -0.9898  0.1191
10220TIP3   OH252150   3.570   6.315   1.623 -0.0645 -0.2280 -0.0221
10220TIP3    H152151   3.559   6.361   1.539 -1.9192 -0.8626 -0.1870
10220TIP3    H252152   3.662   6.325   1.644 -0.0092  1.8911 -1.0081
10221TIP3   OH252153   4.099   4.192   4.431  0.0877 -0.0688  0.1526
10221TIP3    H152154   4.166   4.259   4.442 -0.2985  0.2347  0.7219
10221TIP3    H252155   4.072   4.198   4.340  1.5878 -0.9184 -0.3868
10222TIP3   OH252156   2.356   5.521   2.059  0.0463 -0.0596 -0.7772
10222TIP3    H152157   2.275   5.557   2.024 -0.4150 -0.5625 -0.2632
10222TIP3    H252158   2.328   5.443   2.108  0.7764  0.0506 -0.1634
10223TIP3   OH252159   5.559   4.458   1.612 -0.0894 -0.2257  0.3979
10223TIP3    H152160   5.513   4.519   1.555 -0.8192  0.8812  2.0999
10223TIP3    H252161   5.640   4.438   1.565 -0.9453  0.0919 -1.3115
10224TIP3   OH252162   6.774   2.617  15.816 -0.4371  0.3060  0.0012
10224TIP3    H152163   6.809   2.668  15.889 -0.0855 -0.9348  0.7174
10224TIP3    H252164   6.847   2.609  15.755 -0.6790  1.1865 -0.4260
10225TIP3   OH252165   3.500   0.397   4.407  0.2788  0.0455 -0.4203
10225TIP3    H152166   3.456   0.424   4.487  1.0797 -1.3686  0.5494
10225TIP3    H252167   3.433   0.349   4.358 -1.2545  3.7337 -2.3199
10226TIP3   OH252168   5.747   5.181   5.257  0.5467  0.4830  0.2399
10226TIP3    H152169   5.660   5.218   5.268  1.1141  2.1874 -0.6656
10226TIP3    H252170   5.780   5.170   5.346 -0.7296 -0.6232  0.6131
10227TIP3   OH252171   2.792   2.041   0.942  0.2217  0.2878 -0.0286
10227TIP3    H152172   2.704   2.080   0.941  0.1044  0.0474  0.7357
10227TIP3    H252173   2.780   1.956   0.900  0.1234  0.3320 -0.0920
10228TIP3   OH252174   0.792   5.757  15.487  0.3025  0.1325 -0.2635
10228TIP3    H152175   0.845   5.768  15.408 -4.3514 -0.6224 -3.9536
10228TIP3    H252176   0.744   5.839  15.496 -0.0077 -0.1757  1.2082
10229TIP3   OH252177   4.129   6.503  16.933  0.1353  0.1118  0.2998
10229TIP3    H152178   4.097   6.418  16.962  1.5775 -1.2825 -1.8652
10229TIP3    H252179   4.131   6.557  17.012 -0.3226 -2.0224  1.8469
10230TIP3   OH252180   1.618   5.366   1.697  0.5823 -0.4366 -0.3771
10230TIP3    H152181   1.594   5.321   1.779 -0.5874  1.7337  0.5693
10230TIP3    H252182   1.662   5.446   1.726 -1.1716  1.1190 -1.7498
10231TIP3   OH252183   1.072   3.726   0.975  0.3102  0.3407  0.0667
10231TIP3    H152184   1.037   3.739   1.063 -1.0348  1.6369 -0.6057
10231TIP3    H252185   1.089   3.814   0.942  3.9452 -0.1813  0.1576
10232TIP3   OH252186   0.467   2.525   2.085 -0.4038 -0.3387 -0.4208
10232TIP3    H152187   0.394   2.578   2.117  0.3584  0.9415 -0.7059
10232TIP3    H252188   0.442   2.500   1.996 -0.4336  0.2168 -0.5701
10233TIP3   OH252189   1.379   0.455  11.349 -0.0189  0.6090  0.6898
10233TIP3    H152190   1.303   0.396  11.348  0.2918  0.1403  2.0057
10233TIP3    H252191   1.346   0.535  11.391 -0.1780  1.0177 -0.1839
10234TIP3   OH252192   6.695   1.642   1.762 -0.1559 -0.7344  0.0624
10234TIP3    H152193   6.684   1.710   1.828 -0.5025 -0.6149 -0.1159
10234TIP3    H252194   6.694   1.560   1.811  0.2740 -0.6124  0.2789
10235TIP3   OH252195   5.916   3.011  11.189  0.0307 -0.2077 -0.3424
10235TIP3    H152196   5.882   2.975  11.107  1.4204 -1.2146 -0.5290
10235TIP3    H252197   5.876   2.957  11.257  0.3315 -0.6178 -0.4862
10236TIP3   OH252198   1.335   3.885  15.841  0.5132 -0.5516  0.6492
10236TIP3    H152199   1.391   3.819  15.801  2.3539  0.6680  1.1233
10236TIP3    H252200   1.381   3.911  15.920 -0.3592  1.0244  0.6749
10237TIP3   OH252201   4.407   0.588  13.352  0.3348 -0.7196  0.6814
10237TIP3    H152202   4.453   0.649  13.294 -0.9519 -0.5242 -0.1707
10237TIP3    H252203   4.376   0.518  13.294 -0.4869 -0.8182  1.2285
10238TIP3   OH252204   3.083   0.007   6.560 -0.1342 -1.1415 -0.5031
10238TIP3    H152205   2.997   0.048   6.547 -0.2846 -1.3567 -0.2011
10238TIP3    H252206   3.063  -0.082   6.590  0.1967 -1.0911 -0.1215
10239TIP3   OH252207   0.301   2.717  16.406  0.2468  0.4106 -0.0540
10239TIP3    H152208   0.384   2.669  16.413 -0.1326 -0.2399  0.1538
10239TIP3    H252209   0.237   2.649  16.382  0.3012  1.3957 -3.4553
10240TIP3   OH252210   5.744   4.085   1.359  0.3654 -0.1752 -0.2875
10240TIP3    H152211   5.716   4.013   1.301  0.1844  0.1145 -0.5649
10240TIP3    H252212   5.678   4.088   1.427 -0.6282  0.8728 -1.2487
10241TIP3   OH252213   3.934   6.109   0.611  0.1414  0.4437  0.1307
10241TIP3    H152214   4.005   6.104   0.675  0.4272  1.7339 -0.0482
10241TIP3    H252215   3.943   6.197   0.573  0.6787 -0.6479 -2.4838
10242TIP3   OH252216   4.710   5.020   2.570  0.1328 -0.0254  0.1018
10242TIP3    H152217   4.761   4.943   2.546  0.8763  0.7543 -0.9233
10242TIP3    H252218   4.675   5.052   2.487  1.9342  2.1682  0.0790
10243TIP3   OH252219   3.562   1.579   6.336  0.6102 -0.2751  0.3618
10243TIP3    H152220   3.651   1.587   6.371  0.9839 -1.7480 -0.1594
10243TIP3    H252221   3.526   1.668   6.342  1.9497  0.2629  1.0012
10244TIP3   OH252222   5.098   3.776   6.206 -0.3454  0.3952  0.3221
10244TIP3    H152223   5.049   3.739   6.278  1.0543 -1.9295  0.1564
10244TIP3    H252224   5.166   3.829   6.247 -0.8919  0.9011  0.6033
10245TIP3   OH252225   3.672   0.049   6.369 -0.3717 -0.1068 -0.1039
10245TIP3    H152226   3.579   0.073   6.362  0.0291  1.7434  0.2995
10245TIP3    H252227   3.691   0.056   6.462  0.8762  2.6628 -0.4686
10246TIP3   OH252228   2.797   5.580   4.387 -0.2874 -0.2226 -0.0304
10246TIP3    H152229   2.843   5.657   4.421  0.8799 -0.8421 -0.1405
10246TIP3    H252230   2.745   5.548   4.461  1.0084 -0.6490  0.7226
10247TIP3   OH252231   3.583   4.321   4.896  0.2902 -0.0823  0.6541
10247TIP3    H152232   3.643   4.301   4.968 -1.6185 -1.5339  1.9477
10247TIP3    H252233   3.540   4.238   4.877 -2.1507  1.1229  0.6053
10248TIP3   OH252234   3.289   6.275  16.488 -0.4516  0.2123 -0.0303
10248TIP3    H152235   3.314   6.367  16.479  0.7592 -0.2350 -1.5545
10248TIP3    H252236   3.201   6.271  16.450  0.3306  0.3916 -1.9692
10249TIP3   OH252237   4.799   6.202  15.870  0.2108  0.4141 -0.0131
10249TIP3    H152238   4.717   6.237  15.907 -0.1492  0.1641 -0.5559
10249TIP3    H252239   4.818   6.261  15.797  2.1820  2.3415  1.9227
10250TIP3   OH252240   0.467   1.636   4.916  0.0020  0.1840  0.1426
10250TIP3    H152241   0.451   1.730   4.911  1.1213  0.3758 -0.1663
10250TIP3    H252242   0.400   1.597   4.861 -0.7891  0.7517  0.6758
10251TIP3   OH252243   4.404   1.166   4.261  0.1164 -0.5667 -0.6990
10251TIP3    H152244   4.346   1.238   4.235  0.7905  0.0509 -0.4961
10251TIP3    H252245   4.416   1.178   4.355 -0.1839 -1.2595 -0.5621
10252TIP3   OH252246   0.036   4.910   5.213  0.2232 -0.3071 -0.1681
10252TIP3    H152247  -0.030   4.930   5.279 -0.2516 -0.2324 -0.6568
10252TIP3    H252248  -0.015   4.886   5.135  0.7466  1.1914 -1.0022
10253TIP3   OH252249   2.750   6.600  14.840 -0.0721  0.3749  0.4343
10253TIP3    H152250   2.666   6.616  14.884 -0.1632 -0.6109  0.6427
10253TIP3    H252251   2.789   6.686  14.831 -0.9733  0.8149  0.6152
10254TIP3   OH252252   2.342   1.107   6.002  0.3282 -0.3131  0.3481
10254TIP3    H152253   2.341   1.011   6.002  0.1956 -0.4145  3.1587
10254TIP3    H252254   2.260   1.132   6.044  0.6958  0.9994  0.3433
10255TIP3   OH252255   1.630   5.065   4.812 -0.2091 -0.2575  0.0375
10255TIP3    H152256   1.566   5.004   4.846  0.3264 -0.3222  0.9495
10255TIP3    H252257   1.677   5.097   4.889  0.2071  0.5228 -0.5204
10256TIP3   OH252258   1.775   2.020   3.722  0.1267  0.2704  0.5805
10256TIP3    H152259   1.735   2.046   3.639  0.7068 -0.5673  0.0159
10256TIP3    H252260   1.755   1.926   3.730 -0.6187  0.5062  1.8015
10257TIP3   OH252261   2.225   5.220  12.636 -0.0266  0.0726 -0.6379
10257TIP3    H152262   2.233   5.125  12.646 -0.7998  0.2140  2.3916
10257TIP3    H252263   2.290   5.242  12.569  0.2344 -2.5576 -1.3813
10258TIP3   OH252264   1.936   1.369   2.576 -0.4503 -0.1269  0.7026
10258TIP3    H152265   1.862   1.417   2.538 -0.2404  0.4927  1.0539
10258TIP3    H252266   1.897   1.290   2.613 -0.9242  0.1448  0.7949
10259TIP3   OH252267   2.352   4.364  13.453  0.6211  0.5902  0.3907
10259TIP3    H152268   2.338   4.297  13.520  2.9688  1.6449  2.0718
10259TIP3    H252269   2.378   4.315  13.375 -0.2546 -0.5704  0.7985
10260TIP3   OH252270   4.281   3.116   2.094  0.1368 -0.2185 -0.9631
10260TIP3    H152271   4.289   3.208   2.068  0.2454  0.1208  0.2258
10260TIP3    H252272   4.312   3.067   2.018  0.2600  0.7328 -1.5431
10261TIP3   OH252273   5.041   3.635   3.212 -0.1610  0.2025 -0.6057
10261TIP3    H152274   5.084   3.652   3.295 -2.1646 -0.9365  0.7694
10261TIP3    H252275   5.082   3.555   3.179 -0.0357  0.0994 -0.2044
10262TIP3   OH252276   0.894   1.459  14.033  0.0679 -0.1411  0.6178
10262TIP3    H152277   0.948   1.524  14.078  0.9609 -1.2440  1.1944
10262TIP3    H252278   0.804   1.484  14.053  0.4007  0.6896  1.1401
10263TIP3   OH252279   2.265   6.844  13.969 -0.2919 -0.0154  0.3749
10263TIP3    H152280   2.254   6.874  13.879  0.6329 -0.5888  0.0615
10263TIP3    H252281   2.338   6.897  14.003  0.9773 -1.4466 -0.0032
10264TIP3   OH252282   2.440   4.570  16.985 -0.2778 -0.2243  0.1921
10264TIP3    H152283   2.384   4.550  16.910  0.7335  0.5284 -0.7956
10264TIP3    H252284   2.379   4.596  17.054 -1.1689  0.6027 -0.8635
10265TIP3   OH252285   0.416   2.995  16.431 -0.1948  0.2250 -0.0223
10265TIP3    H152286   0.389   2.935  16.361 -0.4444 -0.6586  0.8089
10265TIP3    H252287   0.334   3.024  16.471 -0.0909  1.3567 -0.5796
10266TIP3   OH252288   4.369   5.402  12.500 -0.1529 -1.0034 -0.3068
10266TIP3    H152289   4.423   5.481  12.500  1.1562 -1.8570  0.4252
10266TIP3    H252290   4.319   5.407  12.418  1.7606 -0.6429 -1.5067
10267TIP3   OH252291   4.480   3.569   1.193  0.0401 -0.4865 -0.3660
10267TIP3    H152292   4.535   3.491   1.182 -2.4175 -2.2008 -1.1702
10267TIP3    H252293   4.467   3.601   1.104  0.4532  0.4515 -0.0980
10268TIP3   OH252294   3.951   5.387  11.787  0.5496 -0.0038  0.2515
10268TIP3    H152295   3.861   5.360  11.766  1.2835 -0.7917 -2.2017
10268TIP3    H252296   3.941   5.449  11.858 -2.0269  0.4692 -0.4240
10269TIP3   OH252297   3.401   5.854   1.274 -0.3171  0.1901  0.0936
10269TIP3    H152298   3.436   5.766   1.289 -1.2412 -0.1131  0.5574
10269TIP3    H252299   3.314   5.852   1.313 -0.5141  1.1907 -0.2628
10270TIP3   OH252300   6.651   6.652   2.600  0.2604  0.2314 -0.2878
10270TIP3    H152301   6.648   6.685   2.510 -0.6436 -0.0962 -0.3899
10270TIP3    H252302   6.658   6.731   2.654 -0.3016  0.5068 -0.6025
10271TIP3   OH252303   5.395   2.024   4.798 -0.3537  0.2275 -0.5217
10271TIP3    H152304   5.339   2.026   4.876  0.9397  3.7505  0.5315
10271TIP3    H252305   5.366   2.099   4.746  0.5517 -0.4843 -2.1269
10272TIP3   OH252306   0.294   5.188  14.873  0.5676 -0.4401 -0.0950
10272TIP3    H152307   0.217   5.175  14.817 -0.7013  1.2134  1.1747
10272TIP3    H252308   0.367   5.194  14.811 -0.8771  2.1611 -1.7468
10273TIP3   OH252309   5.732   6.522  15.224 -0.6235 -0.1850 -0.1882
10273TIP3    H152310   5.820   6.500  15.255 -0.9479  0.1506  1.0180
10273TIP3    H252311   5.742   6.534  15.130  0.9328  1.2815  0.1189
10274TIP3   OH252312   0.278   2.066   4.651 -0.7740  0.3387  0.7428
10274TIP3    H152313   0.366   2.075   4.615 -0.3586  1.9019  2.0113
10274TIP3    H252314   0.220   2.070   4.575  0.0999  2.9089  0.1067
10275TIP3   OH252315   4.099   6.586  13.413  0.2681  0.3491 -0.4371
10275TIP3    H152316   4.015   6.546  13.389 -0.5720  0.9289  1.3927
10275TIP3    H252317   4.151   6.513  13.449 -0.2841  0.3885  0.4610
10276TIP3   OH252318   1.566   5.026  16.743  0.0148  0.2616 -0.2231
10276TIP3    H152319   1.627   5.100  16.733 -0.5333  1.2819  2.9244
10276TIP3    H252320   1.612   4.965  16.800 -1.4648  0.5877  1.3860
10277TIP3   OH252321   4.516   6.797  14.719 -0.0339  0.0577  0.1283
10277TIP3    H152322   4.515   6.865  14.652 -0.1095 -0.3758 -0.3120
10277TIP3    H252323   4.471   6.837  14.794  0.5419  0.7353  0.1155
10278TIP3   OH252324   6.386   4.359   6.634 -0.8473  0.3083  0.1458
10278TIP3    H152325   6.295   4.328   6.635 -0.3133 -1.3226  1.4953
10278TIP3    H252326   6.428   4.305   6.566 -0.5099 -0.1205  0.6926
10279TIP3   OH252327   5.842   1.704   0.455  0.1832  0.1260 -0.0297
10279TIP3    H152328   5.916   1.675   0.509  0.6088 -0.4752 -0.9167
10279TIP3    H252329   5.774   1.639   0.472 -0.2368  0.8004  0.9547
10280TIP3   OH252330   2.033   0.507   4.921 -0.2018 -0.6827 -0.1390
10280TIP3    H152331   2.059   0.561   4.846 -1.3141  2.3351  1.4726
10280TIP3    H252332   1.942   0.483   4.903 -0.4913  0.1011  0.2234
10281TIP3   OH252333   2.575   0.628  16.084  0.2573 -0.1549 -0.2670
10281TIP3    H152334   2.669   0.611  16.079  0.6570  1.6817  0.3601
10281TIP3    H252335   2.537   0.570  16.018  1.6054 -2.2692  0.6958
10282TIP3   OH252336   2.955   3.857   5.969  0.1063  0.5988  0.4875
10282TIP3    H152337   2.868   3.849   5.930  0.2842 -1.6963  0.3846
10282TIP3    H252338   2.939   3.857   6.063 -0.0089 -1.1802  0.5129
10283TIP3   OH252339   5.054   0.216   0.811  0.4123  0.3488  0.9404
10283TIP3    H152340   5.099   0.277   0.752 -0.0554 -0.5227 -0.3551
10283TIP3    H252341   5.125   0.163   0.849  0.5776 -0.8503 -0.8947
10284TIP3   OH252342   3.726   0.088  17.072 -0.3973 -0.0803  0.3968
10284TIP3    H152343   3.732  -0.006  17.053 -1.0276  0.3632 -2.4771
10284TIP3    H252344   3.731   0.130  16.986  0.9878  2.6168  1.6748
10285TIP3   OH252345   3.021   6.848  14.427  0.2803 -0.0593 -0.2519
10285TIP3    H152346   3.106   6.858  14.471 -0.2505 -1.9316  1.3151
10285TIP3    H252347   2.996   6.937  14.403  2.9464  0.5103 -1.3505
10286TIP3   OH252348   4.172   0.751  11.703 -0.0903 -0.6152  0.0364
10286TIP3    H152349   4.240   0.818  11.698  0.3001 -0.9501  0.7134
10286TIP3    H252350   4.202   0.681  11.645  0.9660 -1.4642  1.5381
10287TIP3   OH252351   5.148   3.064  15.763 -0.4019  0.1985 -0.0191
10287TIP3    H152352   5.134   3.041  15.855 -0.9754  1.4246  0.2289
10287TIP3    H252353   5.059   3.077  15.729 -0.1911 -0.2460 -0.7560
10288TIP3   OH252354   6.092   6.689   0.342 -0.0100  0.0487  0.4410
10288TIP3    H152355   6.182   6.722   0.336 -0.0695  0.1761  0.2569
10288TIP3    H252356   6.037   6.767   0.338 -0.0848  0.0989  2.0610
10289TIP3   OH252357   0.804   6.586   3.856 -0.3643  0.2701  0.1621
10289TIP3    H152358   0.872   6.650   3.837 -0.5469  0.9735  1.7080
10289TIP3    H252359   0.725   6.623   3.817 -0.4902  1.0849  1.1343
10290TIP3   OH252360   2.159   3.084  12.755 -0.1279  0.2127 -0.2075
10290TIP3    H152361   2.147   3.179  12.750 -0.4815  0.3317  1.9473
10290TIP3    H252362   2.105   3.050  12.684 -1.3948  1.5296  0.0750
10291TIP3   OH252363   5.761   6.089   2.843 -0.3160 -0.2329 -0.1897
10291TIP3    H152364   5.725   6.049   2.764  0.6054  1.1536 -1.3580
10291TIP3    H252365   5.828   6.150   2.811  0.4912 -0.0612  1.6971
10292TIP3   OH252366   5.315   5.838  12.839 -0.2269  0.3268  0.1798
10292TIP3    H152367   5.326   5.873  12.927  0.0612  1.9117 -0.4609
10292TIP3    H252368   5.403   5.836  12.802 -0.1302 -1.6897  0.3737
10293TIP3   OH252369   2.800   6.646  10.251  0.5659  0.1123  0.1112
10293TIP3    H152370   2.770   6.625  10.340  1.7304  0.7295  0.6862
10293TIP3    H252371   2.728   6.621  10.194 -0.8552  1.1591  1.3738
10294TIP3   OH252372   2.545   6.249  12.340  0.2397  0.2004 -0.6104
10294TIP3    H152373   2.498   6.313  12.286  0.2701  1.6915  0.9985
10294TIP3    H252374   2.480   6.182  12.360 -0.0382  0.1356 -1.6907
10295TIP3   OH252375   5.147   4.763   1.971 -0.1081  0.1693 -0.2113
10295TIP3    H152376   5.066   4.799   2.007  1.0826  1.8927  0.9350
10295TIP3    H252377   5.131   4.754   1.877 -2.3146 -1.6238  0.2526
10296TIP3   OH252378   0.325   2.784  13.277 -0.6515  0.6628 -0.1835
10296TIP3    H152379   0.238   2.822  13.291 -1.3859 -0.9823 -0.0138
10296TIP3    H252380   0.340   2.792  13.183 -1.5673 -0.1554 -0.4181
10297TIP3   OH252381   6.321   4.835  11.854  0.2788  0.0754 -0.3606
10297TIP3    H152382   6.362   4.756  11.818  0.2581 -0.1941  0.1916
10297TIP3    H252383   6.389   4.876  11.907  0.0032 -0.0829  0.1198
10298TIP3   OH252384   3.281   0.400  17.044 -0.6291  0.0450 -0.0857
10298TIP3    H152385   3.326   0.317  17.025 -1.5505 -0.5303  0.1984
10298TIP3    H252386   3.281   0.446  16.960 -0.5312 -0.4548 -0.3684
10299TIP3   OH252387   3.415   2.818  14.565  0.0599  0.1049  0.2843
10299TIP3    H152388   3.429   2.813  14.470 -1.6612  1.7447 -0.1130
10299TIP3    H252389   3.325   2.849  14.574  0.4480  0.7374  2.4628
10300TIP3   OH252390   3.724   6.391  15.966  0.4724  0.2318 -0.0110
10300TIP3    H152391   3.726   6.331  16.040 -3.7526  2.7926  2.6001
10300TIP3    H252392   3.799   6.449  15.981  0.5616 -0.2099  1.4124
10301TIP3   OH252393   6.755   0.468   4.175  0.2889  0.1569 -0.0165
10301TIP3    H152394   6.734   0.529   4.246  1.4040  0.6871 -0.1148
10301TIP3    H252395   6.834   0.424   4.204 -2.0409 -3.5220  1.4179
10302TIP3   OH252396   5.213   3.282   1.544  0.2757  0.0817  0.1582
10302TIP3    H152397   5.275   3.223   1.502  0.5491  2.0029 -2.3607
10302TIP3    H252398   5.205   3.249   1.633  4.5705 -0.5041  0.5078
10303TIP3   OH252399   1.641   2.549   6.053  0.3525 -0.0473  0.2183
10303TIP3    H152400   1.615   2.629   6.097 -0.0511 -0.4280  0.6803
10303TIP3    H252401   1.680   2.495   6.122  1.4932  0.1252 -0.2731
10304TIP3   OH252402   0.427   5.807  11.599  0.2846 -0.1474 -0.5190
10304TIP3    H152403   0.411   5.798  11.693 -0.4140 -2.4247 -0.7969
10304TIP3    H252404   0.415   5.901  11.581  0.9430  0.4179  1.7202
10305TIP3   OH252405   6.477   1.322   3.791 -0.2929  0.7890  0.5411
10305TIP3    H152406   6.424   1.386   3.839  1.1199  0.0729  3.2667
10305TIP3    H252407   6.566   1.358   3.793  0.4766 -1.0186  1.8639
10306TIP3   OH252408   0.281   1.615   4.215 -0.3896 -0.5582  0.1394
10306TIP3    H152409   0.243   1.649   4.296 -1.3626  0.7623 -0.8366
10306TIP3    H252410   0.304   1.693   4.164  2.2177 -1.3084 -0.0008
10307TIP3   OH252411   4.755   2.443  11.096  0.6507 -0.4659 -0.3438
10307TIP3    H152412   4.791   2.470  11.011  2.3816 -2.4278 -0.3132
10307TIP3    H252413   4.716   2.358  11.079 -0.0352 -0.3569  0.6241
10308TIP3   OH252414   5.966   6.646   4.740  0.0700 -0.0073 -0.1187
10308TIP3    H152415   5.920   6.723   4.705  2.1927  0.8090 -1.2539
10308TIP3    H252416   5.933   6.574   4.686 -1.3773  0.1769  0.4557
10309TIP3   OH252417   1.208   5.414   3.324 -0.2043 -0.2115  0.1749
10309TIP3    H152418   1.302   5.417   3.306 -0.4957 -1.4757 -1.8864
10309TIP3    H252419   1.175   5.498   3.292 -0.0103 -0.4875 -0.7722
10310TIP3   OH252420   6.559   1.807   3.017 -0.5624 -0.3548 -0.1683
10310TIP3    H152421   6.642   1.766   2.993  0.0743 -0.2336  1.6610
10310TIP3    H252422   6.505   1.800   2.938  0.2091 -2.8927 -0.5824
10311TIP3   OH252423   2.588   6.785   1.553  0.1799  0.0434  0.5428
10311TIP3    H152424   2.548   6.868   1.579 -0.2921 -0.5662  1.8569
10311TIP3    H252425   2.540   6.758   1.475 -0.3728  0.4859  0.7270
10312TIP3   OH252426   3.713   2.085  14.775  0.3107  0.1452  0.0976
10312TIP3    H152427   3.646   2.050  14.834 -0.1217  1.2060  0.2603
10312TIP3    H252428   3.757   2.153  14.826  0.6576  0.3277 -0.4368
10313TIP3   OH252429   2.582   3.239   4.375  0.5647 -0.1111  0.5448
10313TIP3    H152430   2.571   3.252   4.280  0.3961 -1.6746  0.3285
10313TIP3    H252431   2.659   3.183   4.383 -0.7683 -1.9183  1.1817
10314TIP3   OH252432   0.070   6.670   2.719  0.1982  0.2740 -0.0145
10314TIP3    H152433   0.012   6.657   2.643  0.2521 -0.2618  0.0328
10314TIP3    H252434   0.100   6.582   2.741  1.5372  0.6154 -0.4222
10315TIP3   OH252435   3.421   1.970  10.974  0.8626 -0.0269  0.3019
10315TIP3    H152436   3.440   2.063  10.964 -0.5455  0.2855  0.3329
10315TIP3    H252437   3.421   1.955  11.068 -0.4765  0.3120  0.3725
10316TIP3   OH252438   5.236   3.612   2.455  0.0483 -0.1109 -0.1468
10316TIP3    H152439   5.141   3.615   2.444  0.1449 -0.3710 -1.0778
10316TIP3    H252440   5.255   3.680   2.520 -0.6974  0.4435 -0.5007
10317TIP3   OH252441   2.807   2.562   2.732 -0.5703 -0.0230  0.4605
10317TIP3    H152442   2.874   2.508   2.690 -0.4632  0.0505  0.5340
10317TIP3    H252443   2.838   2.652   2.719 -1.0527  0.0578 -0.1888
10318TIP3   OH252444   1.890   1.749   6.024 -0.4861 -0.5812 -0.5811
10318TIP3    H152445   1.941   1.736   6.105 -1.9862  0.1289  0.5262
10318TIP3    H252446   1.813   1.797   6.052 -0.3644  1.0024 -2.7104
10319TIP3   OH252447   4.548   4.896   4.652  0.1646  0.3958  0.4719
10319TIP3    H152448   4.597   4.814   4.659 -1.0076 -0.2607  1.2839
10319TIP3    H252449   4.591   4.956   4.712 -1.2316 -0.8311  2.8466
10320TIP3   OH252450   0.528   2.449  15.483  0.2121 -0.4715 -0.6048
10320TIP3    H152451   0.602   2.389  15.472 -0.5107 -1.6034  0.4722
10320TIP3    H252452   0.503   2.472  15.393 -1.1928 -3.9723 -1.2812
10321TIP3   OH252453   5.799   5.167  13.555  0.1915 -0.3413  0.4151
10321TIP3    H152454   5.823   5.247  13.602 -0.7324  0.9554 -1.2076
10321TIP3    H252455   5.768   5.198  13.470 -0.4752 -2.4274 -0.1562
10322TIP3   OH252456   1.908   4.148  11.845 -0.4636 -0.2612  0.4015
10322TIP3    H152457   1.904   4.187  11.758  1.8696 -1.5963 -0.4040
10322TIP3    H252458   1.832   4.089  11.849 -0.9634  0.3190 -0.4517
10323TIP3   OH252459   6.292   3.396  13.227 -0.0175  0.7956  0.4938
10323TIP3    H152460   6.220   3.374  13.169  0.4959  0.6364 -0.0952
10323TIP3    H252461   6.335   3.471  13.186 -0.3208  1.4115  1.2597
10324TIP3   OH252462   5.651   1.455  15.482 -0.0342  0.0317  0.0574
10324TIP3    H152463   5.650   1.540  15.527  0.5431 -1.3404  2.8835
10324TIP3    H252464   5.676   1.392  15.550 -1.1261 -2.5339 -1.7549
10325TIP3   OH252465   6.251   5.526  11.766 -1.3133 -0.2468  0.0883
10325TIP3    H152466   6.235   5.460  11.833 -0.9126 -1.8786 -1.3464
10325TIP3    H252467   6.306   5.482  11.702 -0.0781  1.8592 -0.3802
10326TIP3   OH252468   3.800   6.809   4.023 -0.0685 -0.2649  0.3852
10326TIP3    H152469   3.794   6.752   4.100  1.7542 -0.2522  0.5868
10326TIP3    H252470   3.813   6.896   4.058 -0.2144 -0.1118  0.0665
10327TIP3   OH252471   2.300   4.126  12.314 -0.2125  0.0116  0.1134
10327TIP3    H152472   2.318   4.054  12.374  0.1986 -0.9550 -1.1302
10327TIP3    H252473   2.204   4.130  12.309 -0.2617 -1.6300 -1.1272
10328TIP3   OH252474   2.319   2.192  16.940 -0.2635 -0.3213  0.4978
10328TIP3    H152475   2.362   2.195  17.025  1.0986 -2.3057 -0.0424
10328TIP3    H252476   2.246   2.131  16.952 -0.3160 -0.2870  0.3551
10329TIP3   OH252477   5.098   6.261  12.047 -0.6919 -0.0660 -0.2015
10329TIP3    H152478   5.089   6.204  11.971  2.9353 -2.0208  0.6156
10329TIP3    H252479   5.167   6.323  12.022 -0.1964 -0.0695  1.1025
10330TIP3   OH252480   0.682   4.989  13.940 -0.1689  0.5898 -0.0983
10330TIP3    H152481   0.743   4.920  13.912  1.2073  1.1855  1.2806
10330TIP3    H252482   0.706   5.065  13.886 -0.4137  0.5246 -0.2986
10331TIP3   OH252483   0.300   6.151  13.143 -0.4563 -0.6180  0.7808
10331TIP3    H152484   0.305   6.085  13.074 -1.4090  1.0447 -0.9530
10331TIP3    H252485   0.390   6.180  13.156  0.1056 -2.7167  2.1310
10332TIP3   OH252486   0.246   3.698   6.385 -1.1218 -0.5982 -0.0535
10332TIP3    H152487   0.156   3.718   6.411 -1.5032 -0.9288 -1.0792
10332TIP3    H252488   0.240   3.614   6.339 -0.1788 -0.9744  0.4873
10333TIP3   OH252489   1.460   1.125   4.314  0.1058 -0.0553 -0.1031
10333TIP3    H152490   1.513   1.148   4.238 -0.5102  1.7721 -0.0543
10333TIP3    H252491   1.523   1.099   4.382  0.6594 -1.6677 -1.1957
10334TIP3   OH252492   3.588   1.366   3.436 -0.2065  0.0734  0.2642
10334TIP3    H152493   3.526   1.336   3.503  1.0539 -1.8291  0.6515
10334TIP3    H252494   3.534   1.376   3.358 -1.2960  0.0192  0.9777
10335TIP3   OH252495   0.694   2.994  10.417  0.8420  0.4563 -0.0360
10335TIP3    H152496   0.622   2.935  10.438  0.0712  1.3422 -0.1762
10335TIP3    H252497   0.769   2.935  10.403  0.2056 -0.4564  0.2841
10336TIP3   OH252498   5.705   4.027   2.640 -0.5003 -0.4888  0.0910
10336TIP3    H152499   5.783   3.972   2.640  0.2448  0.5266  1.2808
10336TIP3    H252500   5.733   4.108   2.597 -0.7197  0.1191  1.0794
10337TIP3   OH252501   2.445   1.983  11.108  0.7467  0.1372  0.5267
10337TIP3    H152502   2.517   2.006  11.049  1.5622 -1.9030  0.6425
10337TIP3    H252503   2.425   1.892  11.087 -0.7835  0.1943  1.5736
10338TIP3   OH252504   2.606   1.054  15.241 -0.1045  0.3761 -0.4933
10338TIP3    H152505   2.636   0.992  15.309 -0.2816  1.4024  0.5480
10338TIP3    H252506   2.533   1.009  15.199 -0.8341  0.2418  0.8774
10339TIP3   OH252507   5.306   5.440  16.123 -0.1745  0.1449  0.5860
10339TIP3    H152508   5.217   5.446  16.088  0.1417 -2.4305 -0.9520
10339TIP3    H252509   5.302   5.367  16.185  0.8608 -0.0430  0.4414
10340TIP3   OH252510   2.650   1.304  11.550  0.1079 -0.3797 -0.4326
10340TIP3    H152511   2.676   1.368  11.617  1.1060 -0.8637 -0.3329
10340TIP3    H252512   2.733   1.277  11.510 -0.3679 -1.0514 -0.9823
10341TIP3   OH252513   4.006   2.997   1.643  0.2800  0.1306 -0.6216
10341TIP3    H152514   3.972   2.980   1.731 -0.2381 -2.4723 -1.2361
10341TIP3    H252515   4.095   3.030   1.658 -0.2968  1.1101  0.8773
10342TIP3   OH252516   3.648   6.251   3.442 -0.8229 -0.3431 -1.0184
10342TIP3    H152517   3.631   6.255   3.536  0.0417 -1.5112 -0.7818
10342TIP3    H252518   3.571   6.290   3.401 -0.6679  1.3477  0.2021
10343TIP3   OH252519   5.850   1.388  13.581 -0.4467 -0.0516  0.3295
10343TIP3    H152520   5.814   1.415  13.666  1.5098 -0.8851  1.4966
10343TIP3    H252521   5.925   1.446  13.568  1.5813 -2.3410  1.0825
10344TIP3   OH252522   3.210   4.794  11.707  0.7016 -0.1149  0.0963
10344TIP3    H152523   3.157   4.715  11.719 -1.0783  0.7902 -1.3034
10344TIP3    H252524   3.301   4.764  11.712  0.0664 -2.0050  0.9282
10345TIP3   OH252525   6.219   0.331  13.480 -0.8229  0.2714  0.1227
10345TIP3    H152526   6.274   0.375  13.415  0.6673 -0.7175  0.6725
10345TIP3    H252527   6.133   0.373  13.470 -0.3770  0.8585 -1.7543
10346TIP3   OH252528   6.693   5.176  12.148  0.2291 -0.3250  0.0027
10346TIP3    H152529   6.740   5.255  12.123  0.0180 -0.5069 -0.9967
10346TIP3    H252530   6.739   5.145  12.226  0.6297  0.4969  0.1005
10347TIP3   OH252531   4.022   6.584  16.355 -0.0355  0.0221  0.2284
10347TIP3    H152532   3.934   6.615  16.336  0.1598  0.8066  0.5632
10347TIP3    H252533   4.075   6.616  16.282 -0.5391 -3.1724 -1.7334
10348TIP3   OH252534   0.041   0.460  14.250  0.1405  0.0056  0.1660
10348TIP3    H152535   0.097   0.441  14.175  0.4280 -1.2079  0.6619
10348TIP3    H252536   0.049   0.554  14.263  2.7281 -0.2255  0.7123
10349TIP3   OH252537   1.861   6.096   6.366  0.6147  0.0623 -0.1221
10349TIP3    H152538   1.928   6.079   6.432 -1.6832  0.1138  2.4202
10349TIP3    H252539   1.836   6.009   6.335  1.0118 -0.0370 -0.1688
10350TIP3   OH252540   2.125   1.646  11.425 -0.2405  0.2621  0.5914
10350TIP3    H152541   2.177   1.623  11.348  1.3123  2.9198  0.7102
10350TIP3    H252542   2.108   1.562  11.468  2.7386 -0.9257 -0.2702
10351TIP3   OH252543   3.663   4.887   5.419 -0.5784 -0.0748  0.5160
10351TIP3    H152544   3.731   4.847   5.473 -0.9544  0.1967  1.2005
10351TIP3    H252545   3.711   4.934   5.351 -0.1160 -1.1625  0.0511
10352TIP3   OH252546   6.571   2.367  16.917 -0.2334  0.2143 -0.0479
10352TIP3    H152547   6.595   2.404  16.832  0.9529  2.1664  1.0395
10352TIP3    H252548   6.484   2.330  16.904  0.4653 -0.7680 -2.4278
10353TIP3   OH252549   5.661   5.499  13.000  0.2079  0.2840 -0.8137
10353TIP3    H152550   5.637   5.582  13.040  1.1548  0.1709  0.0404
10353TIP3    H252551   5.583   5.471  12.952 -0.6061  0.9461  0.1047
10354TIP3   OH252552   2.264   3.995   2.084  0.3360 -0.1914  0.4114
10354TIP3    H152553   2.293   3.947   2.161  3.3542 -0.3911 -0.7188
10354TIP3    H252554   2.343   4.040   2.052 -1.0078  0.6317 -2.0175
10355TIP3   OH252555   5.217   6.153   4.327 -0.5676 -0.5058 -0.4274
10355TIP3    H152556   5.277   6.223   4.352 -0.4563 -1.3051  1.7480
10355TIP3    H252557   5.261   6.072   4.355 -0.2257 -1.6323 -3.7330
10356TIP3   OH252558   1.125   0.774  11.183 -0.7212  0.3811  0.3205
10356TIP3    H152559   1.195   0.716  11.153 -1.0207 -0.9667  2.0799
10356TIP3    H252560   1.046   0.721  11.178 -1.2840  1.1871  0.4038
10357TIP3   OH252561   2.416   4.620   2.241  0.0562  0.3826 -0.1334
10357TIP3    H152562   2.363   4.567   2.301 -0.2675 -1.0784 -1.6153
10357TIP3    H252563   2.494   4.566   2.225  1.5076  2.0084  1.1377
10358TIP3   OH252564   0.664   4.061  15.836 -0.6487  0.3380 -0.4461
10358TIP3    H152565   0.591   4.072  15.897 -0.8775  1.7037 -0.9433
10358TIP3    H252566   0.723   4.000  15.880 -0.5606  1.6756  1.4100
10359TIP3   OH252567   4.309   6.766  12.208 -0.2799  0.5085 -0.1640
10359TIP3    H152568   4.230   6.799  12.167  1.1783  1.7984 -2.0842
10359TIP3    H252569   4.303   6.671  12.199 -1.3095  0.6300 -0.8341
10360TIP3   OH252570   5.913   0.627   2.472 -0.1847 -0.1214  0.6481
10360TIP3    H152571   5.924   0.697   2.537  0.2760  1.2672 -0.8823
10360TIP3    H252572   6.000   0.617   2.432 -1.1169  1.2899 -1.9372
10361TIP3   OH252573   4.143   5.508   4.070  0.2924 -0.2899 -0.5918
10361TIP3    H152574   4.219   5.535   4.121  0.1143 -1.2610  0.2200
10361TIP3    H252575   4.173   5.509   3.979  0.8210  0.8007 -0.4120
10362TIP3   OH252576   1.763   4.657  14.596  0.1120 -0.2402  0.1244
10362TIP3    H152577   1.801   4.653  14.508  0.4933 -0.0070  0.2743
10362TIP3    H252578   1.686   4.601  14.592 -0.9032  1.1766 -0.8712
10363TIP3   OH252579   5.781   1.910  10.310 -0.0542  0.5419  0.5265
10363TIP3    H152580   5.823   1.992  10.285  1.3566 -0.0777  0.7625
10363TIP3    H252581   5.739   1.878  10.230  0.1677  1.0444  0.2097
10364TIP3   OH252582   5.288   1.084  12.355  0.0628 -0.2451 -0.6625
10364TIP3    H152583   5.364   1.073  12.413  0.4982  1.0766 -0.9510
10364TIP3    H252584   5.213   1.083  12.414  0.2017 -2.2138 -0.4304
10365TIP3   OH252585   5.365   4.616  15.482 -0.3133  0.4127 -0.0075
10365TIP3    H152586   5.334   4.589  15.396 -1.0967 -0.9926  0.6776
10365TIP3    H252587   5.450   4.657  15.465 -0.7567  0.7554 -1.5048
10366TIP3   OH252588   6.361   0.750   4.972  0.0117  0.4015  0.5571
10366TIP3    H152589   6.352   0.746   4.876  1.0116  0.6029  0.4390
10366TIP3    H252590   6.276   0.779   5.003  0.3831  2.7963 -0.4761
10367TIP3   OH252591   0.808   6.617   0.057 -0.3120 -0.6733  0.4458
10367TIP3    H152592   0.904   6.623   0.062 -0.3549 -0.3609  1.0526
10367TIP3    H252593   0.789   6.525   0.073 -0.0667 -0.9310 -0.6630
10368TIP3   OH252594   6.223   3.001  17.042 -0.1025  0.4735 -0.1942
10368TIP3    H152595   6.290   2.939  17.072  0.2931  0.1190 -1.7100
10368TIP3    H252596   6.168   3.016  17.119 -0.3555 -1.9480  0.2025
10369TIP3   OH252597   5.350   0.660  13.651  0.3586 -0.0391  0.0880
10369TIP3    H152598   5.389   0.583  13.609  0.1920 -1.2617  2.0372
10369TIP3    H252599   5.289   0.694  13.586 -0.9379 -2.6910 -0.2435
10370TIP3   OH252600   5.696   4.381   4.469  0.3449 -0.3507  0.2520
10370TIP3    H152601   5.690   4.411   4.559  0.3547  0.1073  0.1061
10370TIP3    H252602   5.722   4.289   4.475  0.6674 -0.2310  0.7039
10371TIP3   OH252603   3.435   0.973   3.847  0.3306  0.1910 -0.8402
10371TIP3    H152604   3.474   0.955   3.761  0.8671 -0.4483 -0.4726
10371TIP3    H252605   3.473   1.057   3.873  0.3640  0.2622 -1.1161
10372TIP3   OH252606   0.851   4.584   4.028  0.0214 -0.4170  0.9403
10372TIP3    H152607   0.936   4.621   4.053  0.6560  0.8965 -2.5497
10372TIP3    H252608   0.853   4.495   4.063  0.9453  0.8721  4.6101
10373TIP3   OH252609   6.565   4.691   4.914  0.5072  0.0815  0.2671
10373TIP3    H152610   6.515   4.750   4.858  0.6576  0.0625  0.1121
10373TIP3    H252611   6.589   4.618   4.858  0.0796 -0.2672  0.5369
10374TIP3   OH252612   5.927   0.575  14.675 -0.3734 -0.3235  0.0537
10374TIP3    H152613   5.975   0.648  14.715  1.2872  0.0866 -2.4441
10374TIP3    H252614   5.835   0.599  14.684  0.0354  0.8377  1.4832
10375TIP3   OH252615   6.663   5.835   5.171 -0.6577 -0.4305 -0.3372
10375TIP3    H152616   6.632   5.786   5.094  2.0544  0.7167 -2.2929
10375TIP3    H252617   6.722   5.900   5.136 -0.4886  1.1925  2.6582
10376TIP3   OH252618   4.301   5.880  11.110 -0.3162 -0.6341 -0.3687
10376TIP3    H152619   4.396   5.881  11.119 -0.1753  0.7306 -1.5316
10376TIP3    H252620   4.269   5.927  11.187  0.0772  0.2996 -0.7546
10377TIP3   OH252621   1.184   0.934  16.343  0.3015 -0.2896 -0.3155
10377TIP3    H152622   1.210   0.890  16.423  2.2124  0.3771 -0.5231
10377TIP3    H252623   1.187   0.865  16.276 -0.4527 -0.6514  0.0082
10378TIP3   OH252624   2.624   5.351  16.497 -0.0149  0.0593  0.1548
10378TIP3    H152625   2.673   5.272  16.474  0.6093  0.7448 -0.9684
10378TIP3    H252626   2.605   5.393  16.413 -0.7922  0.8290  0.7008
10379TIP3   OH252627   0.442   5.926  13.999 -0.1973 -1.3687 -0.1558
10379TIP3    H152628   0.484   5.911  13.915 -0.8545 -1.8238 -0.4130
10379TIP3    H252629   0.509   5.969  14.052  0.1208 -0.7685 -1.0119
10380TIP3   OH252630   0.644   4.673  13.330  0.0541  0.2461  0.0484
10380TIP3    H152631   0.632   4.631  13.415 -0.1772  1.1102  0.4526
10380TIP3    H252632   0.696   4.610  13.279 -1.5574 -1.2158  0.0909
10381TIP3   OH252633   3.769   4.626   3.072 -0.2063  0.4081 -0.2296
10381TIP3    H152634   3.732   4.672   2.997  2.1726  1.6440 -0.7377
10381TIP3    H252635   3.731   4.671   3.148  0.1219  1.5699 -0.7273
10382TIP3   OH252636   5.020   5.878   4.356 -0.4467  0.6272 -0.0895
10382TIP3    H152637   5.112   5.891   4.334 -0.2199 -2.0580 -0.9971
10382TIP3    H252638   4.974   5.883   4.272 -1.0806  1.2576  0.2746
10383TIP3   OH252639   6.840   3.201  13.323  0.2692 -0.4440  0.2528
10383TIP3    H152640   6.910   3.169  13.380 -0.5718  0.2642  1.7356
10383TIP3    H252641   6.834   3.294  13.344 -1.7438 -0.6720  0.8667
10384TIP3   OH252642   3.770   5.080   5.719  0.5854  0.0911 -0.2777
10384TIP3    H152643   3.738   5.090   5.809 -0.1136 -2.0737 -0.2190
10384TIP3    H252644   3.692   5.094   5.665  0.6998 -0.0167 -0.4692
10385TIP3   OH252645   0.064   6.804  14.782  0.1228 -0.0303  0.0065
10385TIP3    H152646   0.041   6.875  14.723  3.0524 -0.0788 -1.3940
10385TIP3    H252647   0.018   6.824  14.863 -0.5564  2.4779 -0.9067
10386TIP3   OH252648   1.099   0.753  17.025 -0.0953 -0.1168  0.4710
10386TIP3    H152649   1.013   0.728  17.058  0.0525 -0.8204  0.3411
10386TIP3    H252650   1.131   0.816  17.089 -0.2526 -0.6803  1.1241
10387TIP3   OH252651   4.931   1.236   1.773  0.7291 -0.6346  0.0733
10387TIP3    H152652   5.010   1.187   1.750  1.7888  1.6033 -1.5089
10387TIP3    H252653   4.877   1.233   1.694  0.3477 -0.1450  0.3091
10388TIP3   OH252654   3.671   6.466   6.125 -0.7207 -0.1848 -0.1436
10388TIP3    H152655   3.653   6.438   6.215 -0.0549 -0.0799  0.0254
10388TIP3    H252656   3.646   6.559   6.124 -1.6894 -0.4300 -0.3528
10389TIP3   OH252657   4.195   6.454  11.423 -0.3768 -0.4636  0.1378
10389TIP3    H152658   4.224   6.398  11.496 -2.3169 -1.8881 -0.1177
10389TIP3    H252659   4.201   6.398  11.346  0.7365  0.7438 -0.7119
10390TIP3   OH252660   5.118   1.093  13.803  0.2555 -0.3595 -0.0378
10390TIP3    H152661   5.120   1.188  13.809 -0.6688 -0.3924  1.2144
10390TIP3    H252662   5.164   1.062  13.880  1.2288 -0.9506 -0.8297
10391TIP3   OH252663   3.243   4.173   1.623  0.4697 -0.1250 -0.5847
10391TIP3    H152664   3.298   4.115   1.571  1.5170 -1.2541  1.6320
10391TIP3    H252665   3.165   4.187   1.570  2.5342  0.9849 -3.5734
10392TIP3   OH252666   3.716   1.437   0.539  0.0585 -0.2761  0.6252
10392TIP3    H152667   3.770   1.404   0.466 -0.1572  0.9338 -0.1141
10392TIP3    H252668   3.736   1.530   0.543 -0.4083 -0.2086  1.7315
10393TIP3   OH252669   5.989   6.353   3.120  0.3116  0.2578  0.0403
10393TIP3    H152670   6.023   6.298   3.050  0.0508  0.1693 -0.0168
10393TIP3    H252671   5.962   6.291   3.188 -0.1774  0.3041 -0.1103
10394TIP3   OH252672   3.469   3.572   3.620  0.0509 -0.0094  0.1245
10394TIP3    H152673   3.525   3.576   3.542 -0.8043  0.6782 -0.4827
10394TIP3    H252674   3.529   3.550   3.692  1.6182  3.0578 -0.0519
10395TIP3   OH252675   2.253   1.309  12.608  0.0919  0.3196 -0.3435
10395TIP3    H152676   2.229   1.285  12.518 -0.9855  0.5367 -0.1220
10395TIP3    H252677   2.177   1.287  12.660  0.0529  1.7896  0.2637
10396TIP3   OH252678   3.267   5.688   0.219  0.4670  0.3761 -0.0800
10396TIP3    H152679   3.326   5.648   0.283 -0.7070  0.0794  0.8541
10396TIP3    H252680   3.212   5.747   0.271 -1.0402 -0.4723 -0.6517
10397TIP3   OH252681   3.695   5.999   1.483 -0.3112 -0.7009 -0.5180
10397TIP3    H152682   3.706   6.084   1.439 -0.4267 -0.8239 -0.7852
10397TIP3    H252683   3.616   6.010   1.536  0.4983 -0.1513  0.6144
10398TIP3   OH252684   5.061   0.478   5.134 -0.1239  0.1453 -0.7249
10398TIP3    H152685   5.146   0.492   5.094  0.4233 -1.5572 -0.2423
10398TIP3    H252686   5.030   0.396   5.097 -1.7914  0.9677 -1.2399
10399TIP3   OH252687   0.649   6.251   2.982  0.2361  0.0103  0.0037
10399TIP3    H152688   0.731   6.218   3.020  1.1208 -1.1305 -2.6999
10399TIP3    H252689   0.674   6.328   2.931 -0.5817  0.3216  0.0502
10400TIP3   OH252690   0.261   2.098   3.057 -0.4056  0.0630 -0.0070
10400TIP3    H152691   0.245   2.056   2.973 -0.2058 -0.1449  0.0575
10400TIP3    H252692   0.174   2.107   3.096 -0.4408 -0.3725  0.0162
10401TIP3   OH252693   5.130   5.423  14.132  0.1545 -0.5702  0.2194
10401TIP3    H152694   5.167   5.489  14.190 -0.6054 -1.1294  1.3662
10401TIP3    H252695   5.077   5.473  14.070  1.4551  0.0834 -0.4197
10402TIP3   OH252696   5.398   5.218  12.291 -0.3344  0.7366 -0.1706
10402TIP3    H152697   5.396   5.260  12.377  0.7730 -0.7961  0.6424
10402TIP3    H252698   5.422   5.289  12.231 -0.2652  1.6561  0.9011
10403TIP3   OH252699   2.955   1.491  13.325 -0.1715 -0.4136 -0.3154
10403TIP3    H152700   2.963   1.397  13.341 -3.6363 -0.5190  1.9275
10403TIP3    H252701   2.888   1.498  13.256  2.7369  0.4958 -3.2948
10404TIP3   OH252702   3.773   4.769   2.129  0.5157 -0.0921  0.3360
10404TIP3    H152703   3.868   4.763   2.142  0.6165 -1.8685 -0.8506
10404TIP3    H252704   3.750   4.688   2.083 -1.6645  0.0827  1.0110
10405TIP3   OH252705   0.509   3.881   3.008  0.4124 -0.0148 -0.2234
10405TIP3    H152706   0.440   3.844   3.063 -1.3562  0.5828 -1.9217
10405TIP3    H252707   0.501   3.976   3.021  0.8883  0.0603 -0.4723
10406TIP3   OH252708   4.707   6.542   2.834  0.2751 -0.8817  0.4387
10406TIP3    H152709   4.725   6.553   2.928 -1.2945  0.7686  0.5932
10406TIP3    H252710   4.714   6.630   2.798  0.9038 -1.5104 -1.0331
10407TIP3   OH252711   4.680   6.109  11.505 -0.1028 -0.1241  0.2864
10407TIP3    H152712   4.699   6.038  11.443  0.3521  0.8376 -0.7147
10407TIP3    H252713   4.759   6.116  11.558 -0.0967 -0.2838  0.2988
10408TIP3   OH252714   0.179   6.540   1.066 -0.5049 -0.2604 -0.7229
10408TIP3    H152715   0.108   6.489   1.028 -1.6619  2.4491 -2.5547
10408TIP3    H252716   0.160   6.631   1.039  2.7767  0.8020  0.0765
10409TIP3   OH252717   6.834   0.827   5.606  0.5199  0.0629 -0.4240
10409TIP3    H152718   6.893   0.891   5.565  0.0374  0.1371 -1.0148
10409TIP3    H252719   6.772   0.880   5.656 -0.9423  0.1981 -2.2888
10410TIP3   OH252720   3.673   2.708  12.409  0.4596 -0.3705  0.5369
10410TIP3    H152721   3.656   2.789  12.458 -0.2380 -0.2141  0.0501
10410TIP3    H252722   3.667   2.639  12.476  0.4565 -0.0756  0.8478
10411TIP3   OH252723   5.846   0.212  16.877 -0.1200 -0.4707 -0.0938
10411TIP3    H152724   5.826   0.163  16.798 -0.9551  0.5264 -0.5097
10411TIP3    H252725   5.793   0.170  16.945 -0.0851 -0.7580 -0.2408
10412TIP3   OH252726   0.483   2.270  16.720 -0.4717 -0.1098  0.2146
10412TIP3    H152727   0.472   2.220  16.801 -2.5545 -0.1551 -0.0339
10412TIP3    H252728   0.461   2.360  16.744  2.1626  0.5636  0.3969
10413TIP3   OH252729   0.725   2.446  16.202 -1.0752 -0.9333 -0.9984
10413TIP3    H152730   0.756   2.407  16.284  1.4128  1.8909 -0.3961
10413TIP3    H252731   0.804   2.453  16.148 -1.6690  1.5980 -1.6789
10414TIP3   OH252732   3.519   5.565   1.959 -0.2801  0.2763 -0.4021
10414TIP3    H152733   3.555   5.567   2.048  1.8270  1.4180 -1.1945
10414TIP3    H252734   3.576   5.506   1.911 -1.6404 -0.6464 -0.9433
10415TIP3   OH252735   1.588   6.647  15.249 -0.1743  0.3957  0.6592
10415TIP3    H152736   1.538   6.667  15.328 -0.0101 -1.4354  1.2843
10415TIP3    H252737   1.585   6.551  15.242 -1.8396  0.5483 -2.6832
10416TIP3   OH252738   0.893   0.581  11.187 -0.2562 -0.2277 -0.3971
10416TIP3    H152739   0.898   0.490  11.215  0.9311 -0.1808 -0.4066
10416TIP3    H252740   0.804   0.608  11.210 -0.1631 -0.9631  0.9049
10417TIP3   OH252741   5.192   4.390  14.315 -0.3766  0.1449 -0.4409
10417TIP3    H152742   5.155   4.442  14.244  1.6852  0.9125 -1.0354
10417TIP3    H252743   5.223   4.455  14.379  1.1339 -0.3549 -0.6256
10418TIP3   OH252744   6.421   6.523   2.496  0.0367 -0.0578  0.2139
10418TIP3    H152745   6.436   6.487   2.583  0.4269  2.3298  1.2305
10418TIP3    H252746   6.405   6.617   2.511 -1.2974  0.1977 -2.1646
10419TIP3   OH252747   3.493   3.831   4.573 -0.3631  0.3943 -0.2969
10419TIP3    H152748   3.542   3.877   4.641 -1.7304 -1.8383  2.4000
10419TIP3    H252749   3.560   3.803   4.511  1.0875  1.7230  0.5860
10420TIP3   OH252750   0.737   3.037   4.162  0.5638  0.2770 -0.1461
10420TIP3    H152751   0.724   2.951   4.122  2.3483  0.4246 -1.1652
10420TIP3    H252752   0.830   3.039   4.185  0.4720  1.7742  0.2243
10421TIP3   OH252753   5.005   5.510   2.064  0.2248 -0.2256  0.1846
10421TIP3    H152754   4.972   5.464   2.141  0.0978 -0.1956  0.1490
10421TIP3    H252755   4.927   5.530   2.013  0.1534  1.0289  0.7520
10422TIP3   OH252756   0.704   0.268   2.717  0.0704  0.4716 -0.5361
10422TIP3    H152757   0.696   0.248   2.624 -0.6996  0.6366 -0.5151
10422TIP3    H252758   0.797   0.256   2.737 -0.0748 -1.6278 -0.8631
10423TIP3   OH252759   6.030   3.952   0.730  0.5619 -0.2803 -0.2289
10423TIP3    H152760   5.973   3.919   0.799 -0.7460  0.2492 -0.9991
10423TIP3    H252761   6.102   3.995   0.776 -0.4447  0.3490  0.8237
10424TIP3   OH252762   6.214   0.750   2.786  0.0034 -0.6102  0.8205
10424TIP3    H152763   6.303   0.771   2.755 -0.3460  0.2652  0.3820
10424TIP3    H252764   6.223   0.744   2.881 -0.0195  2.5384  1.1237
10425TIP3   OH252765   3.952   5.524  13.064 -0.2166 -0.5020 -0.0880
10425TIP3    H152766   3.993   5.507  13.149  0.7095  1.6751 -0.0328
10425TIP3    H252767   4.023   5.556  13.009 -0.7654 -2.0082 -1.7832
10426TIP3   OH252768   5.453   4.387  15.179  0.5350 -0.0257 -0.1870
10426TIP3    H152769   5.373   4.409  15.226 -0.3207  0.9616 -2.0204
10426TIP3    H252770   5.430   4.310  15.127  1.9967 -2.2633  2.2010
10427TIP3   OH252771   0.756   4.579   6.261  0.2623 -0.1350  0.6736
10427TIP3    H152772   0.722   4.536   6.340 -0.3621  0.6413  0.8400
10427TIP3    H252773   0.743   4.672   6.277  1.0872  0.0941  0.0802
10428TIP3   OH252774   3.998   0.813  14.594 -0.1829  0.8588 -0.0452
10428TIP3    H152775   4.021   0.723  14.618  0.4487  0.9005 -0.4591
10428TIP3    H252776   3.938   0.804  14.520  1.2722  0.7825 -1.2616
10429TIP3   OH252777   5.715   2.576   3.949 -0.1675  0.0915  0.2944
10429TIP3    H152778   5.635   2.527   3.928  1.2872 -1.1726 -3.1023
10429TIP3    H252779   5.685   2.661   3.981 -2.9215  0.0913 -1.9622
10430TIP3   OH252780   5.952   4.011  15.540  0.7939  0.3604 -0.1493
10430TIP3    H152781   5.995   3.990  15.622  0.7837  1.8219  0.2705
10430TIP3    H252782   5.900   3.934  15.519  0.1119  0.2802  1.6822
10431TIP3   OH252783   1.915   4.869  14.216 -0.2961 -0.0799  0.2109
10431TIP3    H152784   1.950   4.794  14.263  0.4086 -0.1904 -0.4703
10431TIP3    H252785   1.831   4.839  14.182 -0.1954 -0.4300  0.2669
10432TIP3   OH252786   1.134   5.582   5.040  0.1988  0.1820  0.1927
10432TIP3    H152787   1.143   5.640   5.115  0.6861  0.1760  0.1481
10432TIP3    H252788   1.116   5.640   4.966  1.8128  0.4132 -0.0604
10433TIP3   OH252789   2.458   5.908   5.839 -0.6977 -0.2699  0.2772
10433TIP3    H152790   2.372   5.939   5.810 -0.9718 -1.9151 -0.8241
10433TIP3    H252791   2.453   5.813   5.830  1.4520 -0.3615 -0.4097
10434TIP3   OH252792   2.484   5.036   2.130 -0.2918  0.5643  0.2217
10434TIP3    H152793   2.414   4.975   2.104  1.4307 -1.3035 -0.3309
10434TIP3    H252794   2.511   5.077   2.047  0.4804 -0.1185  0.1217
10435TIP3   OH252795   5.291   0.330   4.361 -0.3216  0.2515 -0.5096
10435TIP3    H152796   5.339   0.369   4.434 -1.5590  0.3168  0.2969
10435TIP3    H252797   5.200   0.354   4.377 -0.5650  0.8368 -2.4326
10436TIP3   OH252798   4.959   1.002  12.561 -0.0611 -0.0749  0.4491
10436TIP3    H152799   5.029   1.000  12.626 -0.0544  0.4769  0.4570
10436TIP3    H252800   4.887   0.954  12.603 -0.3198  0.9165  1.1632
10437TIP3   OH252801   6.269   5.706  13.246 -0.4832 -0.0523  0.1075
10437TIP3    H152802   6.317   5.785  13.273 -1.4008  0.4284  0.3572
10437TIP3    H252803   6.302   5.686  13.158  1.1336 -0.5065  0.7773
10438TIP3   OH252804   2.251   0.650   2.242 -0.1082 -0.3814  0.7934
10438TIP3    H152805   2.216   0.572   2.284  0.3818 -1.1053 -0.1156
10438TIP3    H252806   2.207   0.653   2.156  3.0152 -2.1495 -1.0293
10439TIP3   OH252807   3.746   1.940   6.415 -0.0954 -0.0241  0.3362
10439TIP3    H152808   3.810   1.933   6.486 -1.4554 -2.3936  1.4194
10439TIP3    H252809   3.793   1.908   6.338  0.2709 -1.0887  0.9760
10440TIP3   OH252810   5.716   1.112   3.578  0.4028  0.2968  0.6349
10440TIP3    H152811   5.672   1.045   3.526  1.9165  0.4471 -0.9527
10440TIP3    H252812   5.759   1.063   3.648  0.3740 -0.2268  0.2913
10441TIP3   OH252813   4.158   0.551  13.494  0.1321  0.1289  0.5908
10441TIP3    H152814   4.098   0.516  13.428  2.7186 -2.1449 -0.7826
10441TIP3    H252815   4.211   0.615  13.447  0.6812 -0.0337  0.9782
10442TIP3   OH252816   2.340   2.373  11.604 -0.0742 -1.0285  0.6578
10442TIP3    H152817   2.348   2.428  11.682 -1.1413 -0.8290  0.6468
10442TIP3    H252818   2.365   2.431  11.532 -0.1979 -0.8652  0.7451
10443TIP3   OH252819   4.240   6.140   5.557 -0.6590  0.2964 -0.1097
10443TIP3    H152820   4.301   6.068   5.545 -0.2009  0.8917 -1.6006
10443TIP3    H252821   4.213   6.164   5.468  0.5840  3.1144  0.1369
10444TIP3   OH252822   1.172   6.094   0.821 -0.1457  0.3392 -0.3191
10444TIP3    H152823   1.171   6.034   0.896  0.9040  0.7731  0.0532
10444TIP3    H252824   1.132   6.174   0.853 -1.3090 -0.0491 -0.7435
10445TIP3   OH252825   1.690   6.695   0.131 -0.1294 -0.1627  0.0635
10445TIP3    H152826   1.635   6.635   0.181  2.4651 -1.1309  1.9157
10445TIP3    H252827   1.734   6.640   0.066  0.3134  0.2040  0.0443
10446TIP3   OH252828   6.642   6.188  12.436 -0.0006  0.5546  0.5101
10446TIP3    H152829   6.680   6.101  12.428  0.2314  0.2089  3.8558
10446TIP3    H252830   6.654   6.228  12.350 -0.2451 -2.7181 -1.1864
10447TIP3   OH252831   1.779   4.926   5.741  0.3755  0.1976 -0.0199
10447TIP3    H152832   1.766   4.883   5.656 -0.7908  2.7386 -1.2249
10447TIP3    H252833   1.707   4.894   5.795  0.0428 -0.0279 -0.5832
10448TIP3   OH252834   0.531   3.508   3.313  0.2966 -0.1642  0.8284
10448TIP3    H152835   0.571   3.582   3.357 -1.4331 -0.2128  2.6374
10448TIP3    H252836   0.561   3.431   3.362  1.4490 -0.6286 -0.5450
10449TIP3   OH252837   4.863   2.408   4.229  0.0401  0.2203 -0.3694
10449TIP3    H152838   4.936   2.397   4.169  0.5072 -0.3913  0.2964
10449TIP3    H252839   4.861   2.327   4.280 -1.0876  0.2436 -0.3600
10450TIP3   OH252840   3.662   1.548   2.893  0.1688  0.7678 -0.6619
10450TIP3    H152841   3.734   1.520   2.837  0.3931  0.8956 -0.4404
10450TIP3    H252842   3.623   1.466   2.924  0.9835  0.6838  0.1882
10451TIP3   OH252843   5.097   4.080   6.482  0.2107 -0.3260  0.3575
10451TIP3    H152844   5.100   4.162   6.531 -0.9898  1.1773 -1.9267
10451TIP3    H252845   5.167   4.087   6.418 -1.1397 -0.1626 -1.1526
10452TIP3   OH252846   4.633   4.445   0.009 -0.6005  0.8552 -0.3143
10452TIP3    H152847   4.607   4.355   0.030  1.3740  0.4187  0.5485
10452TIP3    H252848   4.683   4.437  -0.072  0.9056  0.8997  0.5764
10453TIP3   OH252849   2.284   5.008   2.533  0.3537  0.0325  0.1312
10453TIP3    H152850   2.236   4.935   2.494  3.1884 -1.4854 -0.8031
10453TIP3    H252851   2.265   5.082   2.476  1.0440 -1.1295 -1.6902
10454TIP3   OH252852   6.642   0.912  15.920  0.5691  0.4683  0.1835
10454TIP3    H152853   6.595   0.992  15.898  0.5779  0.3481 -0.2808
10454TIP3    H252854   6.576   0.856  15.961  0.2162  0.1694 -0.7641
10455TIP3   OH252855   3.007   0.543  17.049  0.4051  0.4198 -0.3222
10455TIP3    H152856   3.052   0.547  16.964 -1.1949  0.1784 -1.2264
10455TIP3    H252857   3.034   0.459  17.087  0.7177  0.2751 -0.8571
10456TIP3   OH252858   0.956   5.337   0.525 -0.3499  0.5214 -0.7252
10456TIP3    H152859   0.996   5.315   0.609 -0.9334  0.4767 -0.4572
10456TIP3    H252860   1.008   5.411   0.493 -1.8275  2.4149  1.0078
10457TIP3   OH252861   4.352   3.258  14.340  0.3170  0.4603 -0.1026
10457TIP3    H152862   4.364   3.324  14.409 -0.7181  0.1809  0.3627
10457TIP3    H252863   4.370   3.306  14.259  0.3144  1.1207  0.2707
10458TIP3   OH252864   5.211   3.772  10.892 -0.1415 -0.4449  0.6277
10458TIP3    H152865   5.131   3.726  10.866 -0.9310  0.5737  1.1545
10458TIP3    H252866   5.240   3.725  10.970  0.5446 -1.6359 -0.3030
10459TIP3   OH252867   2.805   1.099   2.395 -0.2204  0.0985  0.4215
10459TIP3    H152868   2.809   1.083   2.490 -2.0380 -0.8378  0.3871
10459TIP3    H252869   2.723   1.058   2.368 -0.9475  2.4012 -1.1664
10460TIP3   OH252870   5.743   2.170   4.617 -0.0292 -0.8181 -0.3500
10460TIP3    H152871   5.807   2.102   4.638 -1.2303 -1.3805  1.8295
10460TIP3    H252872   5.789   2.252   4.634  1.0058 -1.0688 -1.7025
10461TIP3   OH252873   0.175   4.540   1.875  0.3106 -0.6625 -0.1342
10461TIP3    H152874   0.159   4.446   1.864 -1.1985 -0.2591 -2.1046
10461TIP3    H252875   0.152   4.578   1.790 -0.0720  1.5961  0.8988
10462TIP3   OH252876   5.383   3.498   1.744 -0.1816  0.3842  0.1340
10462TIP3    H152877   5.303   3.447   1.757  0.1037  0.0808  0.7624
10462TIP3    H252878   5.449   3.434   1.720  0.4536  0.2590  2.0574
10463TIP3   OH252879   4.612   0.527   0.115 -0.1414 -0.6748 -0.2835
10463TIP3    H152880   4.538   0.582   0.091 -1.7809 -3.1542 -1.1748
10463TIP3    H252881   4.641   0.487   0.034  2.7487  0.7362 -0.1023
10464TIP3   OH252882   6.419   4.288  13.009  0.0740 -0.4632 -0.0504
10464TIP3    H152883   6.496   4.290  12.952 -0.2244  0.0179 -0.4480
10464TIP3    H252884   6.410   4.196  13.036  0.3446 -0.6515 -0.6052
10465TIP3   OH252885   1.315   2.863   5.056  0.3081 -0.0495 -0.0411
10465TIP3    H152886   1.285   2.858   4.966  0.7713  1.2384 -0.2909
10465TIP3    H252887   1.243   2.907   5.103  1.0940  1.5900 -0.3187
10466TIP3   OH252888   1.095   2.179   6.304 -0.1096 -0.0136 -0.3349
10466TIP3    H152889   1.097   2.123   6.227 -0.9410  0.0287 -0.3982
10466TIP3    H252890   1.009   2.221   6.301 -0.4887 -0.6133  1.0322
10467TIP3   OH252891   5.829   1.043  11.198  0.2292 -0.0916 -0.6374
10467TIP3    H152892   5.787   1.042  11.112  0.0151  0.0078 -0.5340
10467TIP3    H252893   5.798   0.963  11.240  2.8570 -1.9024 -1.8486
10468TIP3   OH252894   1.229   3.094  12.143 -0.1929  0.6644 -0.0541
10468TIP3    H152895   1.267   3.007  12.129  1.9314  1.7770 -1.6979
10468TIP3    H252896   1.216   3.099  12.238  2.4765 -0.3842  0.4654
10469TIP3   OH252897   5.441   6.574  16.899  0.0511  0.1777 -1.2211
10469TIP3    H152898   5.465   6.575  16.806 -1.3655  1.2609 -1.6192
10469TIP3    H252899   5.485   6.652  16.935  0.2996 -0.0359 -1.0608
10470TIP3   OH252900   2.419   1.755   3.847 -0.2151  0.0695  0.3487
10470TIP3    H152901   2.336   1.798   3.828  0.8872  1.5237 -1.4709
10470TIP3    H252902   2.486   1.813   3.810  1.6189 -1.1853  1.5093
10471TIP3   OH252903   1.377   6.672  11.710  0.5398  0.8722 -0.2422
10471TIP3    H152904   1.359   6.732  11.638 -0.0279 -0.1648 -0.9930
10471TIP3    H252905   1.430   6.603  11.672 -0.8032 -0.3374  0.0047
10472TIP3   OH252906   4.383   4.669  13.928  0.0042  0.1764  0.3448
10472TIP3    H152907   4.448   4.604  13.953  0.1914  0.6560  1.1593
10472TIP3    H252908   4.311   4.656  13.990  0.2616  1.0583  0.8505
10473TIP3   OH252909   3.807   0.766  15.232  0.5384 -0.5016 -0.7650
10473TIP3    H152910   3.778   0.710  15.304  0.1193  1.0966  0.3870
10473TIP3    H252911   3.896   0.739  15.214  1.2751  0.1356  1.5458
10474TIP3   OH252912   0.592   2.129   3.007  0.0958  0.4041 -0.9520
10474TIP3    H152913   0.674   2.171   2.981  0.7014 -0.4303 -0.4527
10474TIP3    H252914   0.566   2.078   2.931  0.7079 -0.3024 -0.7037
10475TIP3   OH252915   6.592   4.234   6.065  0.2768  0.0903 -0.5165
10475TIP3    H152916   6.594   4.156   6.120  1.5121  1.1761  1.0552
10475TIP3    H252917   6.666   4.286   6.093  1.1280  0.6460 -3.4062
10476TIP3   OH252918   5.033   5.529   5.700 -0.3386  0.3471  0.2463
10476TIP3    H152919   5.070   5.612   5.667  0.0140  0.9785  2.1191
10476TIP3    H252920   4.948   5.522   5.657  0.6338  0.4221 -1.8078
10477TIP3   OH252921   4.833   3.230  15.062 -0.4637 -0.3550  0.3985
10477TIP3    H152922   4.836   3.155  15.122 -0.2689 -0.4824  0.2270
10477TIP3    H252923   4.901   3.289  15.095 -1.2869  0.2016  1.1392
10478TIP3   OH252924   6.116   0.113  11.010 -0.5111  0.1353  0.4121
10478TIP3    H152925   6.174   0.185  10.987 -1.4317  0.5591 -0.6741
10478TIP3    H252926   6.112   0.115  11.106 -0.9978  1.9368  0.3798
10479TIP3   OH252927   0.947   6.819   2.277  0.7127  0.3337 -0.2403
10479TIP3    H152928   1.038   6.835   2.303  0.3898  0.7432  0.6559
10479TIP3    H252929   0.936   6.724   2.286  1.5291  0.0289 -1.9759
10480TIP3   OH252930   0.665   4.928   3.706 -0.3484  0.3735 -0.5522
10480TIP3    H152931   0.601   4.997   3.726 -0.0286  0.7456 -0.7818
10480TIP3    H252932   0.676   4.932   3.611  3.2245  3.3273 -0.2501
10481TIP3   OH252933   1.896   0.807   3.714 -0.6295  0.3968 -0.2996
10481TIP3    H152934   1.870   0.763   3.794  1.8175 -1.8101 -0.5846
10481TIP3    H252935   1.927   0.737   3.657  1.2576  2.2579 -1.7205
10482TIP3   OH252936   3.546   1.414  13.301 -0.0747 -0.1120 -1.2007
10482TIP3    H152937   3.596   1.473  13.358 -0.4160 -0.1551 -0.8541
10482TIP3    H252938   3.505   1.471  13.237  0.7166 -0.1084 -1.7239
10483TIP3   OH252939   0.830   0.550   4.734 -0.0814  0.2987  0.2071
10483TIP3    H152940   0.923   0.569   4.728  0.1126 -0.5212  0.4995
10483TIP3    H252941   0.805   0.521   4.646  0.1836 -0.4963  0.3816
10484TIP3   OH252942   4.093   6.429   5.684  0.6750  0.0789  0.2240
10484TIP3    H152943   4.132   6.347   5.714 -0.5075 -0.0152  1.5916
10484TIP3    H252944   4.156   6.496   5.709  2.2578 -0.4529 -2.0212
10485TIP3   OH252945   0.566   0.111  16.372  0.4481  0.1732  0.0213
10485TIP3    H152946   0.610   0.181  16.325  3.4816  0.1262  2.4991
10485TIP3    H252947   0.511   0.068  16.305  0.3497  3.2925 -2.1156
10486TIP3   OH252948   5.833   4.567   3.235 -0.3335  0.4440 -0.2957
10486TIP3    H152949   5.845   4.644   3.290 -0.6829  0.7540 -0.6449
10486TIP3    H252950   5.749   4.582   3.191 -1.3486 -1.0213  1.0566
10487TIP3   OH252951   2.763   1.154   4.902  0.0869  0.5810 -0.2591
10487TIP3    H152952   2.821   1.159   4.978 -1.0473 -0.6389  0.7444
10487TIP3    H252953   2.795   1.079   4.852  0.2135  0.7570 -0.4430
10488TIP3   OH252954   4.229   3.937   1.642  0.5495  0.5016 -0.3859
10488TIP3    H152955   4.270   4.009   1.690 -0.4813  0.9950 -0.2085
10488TIP3    H252956   4.236   3.862   1.701 -0.8549  1.1420  0.6578
10489TIP3   OH252957   0.283   3.385   1.840 -0.6517 -0.0021 -0.0835
10489TIP3    H152958   0.328   3.300   1.838  1.5014  1.0564  0.2025
10489TIP3    H252959   0.265   3.404   1.748  1.6775  0.5748 -0.4801
10490TIP3   OH252960   6.699   0.152   1.748 -0.5579  0.0042  0.4402
10490TIP3    H152961   6.760   0.164   1.821 -1.7428  3.4231  1.0659
10490TIP3    H252962   6.735   0.207   1.679 -1.9543  0.6403  0.1991
10491TIP3   OH252963   5.545   6.422  11.472  0.5498  0.1864 -1.2850
10491TIP3    H152964   5.497   6.501  11.497  2.2450  1.3829 -1.6586
10491TIP3    H252965   5.545   6.423  11.376  0.3371 -0.4367 -1.2988
10492TIP3   OH252966   1.455   6.807  14.756  0.3433  0.1104 -0.2912
10492TIP3    H152967   1.537   6.765  14.784  1.6573  0.6673 -2.9491
10492TIP3    H252968   1.408   6.738  14.708  1.4253  0.8702 -2.6305
10493TIP3   OH252969   1.886   5.353   3.931  0.2727  0.1114 -0.1717
10493TIP3    H152970   1.823   5.291   3.893  0.1563  0.2190 -0.1574
10493TIP3    H252971   1.905   5.317   4.018 -0.1638  0.3459  0.0258
10494TIP3   OH252972   5.168   3.084   3.719  0.3963 -0.8837 -0.5810
10494TIP3    H152973   5.196   3.064   3.809 -0.3384 -2.5039 -0.6613
10494TIP3    H252974   5.130   3.001   3.688  1.5664 -0.6558 -2.7555
10495TIP3   OH252975   2.610   0.210  15.729  0.3996 -0.4375  0.4682
10495TIP3    H152976   2.529   0.198  15.679  0.3180 -0.8369  0.6926
10495TIP3    H252977   2.657   0.127  15.719 -0.3356 -1.1483  2.3428
10496TIP3   OH252978   6.043   6.388   6.011  0.1131  0.0656  0.6432
10496TIP3    H152979   6.094   6.395   5.930 -0.0410  0.7562  0.6057
10496TIP3    H252980   6.106   6.409   6.081  0.3334 -0.8516  0.7460
10497TIP3   OH252981   5.912   0.802  15.011  0.5992  0.1345 -0.6678
10497TIP3    H152982   5.973   0.731  15.029  0.5009  0.2560  0.1718
10497TIP3    H252983   5.968   0.876  14.986  0.8047  0.2227  0.0270
10498TIP3   OH252984   2.076   5.140  10.716  0.2057  0.1771 -0.6459
10498TIP3    H152985   2.038   5.071  10.662 -0.4984  0.1792 -0.1582
10498TIP3    H252986   2.166   5.112  10.731 -0.6041 -1.6609  1.2311
10499TIP3   OH252987   5.818   5.697  16.713 -0.0117  0.1874  0.7445
10499TIP3    H152988   5.873   5.620  16.703  1.7324  1.3462  1.1074
10499TIP3    H252989   5.728   5.663  16.705  0.7094 -1.8029  0.5523
10500TIP3   OH252990   6.169   2.791   4.400  0.1348  0.2160 -0.3143
10500TIP3    H152991   6.165   2.732   4.476  3.4891 -0.8013 -0.7585
10500TIP3    H252992   6.160   2.732   4.324 -2.0680  1.0878 -0.8160
10501TIP3   OH252993   4.188   4.365   2.869 -0.3541 -0.4783  0.0196
10501TIP3    H152994   4.206   4.419   2.946 -1.4521 -0.8810  0.5928
10501TIP3    H252995   4.096   4.339   2.879 -0.4032 -0.8660 -1.2339
10502TIP3   OH252996   3.691   5.833   3.051 -0.2062  0.2192  0.2273
10502TIP3    H152997   3.674   5.828   2.957 -0.0135  0.8622  0.1561
10502TIP3    H252998   3.619   5.886   3.085 -1.1789 -1.3360  0.6902
10503TIP3   OH252999   1.285   4.225  12.901  0.5781  0.2151 -0.1280
10503TIP3    H153000   1.283   4.264  12.813 -1.0808 -0.1280 -0.2732
10503TIP3    H253001   1.376   4.235  12.929  1.4085 -0.6006 -2.3067
10504TIP3   OH253002   3.839   4.427  15.395 -0.1366 -0.0807  0.2447
10504TIP3    H153003   3.780   4.499  15.374  0.4137  0.6188  1.0142
10504TIP3    H253004   3.813   4.399  15.483 -1.1829 -1.7045 -0.5302
10505TIP3   OH253005   3.124   6.816   3.086 -0.1054 -1.0769  0.0529
10505TIP3    H153006   3.165   6.902   3.073  2.4673 -2.3726 -1.1041
10505TIP3    H253007   3.105   6.812   3.180 -0.7704  0.9214  0.0458
10506TIP3   OH253008   1.969   0.752   4.383 -0.9266  0.3052 -0.0063
10506TIP3    H153009   2.016   0.822   4.428  1.0185 -1.7347  1.2815
10506TIP3    H253010   1.927   0.702   4.454 -3.6936  0.9957 -0.9975
10507TIP3   OH253011   1.367   5.859   5.428  0.3169 -0.8194  0.0225
10507TIP3    H153012   1.353   5.847   5.522  2.0091 -0.9948  0.2796
10507TIP3    H253013   1.460   5.838   5.415  0.1826 -0.4752 -1.6359
10508TIP3   OH253014   5.244   2.477   2.246 -0.0032  1.2316  0.5486
10508TIP3    H153015   5.330   2.516   2.237 -0.1178  1.1393 -1.4131
10508TIP3    H253016   5.247   2.398   2.192 -0.9125  0.5042  1.5054
10509TIP3   OH253017   6.577   0.102   0.928  1.0600 -1.1640  0.2505
10509TIP3    H153018   6.537   0.115   0.843 -0.6007 -2.8806  0.6848
10509TIP3    H253019   6.640   0.173   0.937  0.1242 -0.0122 -1.7070
10510TIP3   OH253020   1.866   4.202  14.333  0.4762 -0.2377  0.2450
10510TIP3    H153021   1.777   4.235  14.320  0.9446  1.1762  0.3592
10510TIP3    H253022   1.893   4.172  14.246 -1.4762 -4.5689  0.8910
10511TIP3   OH253023   4.891   6.305  15.365 -0.7271  0.3939  0.4429
10511TIP3    H153024   4.863   6.335  15.278  2.8154 -0.8857 -1.3046
10511TIP3    H253025   4.888   6.210  15.360  1.0974  0.2688  1.1150
10512TIP3   OH253026   6.025   6.778   1.576 -0.0334 -0.7516 -0.7141
10512TIP3    H153027   6.039   6.824   1.658  0.6534  0.3438 -1.4227
10512TIP3    H253028   5.951   6.719   1.594  0.0999 -0.5293  0.6666
10513TIP3   OH253029   4.453   6.492  12.639 -0.6028 -0.5807  0.3280
10513TIP3    H153030   4.455   6.511  12.732 -1.5195 -3.2637  0.9740
10513TIP3    H253031   4.519   6.423  12.627 -0.1481  0.0543 -1.1298
10514TIP3   OH253032   2.594   6.371  14.250 -0.1374  0.7693 -0.0067
10514TIP3    H153033   2.534   6.303  14.282  1.8761 -0.9845  0.2528
10514TIP3    H253034   2.639   6.402  14.329 -0.3737  1.7842 -0.2552
10515TIP3   OH253035   4.806   1.182   2.963  0.2723 -1.0492  0.4720
10515TIP3    H153036   4.851   1.220   2.888  1.0139 -1.1647  0.8487
10515TIP3    H253037   4.745   1.119   2.925  1.3138 -1.7957  0.0062
10516TIP3   OH253038   2.564   6.036  14.111 -0.2749  0.0422  0.2079
10516TIP3    H153039   2.585   6.045  14.204 -0.5048  0.4548  0.2209
10516TIP3    H253040   2.609   5.956  14.085 -0.5177 -0.2809  0.7632
10517TIP3   OH253041   0.302   1.997   5.061 -0.4596  0.1577  0.4418
10517TIP3    H153042   0.294   1.932   4.991  0.2679 -2.9455  3.0185
10517TIP3    H253043   0.212   2.030   5.073 -0.3073  2.4247 -3.1765
10518TIP3   OH253044   2.886   6.779  12.696 -0.2424  0.0397 -0.1723
10518TIP3    H153045   2.980   6.760  12.704 -0.6315 -2.6663 -1.0248
10518TIP3    H253046   2.854   6.781  12.787  0.2451 -1.4682  0.0549
10519TIP3   OH253047   2.662   6.751   3.158 -0.4472 -0.2610  0.1397
10519TIP3    H153048   2.582   6.802   3.146 -0.7504 -0.7492  0.0583
10519TIP3    H253049   2.632   6.661   3.173  0.1037 -0.6320 -0.8760
10520TIP3   OH253050   1.107   1.315  13.888 -0.0153 -0.4418 -0.1401
10520TIP3    H153051   1.058   1.236  13.866 -2.3182  0.6272  0.8143
10520TIP3    H253052   1.049   1.364  13.946  2.4479  0.6889  1.5317
10521TIP3   OH253053   0.808   3.537   0.981  0.3145 -0.3160 -0.7024
10521TIP3    H153054   0.772   3.587   0.908  1.6427  0.0189 -1.1485
10521TIP3    H253055   0.803   3.445   0.952 -2.1752 -0.5387  0.1403
10522TIP3   OH253056   2.539   5.002   2.425  0.3266 -0.4588  0.5588
10522TIP3    H153057   2.520   5.016   2.332 -0.1870  2.1026  0.9719
10522TIP3    H253058   2.454   5.000   2.468  0.5962 -0.5470  1.1043
10523TIP3   OH253059   3.520   3.931   2.708  0.3084  0.1021 -0.1374
10523TIP3    H153060   3.460   3.867   2.671  1.3295 -1.4650  0.7842
10523TIP3    H253061   3.465   3.989   2.761 -0.3804 -1.5372  1.0258
10524TIP3   OH253062   3.626   5.819   0.459  0.1209  0.0231  0.4950
10524TIP3    H153063   3.588   5.897   0.420  0.0506 -0.6453 -0.8001
10524TIP3    H253064   3.571   5.747   0.429  1.3752 -0.7637 -0.0129
10525TIP3   OH253065   4.467   4.032  12.263  0.3177 -0.1574  0.0025
10525TIP3    H153066   4.502   4.120  12.272  2.0715 -0.8299  0.0806
10525TIP3    H253067   4.468   3.996  12.351 -2.1585  0.3134  0.3105
10526TIP3   OH253068   6.367   0.832   1.248 -0.3784  0.5823  0.2243
10526TIP3    H153069   6.408   0.883   1.178  0.6738 -0.8740 -0.2716
10526TIP3    H253070   6.287   0.798   1.209  0.1035 -0.0596 -0.2196
10527TIP3   OH253071   3.208   6.341  10.895  0.1844 -0.3087  0.1153
10527TIP3    H153072   3.295   6.332  10.933  0.9477  1.1575 -1.1847
10527TIP3    H253073   3.223   6.338  10.800 -1.0904  0.6665 -0.1425
10528TIP3   OH253074   5.090   1.784  14.250  0.3357  0.5167 -0.2052
10528TIP3    H153075   5.072   1.744  14.164 -0.5423  0.8575 -0.1963
10528TIP3    H253076   5.123   1.871  14.230  0.0341  0.6335 -0.2002
10529TIP3   OH253077   4.930   6.017  16.096 -0.4868  0.5691 -0.2214
10529TIP3    H153078   4.960   6.029  16.006 -1.0871 -0.3584 -0.5530
10529TIP3    H253079   4.937   6.104  16.135 -0.4782  1.0356 -1.2359
10530TIP3   OH253080   5.007   6.062  12.549  0.2228 -0.3227 -0.0654
10530TIP3    H153081   5.090   6.023  12.521  0.9700  0.5319  0.8892
10530TIP3    H253082   4.994   6.029  12.638 -0.5737 -0.6012 -0.2744
10531TIP3   OH253083   1.329   5.550  15.682  0.0576  0.3317 -0.2588
10531TIP3    H153084   1.338   5.641  15.653 -0.1491  0.6416  0.6098
10531TIP3    H253085   1.245   5.548  15.729  1.3770  0.3958  2.2419
10532TIP3   OH253086   3.809   4.896  15.034  0.6363  0.0014 -0.0250
10532TIP3    H153087   3.786   4.927  14.946  0.1158  0.3695  0.2326
10532TIP3    H253088   3.726   4.901  15.083  1.3463  1.8468  1.0780
10533TIP3   OH253089   1.363   5.296  11.330 -0.4965  0.0781 -0.3139
10533TIP3    H153090   1.422   5.298  11.255 -1.0690 -1.5819 -0.8649
10533TIP3    H253091   1.328   5.385  11.336  0.2074  0.4524 -1.4794
10534TIP3   OH253092   5.180   4.811  14.753  0.4600  0.9094  0.5795
10534TIP3    H153093   5.236   4.822  14.677 -1.5046 -0.8669 -1.2818
10534TIP3    H253094   5.092   4.833  14.722 -0.5035 -0.4919  2.1211
10535TIP3   OH253095   5.820   0.214   5.674  0.6986 -0.2820  0.0140
10535TIP3    H153096   5.726   0.230   5.675  0.5605 -0.7662 -1.9207
10535TIP3    H253097   5.842   0.196   5.766 -0.7359  1.6353  0.7997
10536TIP3   OH253098   3.329   4.801   5.128  0.5985  0.0403 -0.6210
10536TIP3    H153099   3.400   4.828   5.070  1.4708 -0.2573  0.2663
10536TIP3    H253100   3.371   4.742   5.191 -0.4833 -0.3056 -0.1948
10537TIP3   OH253101   5.819   2.310   2.884 -0.1507 -0.1141 -0.0459
10537TIP3    H153102   5.848   2.218   2.889 -0.7445 -0.3814 -1.2544
10537TIP3    H253103   5.724   2.304   2.874 -0.3391  0.6841  1.1189
10538TIP3   OH253104   1.432   1.558   2.214 -1.1227  0.7092 -0.5562
10538TIP3    H153105   1.524   1.582   2.202 -0.7591 -0.2259  0.2114
10538TIP3    H253106   1.409   1.512   2.133 -0.7643  0.5375 -0.5664
10539TIP3   OH253107   4.254   4.631   0.382 -0.3235  0.1905 -0.1254
10539TIP3    H153108   4.282   4.709   0.333  1.5695 -1.1975 -1.3971
10539TIP3    H253109   4.336   4.585   0.403 -1.4075 -1.7038  0.1804
10540TIP3   OH253110   3.945   6.145  12.342  0.4828 -0.1209  0.2198
10540TIP3    H153111   3.967   6.111  12.429 -0.4504  1.9452  1.3624
10540TIP3    H253112   3.860   6.188  12.355  0.4224  0.4020 -1.6766
10541TIP3   OH253113   6.323   5.694   2.726 -0.7822  0.4614 -0.2349
10541TIP3    H153114   6.257   5.631   2.697 -0.6016  1.5056 -3.1604
10541TIP3    H253115   6.376   5.645   2.789 -0.4530 -2.4939 -2.5975
10542TIP3   OH253116   3.806   6.310  17.091  0.1460 -0.2250  0.4443
10542TIP3    H153117   3.753   6.303  17.170  1.6249  0.9149  1.5987
10542TIP3    H253118   3.771   6.243  17.032  0.2341 -2.4483  2.7655
10543TIP3   OH253119   6.295   6.846   3.219 -0.2627 -0.1761  0.5162
10543TIP3    H153120   6.371   6.831   3.276 -0.3271 -0.2691  0.5783
10543TIP3    H253121   6.317   6.925   3.170 -0.0668 -0.2817  0.4338
10544TIP3   OH253122   4.843   5.096   1.016  0.0643 -0.3635  0.3584
10544TIP3    H153123   4.849   5.068   1.108  1.7551  1.1857  0.7792
10544TIP3    H253124   4.857   5.016   0.966  0.8183 -0.9576  1.4756
10545TIP3   OH253125   4.706   0.842   5.088  0.1378 -0.4913 -0.5390
10545TIP3    H153126   4.768   0.847   5.015 -1.2187 -0.0909 -1.7261
10545TIP3    H253127   4.659   0.760   5.073  0.1796 -0.6483  0.1766
10546TIP3   OH253128   5.084   0.445   4.063 -0.2485 -0.5152  0.1752
10546TIP3    H153129   5.115   0.512   4.123  1.1381 -0.6286 -0.3752
10546TIP3    H253130   5.091   0.485   3.976 -0.4845 -0.9770 -0.0590
10547TIP3   OH253131   6.079   3.011   5.737  0.2633  0.0178  0.0389
10547TIP3    H153132   6.167   3.048   5.742  0.3940 -0.3230  0.2306
10547TIP3    H253133   6.068   2.962   5.818 -0.3223  0.5368  0.2795
10548TIP3   OH253134   2.942   0.499  11.060 -0.1730  0.1767 -0.4481
10548TIP3    H153135   3.006   0.445  11.108  0.3060  0.8073 -0.3625
10548TIP3    H253136   2.859   0.453  11.072  0.3660 -1.0214 -1.1263
10549TIP3   OH253137   5.012   0.026   0.270 -0.2871  0.7224  0.3625
10549TIP3    H153138   5.087   0.084   0.279 -0.0333  0.2925  1.0993
10549TIP3    H253139   5.049  -0.062   0.271 -0.4219  0.4872 -2.9789
10550TIP3   OH253140   6.012   3.612  15.992  0.0335 -0.3111  0.4060
10550TIP3    H153141   6.068   3.630  15.917  2.0212  0.3331  1.9543
10550TIP3    H253142   5.990   3.699  16.026  0.9422 -0.5842  1.7818
10551TIP3   OH253143   6.008   6.183  11.525 -0.2079  0.1772 -0.5965
10551TIP3    H153144   5.970   6.268  11.505 -0.0092  0.3379 -0.2829
10551TIP3    H253145   6.061   6.197  11.603 -1.1438 -0.4934  0.1815
10552TIP3   OH253146   2.709   3.720  10.697  0.0341 -1.0827 -0.6753
10552TIP3    H153147   2.665   3.803  10.678 -1.2539 -1.7619 -0.7720
10552TIP3    H253148   2.709   3.673  10.613 -2.2625 -2.5321  0.0563
10553TIP3   OH253149   6.051   2.272  16.929  0.1051  0.5538  0.0283
10553TIP3    H153150   5.969   2.261  16.881  0.8152  1.7902 -1.5419
10553TIP3    H253151   6.061   2.366  16.940  1.3547  0.4349  0.1099
10554TIP3   OH253152   6.853   4.302   1.564 -0.1311 -0.1967  0.7295
10554TIP3    H153153   6.794   4.338   1.630  0.8294  0.2602  1.3706
10554TIP3    H253154   6.874   4.376   1.507  1.0421  0.0363  1.4406
10555TIP3   OH253155   6.228   4.437   5.022 -0.1238 -0.0530 -0.4816
10555TIP3    H153156   6.274   4.375   4.965  0.0344  0.7046 -1.2020
10555TIP3    H253157   6.267   4.424   5.109  2.0006  1.0431 -1.1903
10556TIP3   OH253158   4.002   5.892  11.272 -0.4962 -0.0839  0.2433
10556TIP3    H153159   4.093   5.922  11.276 -0.3905 -0.2959 -0.4368
10556TIP3    H253160   4.007   5.798  11.288 -0.7725  0.1398  1.8308
10557TIP3   OH253161   3.983   1.836  12.373  0.3265 -0.2716 -0.2811
10557TIP3    H153162   4.034   1.767  12.332  0.0266 -1.2199  0.8874
10557TIP3    H253163   3.953   1.799  12.456 -1.4253  0.5946 -0.4648
10558TIP3   OH253164   6.401   2.291   1.874  0.4220  0.6435  0.1481
10558TIP3    H153165   6.432   2.202   1.890  0.5783  0.3038 -1.8261
10558TIP3    H253166   6.306   2.286   1.884  0.5127  0.5004  1.0296
10559TIP3   OH253167   2.078   6.154  16.649  0.3536 -0.2873 -0.5799
10559TIP3    H153168   2.000   6.201  16.677 -0.7889 -2.3317 -0.1161
10559TIP3    H253169   2.088   6.176  16.557 -0.8006 -0.0066 -0.6528
10560TIP3   OH253170   0.855   0.316  11.898  0.1950  0.2635 -0.0306
10560TIP3    H153171   0.808   0.234  11.882 -0.5389  0.5902  0.3778
10560TIP3    H253172   0.797   0.384  11.862  0.1882  0.7047  0.7898
10561TIP3   OH253173   2.127   5.311  14.230 -0.0920  0.0106 -0.2276
10561TIP3    H153174   2.094   5.221  14.241 -0.2131  0.2495  1.5703
10561TIP3    H253175   2.092   5.338  14.145  1.8741 -2.4370 -1.9761
10562TIP3   OH253176   6.813   6.307   4.096  0.3826 -0.6837 -0.1804
10562TIP3    H153177   6.846   6.327   4.008  0.5898 -0.0173  0.0472
10562TIP3    H253178   6.882   6.338   4.155 -0.3023 -0.0060  0.2729
10563TIP3   OH253179   5.969   0.475  12.969 -0.0430 -0.6600  0.3295
10563TIP3    H153180   5.884   0.460  12.929 -0.3548  1.0934  0.2542
10563TIP3    H253181   5.951   0.481  13.063 -0.4882  2.1883  0.1612
10564TIP3   OH253182   3.371   6.600   4.931 -0.1962 -0.4454 -0.6007
10564TIP3    H153183   3.284   6.630   4.907  0.3274  1.9538  0.2629
10564TIP3    H253184   3.361   6.565   5.020  0.1185  2.3722  0.6510
10565TIP3   OH253185   0.588   0.707   3.646  0.1344 -0.0834  0.3436
10565TIP3    H153186   0.562   0.787   3.690 -0.2536 -0.2837  0.4796
10565TIP3    H253187   0.653   0.667   3.704  0.7275  0.3937  0.0235
10566TIP3   OH253188   2.953   3.091  15.349 -0.1019 -0.1519  0.3181
10566TIP3    H153189   2.924   3.117  15.261 -2.3826  1.1967  1.3664
10566TIP3    H253190   2.928   2.999  15.357 -1.3512  0.1461  0.0735
10567TIP3   OH253191   1.123   0.231   0.108 -0.2461 -0.6865  0.3452
10567TIP3    H153192   1.057   0.209   0.174 -1.4740  0.3427 -0.4917
10567TIP3    H253193   1.073   0.266   0.034  1.0061 -2.3580 -1.4306
10568TIP3   OH253194   0.966   1.970  13.364  0.2489 -1.2729  0.0202
10568TIP3    H153195   0.919   2.004  13.289 -0.2187  0.2327  0.9548
10568TIP3    H253196   1.041   1.924  13.327  0.3056 -0.1292 -1.3440
10569TIP3   OH253197   4.080   1.383   2.556 -0.9434 -0.1706  0.2670
10569TIP3    H153198   4.100   1.293   2.580  2.8553  0.2939 -0.5347
10569TIP3    H253199   4.095   1.387   2.462 -0.2221  1.4142  0.4026
10570TIP3   OH253200   5.826   4.716   6.650  0.1193  0.6358 -0.0247
10570TIP3    H153201   5.826   4.808   6.624 -1.8884  0.8070  0.4218
10570TIP3    H253202   5.910   4.702   6.693  0.9189  1.9506 -1.1034
10571TIP3   OH253203   2.074   2.751   0.679  0.2507 -0.2239 -0.0368
10571TIP3    H153204   2.033   2.695   0.613 -1.8708  1.6198 -0.4305
10571TIP3    H253205   2.002   2.778   0.736  1.6980 -0.1772  1.8617
10572TIP3   OH253206   6.420   6.523  12.252  0.0815  0.1254  0.3886
10572TIP3    H153207   6.437   6.505  12.345  0.9527 -0.0199  0.2114
10572TIP3    H253208   6.484   6.590  12.229 -1.3006  1.4690  0.3262
10573TIP3   OH253209   4.840   3.323   5.690  0.2675 -0.2900  0.3298
10573TIP3    H153210   4.746   3.313   5.672  1.1928 -3.2404 -5.0825
10573TIP3    H253211   4.861   3.249   5.747 -0.4940 -0.3895  0.4919
10574TIP3   OH253212   4.051   0.666  15.146  0.0671 -0.1021  0.0755
10574TIP3    H153213   4.035   0.574  15.168 -1.2801  0.2237  0.5185
10574TIP3    H253214   4.145   0.679  15.163  0.1077 -1.1835  0.7412
10575TIP3   OH253215   0.668   1.880  16.261  0.6347 -0.0041 -0.3282
10575TIP3    H153216   0.613   1.841  16.193  0.9076  3.3406 -2.7747
10575TIP3    H253217   0.614   1.950  16.299  1.6183  0.3219  0.5150
10576TIP3   OH253218   5.391   1.928  16.103  1.1582  0.2746 -0.2168
10576TIP3    H153219   5.341   1.859  16.145  1.3622  0.4775  0.3770
10576TIP3    H253220   5.448   1.883  16.041 -0.3284  0.0990 -1.5248
10577TIP3   OH253221   2.752   2.152   3.365 -0.4756  0.5992  1.0085
10577TIP3    H153222   2.810   2.186   3.434  0.6771 -0.6588  0.7021
10577TIP3    H253223   2.796   2.176   3.283  1.2887 -2.8704  0.7561
10578TIP3   OH253224   2.380   2.977  14.804 -0.1048  0.2472  0.1298
10578TIP3    H153225   2.330   3.018  14.875 -0.8682 -0.6276  0.1260
10578TIP3    H253226   2.467   3.015  14.811 -0.5509  1.2351  0.6369
10579TIP3   OH253227   3.105   4.885  12.855  0.0079  0.0841  0.5121
10579TIP3    H153228   3.102   4.846  12.768  0.1247  1.5294 -0.1682
10579TIP3    H253229   3.198   4.883  12.879  0.4430  2.3475 -0.7061
10580TIP3   OH253230   6.793   4.301  16.152 -0.1034 -0.0151 -0.3033
10580TIP3    H153231   6.754   4.388  16.141 -1.2179 -0.6652 -2.0062
10580TIP3    H253232   6.746   4.263  16.226 -1.3237 -0.0275 -1.0547
10581TIP3   OH253233   3.710   3.278  12.101  0.2284 -0.3213 -0.3542
10581TIP3    H153234   3.741   3.241  12.019 -0.0500 -0.9151 -0.1962
10581TIP3    H253235   3.741   3.369  12.100 -0.6762 -0.0099 -1.5886
10582TIP3   OH253236   6.444   4.630  16.646 -0.2866 -0.1521 -0.1105
10582TIP3    H153237   6.462   4.538  16.625  2.8054  0.9574 -3.4946
10582TIP3    H253238   6.400   4.664  16.568  0.6857  1.6616  0.0520
10583TIP3   OH253239   4.669   3.655   2.162  0.2704  0.1907  0.0163
10583TIP3    H153240   4.667   3.739   2.116 -0.2461  0.1887  0.0335
10583TIP3    H253241   4.691   3.591   2.095  0.4824  0.3117 -0.0324
10584TIP3   OH253242   0.677   0.329  14.395  0.3545 -0.2886  0.5602
10584TIP3    H153243   0.719   0.361  14.475 -0.4045  0.5715  0.6283
10584TIP3    H253244   0.650   0.408  14.349 -1.7946 -0.7838  0.8483
10585TIP3   OH253245   3.174   1.959   0.161  0.3949 -0.3518 -0.4761
10585TIP3    H153246   3.235   1.933   0.230 -2.0204 -1.4674  1.3851
10585TIP3    H253247   3.188   2.053   0.151  1.2558 -0.2792  1.1171
10586TIP3   OH253248   5.210   6.315   0.412 -0.5635  0.0309  0.0914
10586TIP3    H153249   5.127   6.309   0.459 -0.1167 -1.5437  0.7633
10586TIP3    H253250   5.257   6.386   0.457 -1.7053  1.2971 -0.6295
10587TIP3   OH253251   4.070   5.527  16.911 -0.1428  0.0504 -0.1190
10587TIP3    H153252   4.092   5.454  16.969  0.0981 -1.7832 -2.3619
10587TIP3    H253253   3.980   5.550  16.934  0.8357  1.4041  2.8928
10588TIP3   OH253254   1.146   3.150  12.391 -0.1702  0.1807  0.6797
10588TIP3    H153255   1.134   3.236  12.430  0.4156  0.8042 -0.4571
10588TIP3    H253256   1.084   3.093  12.438 -1.7350  1.5499  0.3879
10589TIP3   OH253257   3.959   2.313   3.520 -0.2108  0.6437 -0.1035
10589TIP3    H153258   3.922   2.400   3.537  0.1895  1.0583 -1.2508
10589TIP3    H253259   3.906   2.278   3.448 -0.5294 -0.1816  0.5142
10590TIP3   OH253260   4.318   3.390   0.875 -0.5843  0.0897 -0.2406
10590TIP3    H153261   4.335   3.334   0.800 -0.7286 -0.7634  0.3450
10590TIP3    H253262   4.250   3.344   0.924 -2.1904  1.7674 -0.7800
10591TIP3   OH253263   0.692   1.962  10.641 -0.2585  0.2754 -0.0896
10591TIP3    H153264   0.770   1.925  10.683  0.7089  0.0909 -1.9565
10591TIP3    H253265   0.658   1.892  10.587 -2.4209 -0.0020  1.5090
10592TIP3   OH253266   4.417   1.801  13.285  1.0893 -0.0527  0.4138
10592TIP3    H153267   4.456   1.876  13.331  1.2402 -0.1934  0.5198
10592TIP3    H253268   4.457   1.725  13.327  1.2387 -0.1842  0.0374
10593TIP3   OH253269   3.315   2.745   5.085 -0.1249 -0.1863  0.1310
10593TIP3    H153270   3.359   2.721   5.003 -1.5308  0.8484 -0.9721
10593TIP3    H253271   3.222   2.726   5.069 -0.3394 -0.6520  1.7640
10594TIP3   OH253272   4.892   0.531  16.281  0.6775 -0.0175 -0.0742
10594TIP3    H153273   4.887   0.564  16.370 -0.6096 -2.7135  0.9642
10594TIP3    H253274   4.809   0.557  16.240  1.2361  1.1536 -0.4918
10595TIP3   OH253275   5.999   0.967  15.990  0.2478  0.2376 -0.2083
10595TIP3    H153276   6.039   0.896  15.940 -0.1830 -0.1114 -0.0613
10595TIP3    H253277   5.923   0.927  16.032 -0.1064  0.8277 -0.2740
10596TIP3   OH253278   4.371   1.321  11.762  0.7434  0.1152 -0.0155
10596TIP3    H153279   4.280   1.329  11.793  1.0340  0.5510  0.7691
10596TIP3    H253280   4.365   1.326  11.667 -0.2778 -2.1059 -0.1242
10597TIP3   OH253281   6.496   2.606  12.109  0.6739 -0.0031  0.3762
10597TIP3    H153282   6.558   2.641  12.045  0.1276 -0.6618 -0.5314
10597TIP3    H253283   6.453   2.533  12.064 -1.0422  0.6699  0.8329
10598TIP3   OH253284   3.341   4.951  12.501 -0.3473 -0.2882  0.0243
10598TIP3    H153285   3.301   4.875  12.460  0.3225 -1.2154  1.0182
10598TIP3    H253286   3.429   4.921  12.526 -0.2761  0.6217  0.9412
10599TIP3   OH253287   0.918   2.895  15.204 -0.4557  0.2515  0.6416
10599TIP3    H153288   0.893   2.815  15.158 -1.0228  0.6613  0.2283
10599TIP3    H253289   0.839   2.922  15.251 -0.3305  0.6890  0.6060
10600TIP3   OH253290   2.574   3.564   1.473  0.3282 -0.3234  0.0840
10600TIP3    H153291   2.527   3.536   1.394  0.1492 -2.2548  0.8200
10600TIP3    H253292   2.600   3.482   1.516  1.3146  0.6893  1.5010
10601TIP3   OH253293   5.623   4.974  11.261 -0.1641 -0.1071 -0.0036
10601TIP3    H153294   5.712   4.949  11.235  0.3398 -0.4552  1.9343
10601TIP3    H253295   5.619   5.068  11.247  0.4478 -0.1158 -0.2747
10602TIP3   OH253296   0.235   2.804   3.827 -0.1244  0.6381 -0.6970
10602TIP3    H153297   0.301   2.753   3.782 -0.6354 -0.0053 -0.7243
10602TIP3    H253298   0.225   2.883   3.774 -0.1323  0.2601 -1.2649
10603TIP3   OH253299   5.948   3.942   5.763 -0.0444  0.1685  0.1171
10603TIP3    H153300   5.910   4.013   5.815  0.9879  3.2966 -3.0702
10603TIP3    H253301   6.031   3.976   5.732  0.5424 -2.5036 -1.5612
10604TIP3   OH253302   1.046   1.502   0.529  0.2870 -0.4165 -0.3457
10604TIP3    H153303   1.093   1.482   0.448 -1.1737 -1.3297 -1.0054
10604TIP3    H253304   0.954   1.490   0.507 -0.4854  3.1138  0.3975
10605TIP3   OH253305   0.933   5.906   2.448  0.3519 -0.0490  0.2128
10605TIP3    H153306   0.939   5.814   2.420  0.9088 -0.0023  0.1550
10605TIP3    H253307   1.024   5.936   2.447  0.1049  0.7054 -0.4387
10606TIP3   OH253308   5.675   0.651  12.151 -0.0539 -0.7056 -0.1077
10606TIP3    H153309   5.697   0.607  12.234  0.7697  1.0157  0.6264
10606TIP3    H253310   5.749   0.708  12.133 -0.3732 -0.7856 -1.8879
10607TIP3   OH253311   6.670   0.283  12.421 -0.0527  0.5780 -0.2308
10607TIP3    H153312   6.763   0.287  12.399 -0.1355 -0.1628 -0.7375
10607TIP3    H253313   6.626   0.277  12.337 -0.4416 -1.1743  0.0711
10608TIP3   OH253314   6.274   4.666   4.083  0.0570  0.0594  0.3708
10608TIP3    H153315   6.255   4.717   4.004  0.6045 -0.0328  0.1783
10608TIP3    H253316   6.319   4.588   4.051 -1.5959 -1.0322  0.5631
10609TIP3   OH253317   5.848   3.498  14.077  0.4586  0.1770 -0.0891
10609TIP3    H153318   5.847   3.592  14.092  0.0982  0.0478  0.7276
10609TIP3    H253319   5.866   3.460  14.163 -4.2319 -0.7069  0.7433
10610TIP3   OH253320   4.165   4.117   2.121  0.2432 -0.1145  0.1287
10610TIP3    H153321   4.175   4.210   2.102  0.5204 -0.2857 -0.5817
10610TIP3    H253322   4.213   4.105   2.203  0.3595  0.3334  0.1322
10611TIP3   OH253323   0.141   5.875  14.102  0.5202  1.0585  0.1191
10611TIP3    H153324   0.227   5.833  14.097 -0.0147  0.0828 -1.8357
10611TIP3    H253325   0.146   5.947  14.039 -0.1206  0.9204 -0.0942
10612TIP3   OH253326   0.921   6.542  11.723 -0.2551  0.0825  0.0543
10612TIP3    H153327   0.999   6.566  11.773 -0.6812  0.3224  0.6148
10612TIP3    H253328   0.910   6.613  11.659  0.2672 -0.2040 -0.3548
10613TIP3   OH253329   5.838   2.232  13.473 -0.1069  0.3116  0.4411
10613TIP3    H153330   5.765   2.203  13.419  1.7034 -0.3074 -1.8513
10613TIP3    H253331   5.818   2.200  13.561 -2.1105 -0.6095 -0.3044
10614TIP3   OH253332   5.840   3.031   5.615 -0.0106  0.1444 -0.4603
10614TIP3    H153333   5.932   3.045   5.638  0.1259 -1.3719 -0.0229
10614TIP3    H253334   5.794   3.103   5.658  1.0464  1.5520 -1.5449
10615TIP3   OH253335   4.178   3.233  15.238 -0.4902  0.0282 -0.3788
10615TIP3    H153336   4.134   3.313  15.267  0.0501  0.4611 -0.7224
10615TIP3    H253337   4.130   3.162  15.281 -0.2312  0.6027  0.9040
10616TIP3   OH253338   4.117   3.111   0.042  0.1372  0.0141  0.0815
10616TIP3    H153339   4.138   3.134  -0.049  1.6896 -0.0468  0.3891
10616TIP3    H253340   4.184   3.155   0.093 -1.5483  1.2064  1.3498
10617TIP3   OH253341   0.037   4.895  16.837 -0.0743  0.4745 -0.3138
10617TIP3    H153342  -0.017   4.969  16.864 -0.9217 -0.2853  0.0936
10617TIP3    H253343  -0.019   4.843  16.780 -0.7609 -1.7280  2.1590
10618TIP3   OH253344   1.517   1.704   5.247 -0.1000  0.1750  0.0347
10618TIP3    H153345   1.566   1.703   5.330  1.5736  0.0771 -0.8932
10618TIP3    H253346   1.577   1.663   5.184 -1.7828 -0.8190 -1.0044
10619TIP3   OH253347   5.843   4.092  15.083 -0.6409 -0.8392  0.5416
10619TIP3    H153348   5.875   4.147  15.154  0.6928 -0.3475 -0.4037
10619TIP3    H253349   5.844   4.003  15.119  0.6210 -0.6778  0.9456
10620TIP3   OH253350   4.683   2.421   2.779 -0.1398  0.3762 -0.4472
10620TIP3    H153351   4.671   2.330   2.752  0.5637  0.1815 -0.1354
10620TIP3    H253352   4.755   2.452   2.724 -0.1536  0.6402 -0.3151
10621TIP3   OH253353   0.510   3.087   0.603  0.3564 -0.5900 -0.0321
10621TIP3    H153354   0.420   3.055   0.612 -0.9514  2.9450  1.1251
10621TIP3    H253355   0.547   3.082   0.691  0.5175  0.0694 -0.0622
10622TIP3   OH253356   2.882   0.336   4.679 -0.0488 -0.5593  0.5653
10622TIP3    H153357   2.939   0.262   4.700 -0.3854 -1.4633 -1.4862
10622TIP3    H253358   2.915   0.369   4.596 -0.0530  1.4959  1.3278
10623TIP3   OH253359   3.253   5.023   5.274 -0.1804  0.4545  0.1854
10623TIP3    H153360   3.259   4.959   5.204 -0.8207  0.5000  0.0876
10623TIP3    H253361   3.323   5.086   5.255  0.1316  0.0549  0.0117
10624TIP3   OH253362   4.766   5.773  13.801  0.1046  0.2395 -0.8327
10624TIP3    H153363   4.695   5.758  13.739  0.0383 -1.7990 -0.3437
10624TIP3    H253364   4.723   5.792  13.884  0.1854  1.4468 -1.0459
10625TIP3   OH253365   4.987   4.439   1.795  0.3937 -0.3353  0.2244
10625TIP3    H153366   5.051   4.506   1.769  0.6954 -1.0700 -1.0114
10625TIP3    H253367   5.015   4.412   1.883 -0.8600  2.4651  1.6214
10626TIP3   OH253368   0.296   1.409   1.567 -0.2866 -0.1345 -0.0163
10626TIP3    H153369   0.201   1.396   1.574 -0.3149  0.6221  1.3465
10626TIP3    H253370   0.321   1.447   1.651  0.9998  1.1300 -0.9295
10627TIP3   OH253371   4.858   3.341   2.331  0.1990  0.4785  0.1331
10627TIP3    H153372   4.917   3.288   2.278  0.6811  0.7017  0.4319
10627TIP3    H253373   4.771   3.322   2.298  0.2281 -1.4856  1.0849
10628TIP3   OH253374   1.965   0.196  11.794 -0.0601 -0.5633  0.0629
10628TIP3    H153375   1.875   0.183  11.764 -0.2798  0.4634  0.2161
10628TIP3    H253376   2.015   0.126  11.753 -0.5871  0.0080 -1.6411
10629TIP3   OH253377   2.928   3.334  14.320 -0.1522  0.3249  0.2038
10629TIP3    H153378   2.847   3.287  14.341  0.9136 -1.8137 -0.2725
10629TIP3    H253379   2.980   3.329  14.400  0.1056  0.4491  0.0436
10630TIP3   OH253380   1.510   6.143  15.094 -0.3794 -0.4212 -0.3263
10630TIP3    H153381   1.489   6.050  15.082 -0.5297 -0.7363  1.8944
10630TIP3    H253382   1.441   6.189  15.047 -2.1527 -1.4674  1.1000
10631TIP3   OH253383   6.064   3.964   4.238 -0.8598  0.1792 -0.3969
10631TIP3    H153384   6.062   4.058   4.255 -3.3094  0.1153  0.0108
10631TIP3    H253385   6.055   3.923   4.324 -1.4592 -0.3995 -0.7251
10632TIP3   OH253386   0.927   3.765   4.924 -0.3462  0.4599  0.2815
10632TIP3    H153387   1.009   3.750   4.876 -0.9446  0.3044 -0.7222
10632TIP3    H253388   0.938   3.716   5.006  1.6040  2.5486  1.4071
10633TIP3   OH253389   3.738   0.230   1.269  0.9202 -0.3304  0.8332
10633TIP3    H153390   3.780   0.144   1.271 -0.0348 -0.8879 -0.9685
10633TIP3    H253391   3.653   0.217   1.311  0.9286 -0.1635  0.9060
10634TIP3   OH253392   4.936   4.176  15.506 -0.1157 -0.4697 -0.0133
10634TIP3    H153393   4.987   4.112  15.556 -1.7368 -1.7377  0.0880
10634TIP3    H253394   4.975   4.260  15.528  0.8805 -1.2433  1.3285
10635TIP3   OH253395   1.479   5.357   3.165  0.2575 -0.2815  0.2328
10635TIP3    H153396   1.520   5.309   3.093  0.5206  0.4675 -0.1305
10635TIP3    H253397   1.538   5.345   3.239 -0.2839 -1.5081  0.4991
10636TIP3   OH253398   0.092   1.460  16.034  0.1104  0.3099 -0.1988
10636TIP3    H153399   0.043   1.514  16.097  0.1413  0.7178 -0.5218
10636TIP3    H253400   0.078   1.370  16.064  2.9820  0.6153  2.5133
10637TIP3   OH253401   2.237   5.445   3.637 -0.1803 -0.1664 -0.4630
10637TIP3    H153402   2.157   5.440   3.584 -0.3116  0.3938 -0.3285
10637TIP3    H253403   2.230   5.372   3.698 -1.6239  1.0872  0.9489
10638TIP3   OH253404   5.755   0.637  13.687  0.1640  0.4698  0.1277
10638TIP3    H153405   5.707   0.615  13.608  0.9583  1.5375 -0.7022
10638TIP3    H253406   5.796   0.722  13.667  1.6778  0.0137  1.0867
10639TIP3   OH253407   3.945   0.650  16.549 -0.8728 -0.4175 -0.2983
10639TIP3    H153408   3.902   0.602  16.479 -1.9998  2.1100 -1.4671
10639TIP3    H253409   3.935   0.595  16.626 -4.6165 -0.8433 -0.9283
10640TIP3   OH253410   0.583   2.840  15.043  0.5639 -0.4316 -0.2475
10640TIP3    H153411   0.675   2.853  15.020  0.5510 -1.3060 -0.8492
10640TIP3    H253412   0.546   2.796  14.967 -0.4630  0.3031 -0.1908
10641TIP3   OH253413   0.370   3.473  16.262  0.0247 -0.3302 -0.9428
10641TIP3    H153414   0.350   3.505  16.350  1.2005 -1.7889 -0.0953
10641TIP3    H253415   0.314   3.396  16.251 -1.3621  0.7981 -2.1864
10642TIP3   OH253416   0.131   2.960  12.517  0.2140 -0.2945 -0.1354
10642TIP3    H153417   0.083   3.008  12.449 -0.6303 -1.7297 -0.5932
10642TIP3    H253418   0.223   2.978  12.498 -0.0693  1.3538 -0.1123
10643TIP3   OH253419   1.604   2.320  13.318  0.5082 -0.1444  0.6713
10643TIP3    H153420   1.613   2.319  13.222 -1.6238 -0.3112  0.4286
10643TIP3    H253421   1.692   2.341  13.350  1.5354 -1.2419 -1.2666
10644TIP3   OH253422   2.203   3.993  14.373  0.1252 -0.3252 -0.0229
10644TIP3    H153423   2.292   3.978  14.405  0.0418 -0.2422  0.2498
10644TIP3    H253424   2.169   4.062  14.429  0.2078  0.2925 -0.7125
10645TIP3   OH253425   3.498   2.379   3.920 -0.1714  0.2433 -0.3581
10645TIP3    H153426   3.445   2.402   3.996 -2.2202  1.5928 -2.0817
10645TIP3    H253427   3.458   2.299   3.887  0.8886 -0.4948  0.0923
10646TIP3   OH253428   1.967   2.692  12.281 -0.0077 -0.1312 -0.6085
10646TIP3    H153429   1.941   2.754  12.213 -0.0601  1.2529  0.6085
10646TIP3    H253430   1.884   2.661  12.318  0.0049  0.4757 -0.0366
10647TIP3   OH253431   3.749   1.261  12.166  0.4419  0.0008  0.2785
10647TIP3    H153432   3.808   1.190  12.140  1.2841  1.3620 -1.7937
10647TIP3    H253433   3.665   1.237  12.127  0.7431  0.1595 -0.4821
10648TIP3   OH253434   4.129   2.802  15.362  0.2270  0.5945  0.1060
10648TIP3    H153435   4.116   2.894  15.385 -0.8879  0.5123 -0.1135
10648TIP3    H253436   4.183   2.767  15.433 -2.3702  0.5808  2.2312
10649TIP3   OH253437   0.460   5.976   1.099  0.0209  0.3491  0.3678
10649TIP3    H153438   0.494   5.972   1.189  2.2104  1.3934 -0.3429
10649TIP3    H253439   0.405   6.053   1.098  0.1495  0.4504  0.7694
10650TIP3   OH253440   4.203   5.244  15.989  0.3596 -0.2471 -0.2438
10650TIP3    H153441   4.243   5.247  16.076 -1.2040 -0.0878  0.4934
10650TIP3    H253442   4.270   5.202  15.934  1.0295 -1.1977  1.2154
10651TIP3   OH253443   5.395   4.670  13.216 -1.2278  0.2082 -0.5697
10651TIP3    H153444   5.346   4.716  13.148 -1.3807 -0.7302 -1.1084
10651TIP3    H253445   5.356   4.700  13.298 -2.3167 -0.0723 -0.9660
10652TIP3   OH253446   1.838   5.766   0.761 -0.5225  0.3601 -0.4251
10652TIP3    H153447   1.763   5.774   0.821 -1.5135 -0.0283 -1.5588
10652TIP3    H253448   1.813   5.818   0.685 -0.3794 -1.0991 -1.5125
10653TIP3   OH253449   4.327   0.604  16.270 -1.3444 -0.2551  0.1994
10653TIP3    H153450   4.328   0.508  16.278 -2.8105 -0.5527 -2.2746
10653TIP3    H253451   4.251   0.631  16.321 -0.4789 -0.2834  1.5546
10654TIP3   OH253452   3.231   3.438  11.837  0.0502 -0.2352  0.1564
10654TIP3    H153453   3.282   3.439  11.918 -0.9273 -1.8981  0.8530
10654TIP3    H253454   3.184   3.522  11.837  1.9863  0.8938 -0.0182
10655TIP3   OH253455   3.901   2.716   0.884 -0.1509  0.1306 -0.2781
10655TIP3    H153456   3.852   2.798   0.879  0.1853  0.2824 -1.2690
10655TIP3    H253457   3.834   2.647   0.881 -0.4682  0.3620  1.0476
10656TIP3   OH253458   3.505   1.439   1.060 -0.1193  1.0888 -0.1700
10656TIP3    H153459   3.490   1.364   1.117  2.1188  1.3594  0.9114
10656TIP3    H253460   3.462   1.416   0.978  0.0494 -1.1429  0.2951
10657TIP3   OH253461   4.043   2.231  13.294 -0.1225 -0.2307  0.3796
10657TIP3    H153462   4.024   2.322  13.318  1.1454  0.6125 -1.5534
10657TIP3    H253463   4.133   2.233  13.262 -0.0536 -2.1984  0.3397
10658TIP3   OH253464   4.427   4.451  16.712 -0.7875 -0.3328 -0.8349
10658TIP3    H153465   4.420   4.368  16.759 -1.5215 -0.0651 -0.4559
10658TIP3    H253466   4.445   4.515  16.780 -1.0917 -0.0514 -1.0185
10659TIP3   OH253467   5.503   4.574  17.071 -0.0319  0.0651 -0.1336
10659TIP3    H153468   5.485   4.484  17.099 -0.7784  0.2545  0.0206
10659TIP3    H253469   5.557   4.565  16.993  0.1022 -0.5106  0.0238
10660TIP3   OH253470   4.971   6.592  16.354  0.1589 -0.5220  0.9555
10660TIP3    H153471   4.937   6.663  16.299  1.0209  1.0222  2.3424
10660TIP3    H253472   5.064   6.613  16.366  0.2934 -1.5624  1.8945
10661TIP3   OH253473   6.262   6.702  14.438  0.1939  0.1193 -0.3222
10661TIP3    H153474   6.266   6.775  14.375 -0.8669  0.3316 -0.1609
10661TIP3    H253475   6.205   6.734  14.507  2.8455  0.6463  1.7783
10662TIP3   OH253476   0.873   5.452  16.994 -0.0025  0.2096  0.2797
10662TIP3    H153477   0.821   5.449  17.074 -1.1199 -0.8677 -0.4488
10662TIP3    H253478   0.939   5.520  17.010 -0.9172  0.8067  1.6571
10663TIP3   OH253479   5.124   6.234  16.169 -0.2409 -0.0222 -0.1107
10663TIP3    H153480   5.093   6.297  16.103  0.0791  1.2847  0.9380
10663TIP3    H253481   5.185   6.284  16.222  0.4798 -1.4181  0.4096
10664TIP3   OH253482   4.280   6.008   0.456  0.4893  0.7312 -0.2359
10664TIP3    H153483   4.222   6.083   0.445 -0.4741  0.0318 -0.1414
10664TIP3    H253484   4.289   5.999   0.551 -2.7276 -1.6209  0.0453
10665TIP3   OH253485   0.232   5.491  16.873  0.0286  0.7782 -0.7106
10665TIP3    H153486   0.227   5.579  16.836 -1.6120  0.6050 -0.9630
10665TIP3    H253487   0.162   5.443  16.830  0.4381 -0.4651 -0.0379
10666TIP3   OH253488   6.355   5.206   0.830  0.4878 -0.1154 -0.1666
10666TIP3    H153489   6.317   5.233   0.746 -0.4679  1.8266  0.8257
10666TIP3    H253490   6.385   5.116   0.814 -1.0167 -0.3593 -2.1564
10667TIP3   OH253491   1.576   6.544  13.420 -0.2788  0.6195  0.1850
10667TIP3    H153492   1.630   6.479  13.464 -1.5862 -0.8979 -0.3196
10667TIP3    H253493   1.587   6.525  13.327 -0.7632  1.0454  0.0360
10668TIP3   OH253494   2.632   2.203  11.336  0.5625 -0.2371 -0.1287
10668TIP3    H153495   2.547   2.200  11.292  0.1496  0.0010  0.6320
10668TIP3    H253496   2.610   2.208  11.429  1.4161 -1.0283  0.1302
10669TIP3   OH253497   2.327   6.609   3.053 -0.1229  0.2068 -0.1171
10669TIP3    H153498   2.356   6.700   3.055 -0.0819  0.3058 -2.2115
10669TIP3    H253499   2.249   6.606   3.108  0.2447  1.3629  0.4782
10670TIP3   OH253500   5.939   3.468  12.146 -0.1825  0.3160 -0.0544
10670TIP3    H153501   6.012   3.498  12.092  1.0237 -1.2850  0.5942
10670TIP3    H253502   5.960   3.376  12.165 -2.1254 -0.0411  0.5835
10671TIP3   OH253503   3.893   2.892  16.757 -0.3546  0.3259  0.0068
10671TIP3    H153504   3.979   2.932  16.742 -0.1549  0.1177  0.5856
10671TIP3    H253505   3.876   2.905  16.850 -0.7824  0.0273 -0.0256
10672TIP3   OH253506   5.080   2.172   3.442  0.4338 -0.1116  0.6852
10672TIP3    H153507   4.986   2.157   3.426  0.4416  0.9127 -0.5201
10672TIP3    H253508   5.083   2.223   3.522  0.0385 -0.9703  1.2685
10673TIP3   OH253509   6.321   0.930  13.342  0.5109  0.5865 -0.0399
10673TIP3    H153510   6.225   0.934  13.345  0.5690  2.8623  0.9676
10673TIP3    H253511   6.349   1.013  13.380  2.8955  0.2989 -1.0302
10674TIP3   OH253512   6.467   0.971   1.018 -0.4429 -0.1999 -0.4350
10674TIP3    H153513   6.416   1.037   0.972 -1.1852 -0.3138  0.2076
10674TIP3    H253514   6.526   1.021   1.075 -2.2194 -0.0552  1.3753
10675TIP3   OH253515   0.991   4.124  16.468 -0.3053  0.3818  0.5851
10675TIP3    H153516   0.970   4.092  16.555  1.1744 -0.3157  0.7149
10675TIP3    H253517   1.050   4.058  16.431  0.2170  1.3475 -0.3925
10676TIP3   OH253518   1.485   3.643  12.061  0.4525 -0.2232  0.0732
10676TIP3    H153519   1.449   3.688  11.985  1.7214 -1.4836 -1.3460
10676TIP3    H253520   1.446   3.687  12.136  1.0938  2.7841 -1.2109
10677TIP3   OH253521   0.358   4.211   1.686  0.3233 -0.1219  0.6542
10677TIP3    H153522   0.405   4.294   1.676 -0.9020  0.5714  0.4142
10677TIP3    H253523   0.273   4.236   1.723 -1.3538 -0.8247 -2.3630
10678TIP3   OH253524   4.285   3.381  13.707  1.1567 -0.4462  0.2886
10678TIP3    H153525   4.303   3.290  13.733 -0.1943 -0.3428  1.7589
10678TIP3    H253526   4.210   3.406  13.761  0.0539  0.8028 -1.7212
10679TIP3   OH253527   3.568   3.062  13.847 -0.3222 -0.2403 -0.0663
10679TIP3    H153528   3.600   2.984  13.801 -0.8610 -0.2810 -0.3708
10679TIP3    H253529   3.511   3.027  13.916  0.3273 -0.1689  0.5239
10680TIP3   OH253530   1.349   0.705  16.765  0.3252  0.0684  0.1308
10680TIP3    H153531   1.369   0.675  16.853  0.8266 -2.4150 -0.7578
10680TIP3    H253532   1.425   0.756  16.738  1.0123 -0.7588  0.4717
10681TIP3   OH253533   6.360   2.383  13.306  0.1790  0.0800  0.3444
10681TIP3    H153534   6.426   2.315  13.297  0.3403  0.3239 -0.4152
10681TIP3    H253535   6.346   2.415  13.216  0.3140  1.2284  0.7094
10682TIP3   OH253536   3.526   6.575   4.037  0.6922  0.3659 -0.2170
10682TIP3    H153537   3.491   6.657   4.002 -0.5079 -0.2094 -0.4180
10682TIP3    H253538   3.529   6.516   3.962  1.8925  0.3161 -0.1487
10683TIP3   OH253539   6.495   0.379  15.465  0.1327 -0.2437  0.2260
10683TIP3    H153540   6.471   0.467  15.436  1.0116 -0.3372 -0.8570
10683TIP3    H253541   6.534   0.338  15.388  0.1252 -1.4478  0.8294
10684TIP3   OH253542   0.130   1.366   0.512  0.1378  0.0241 -0.0537
10684TIP3    H153543   0.178   1.414   0.444  1.0620 -0.8160 -0.0117
10684TIP3    H253544   0.197   1.344   0.577 -0.2609 -1.3312 -0.0817
10685TIP3   OH253545   6.033   6.659  14.126  0.6279 -0.0579 -0.0224
10685TIP3    H153546   6.094   6.716  14.080 -0.2301  1.9479  1.1872
10685TIP3    H253547   6.087   6.609  14.186  1.2801  0.3317 -0.2772
10686TIP3   OH253548   4.682   6.193   2.387 -0.6046  0.8366 -0.8671
10686TIP3    H153549   4.613   6.259   2.377 -0.8613  0.6899 -0.1277
10686TIP3    H253550   4.694   6.185   2.482 -0.1210  0.2903 -0.9694
10687TIP3   OH253551   0.364   5.139   0.724  0.6545 -0.5319 -0.2957
10687TIP3    H153552   0.435   5.081   0.751  1.5980  0.6569 -0.1492
10687TIP3    H253553   0.309   5.146   0.803  0.2594 -1.5887 -0.4620
10688TIP3   OH253554   5.800   1.068  13.259  0.4036  0.3204  0.4066
10688TIP3    H153555   5.855   1.044  13.184  1.3137  0.4239  1.0179
10688TIP3    H253556   5.712   1.074  13.224  0.6705 -0.5933 -0.4607
10689TIP3   OH253557   1.367   3.274   3.747  1.0424  0.5792  0.0366
10689TIP3    H153558   1.413   3.318   3.676  0.3126  0.2614 -0.6465
10689TIP3    H253559   1.434   3.222   3.792  1.7232  1.6193  0.2613
10690TIP3   OH253560   1.709   0.385   0.306 -0.1718  0.1935 -0.0028
10690TIP3    H153561   1.710   0.289   0.313 -0.2901  0.2372  0.7056
10690TIP3    H253562   1.725   0.403   0.213 -0.5259 -0.5207 -0.2047
10691TIP3   OH253563   1.099   0.500   1.213  0.5973 -0.1059 -0.0529
10691TIP3    H153564   1.116   0.534   1.125  0.8402  3.0621  1.1085
10691TIP3    H253565   1.186   0.475   1.245  0.5408 -1.0220 -0.5564
10692TIP3   OH253566   5.181   0.308   4.767  0.1429  0.1823  0.1093
10692TIP3    H153567   5.115   0.261   4.717 -0.3700 -0.2710  1.1898
10692TIP3    H253568   5.245   0.337   4.701  0.4115 -1.8892 -0.6176
10693TIP3   OH253569   4.718   2.482   3.569 -0.0139  0.0989  0.0312
10693TIP3    H153570   4.732   2.461   3.476 -0.5368 -2.6135  0.4846
10693TIP3    H253571   4.660   2.413   3.601 -1.8240  2.3110  1.8602
10694TIP3   OH253572   6.707   5.480  15.082  0.0599  0.1132  0.1476
10694TIP3    H153573   6.800   5.491  15.066 -0.1805  0.9499 -0.7106
10694TIP3    H253574   6.666   5.488  14.996 -0.8972  0.7776  0.6528
10695TIP3   OH253575   0.516   1.042  13.536  0.0310  0.0798 -0.1561
10695TIP3    H153576   0.516   0.972  13.601  0.7584 -0.3126 -0.5599
10695TIP3    H253577   0.609   1.057  13.517 -0.1844 -0.3795 -1.6995
10696TIP3   OH253578   3.362   3.306  13.657 -0.2702  0.6122  0.1012
10696TIP3    H153579   3.382   3.311  13.563 -0.5903 -0.7021 -0.0591
10696TIP3    H253580   3.434   3.256  13.694 -1.2965 -0.9069  0.1409
10697TIP3   OH253581   2.401   3.235  17.026 -0.1891  0.4211 -0.2357
10697TIP3    H153582   2.334   3.217  17.091 -1.5995  0.1959 -1.7074
10697TIP3    H253583   2.415   3.152  16.981  0.1230  0.7754 -0.8130
10698TIP3   OH253584   6.304   3.607   0.530  0.0233  0.2785 -0.2121
10698TIP3    H153585   6.286   3.550   0.455  1.8683 -0.7335  0.0403
10698TIP3    H253586   6.271   3.692   0.504 -1.4907 -0.5684 -1.2101
10699TIP3   OH253587   0.890   0.319   2.269  0.3354  0.0634  0.5946
10699TIP3    H153588   0.822   0.367   2.222 -0.7223 -0.0345  1.9788
10699TIP3    H253589   0.961   0.382   2.280 -0.2463  0.7111  0.6754
10700TIP3   OH253590   6.061   5.566   3.244  0.3584  0.0677  0.0354
10700TIP3    H153591   6.134   5.626   3.261  1.1748 -0.5680 -1.0888
10700TIP3    H253592   6.032   5.539   3.331  0.8328  1.0713  0.5254
10701TIP3   OH253593   3.067   1.355   0.271 -0.0700 -0.1321 -0.3653
10701TIP3    H153594   3.006   1.312   0.332  0.8018 -0.2984  0.4035
10701TIP3    H253595   3.025   1.439   0.252 -0.6613 -0.3403 -0.0374
10702TIP3   OH253596   4.130   2.856   2.006 -0.0547  0.5601 -0.0049
10702TIP3    H153597   4.159   2.786   1.948 -1.1446 -0.6513  0.8572
10702TIP3    H253598   4.207   2.874   2.061  1.1338  2.0413 -2.0455
10703TIP3   OH253599   4.320   1.771  12.347  0.1292 -0.4676  0.3016
10703TIP3    H153600   4.312   1.733  12.434 -0.8462  0.0352  0.4363
10703TIP3    H253601   4.250   1.731  12.296 -0.5812  0.7393  0.3029
10704TIP3   OH253602   4.387   3.013   3.746  0.1924 -0.3732  0.1615
10704TIP3    H153603   4.453   3.022   3.815  0.6321 -0.7955 -0.1940
10704TIP3    H253604   4.303   3.024   3.790  0.5257  0.9783  0.4892
10705TIP3   OH253605   5.630   2.616  16.748  0.2787  0.1141 -0.9748
10705TIP3    H153606   5.620   2.711  16.757 -0.4164 -0.1055  1.0641
10705TIP3    H253607   5.725   2.602  16.751  0.3321  0.6443  0.1294
10706TIP3   OH253608   0.115   4.215   3.795 -0.9446 -0.5989  0.8088
10706TIP3    H153609   0.200   4.171   3.803 -0.9222 -0.4564  1.3599
10706TIP3    H253610   0.124   4.294   3.848 -0.5173  0.7993 -1.2051
10707TIP3   OH253611   0.279   1.936   4.054 -0.0898 -0.1634  0.1589
10707TIP3    H153612   0.368   1.926   4.021 -0.5759 -1.1963 -0.9206
10707TIP3    H253613   0.290   1.964   4.145  1.3181  0.0812 -0.0618
10708TIP3   OH253614   6.208   1.773  13.867  0.1554  0.3485 -0.0959
10708TIP3    H153615   6.144   1.815  13.924 -0.2116 -1.7681  1.1314
10708TIP3    H253616   6.285   1.762  13.922  0.4170 -0.1096 -0.5512
10709TIP3   OH253617   5.328   3.466   6.131  0.2082 -0.1216  0.7878
10709TIP3    H153618   5.390   3.536   6.110  1.1887 -0.1232  3.2812
10709TIP3    H253619   5.364   3.425   6.209 -0.9477 -2.7240  0.0597
10710TIP3   OH253620   3.243   5.409  12.921 -0.1751 -0.0832  0.0720
10710TIP3    H153621   3.273   5.319  12.913 -2.1986 -0.8644  0.5066
10710TIP3    H253622   3.301   5.448  12.987 -1.3619 -2.1425  2.5191
10711TIP3   OH253623   3.499   4.370  10.381 -1.1542  0.1866 -0.6635
10711TIP3    H153624   3.568   4.352  10.316 -1.1144  1.1274 -0.8998
10711TIP3    H253625   3.447   4.289  10.384  0.1552 -0.6763 -0.2212
10712TIP3   OH253626   1.592   2.118  12.377  0.0504 -0.0822  0.0756
10712TIP3    H153627   1.657   2.140  12.310  1.9243 -2.1150  1.0896
10712TIP3    H253628   1.630   2.148  12.459  0.5308 -2.6165  0.8845
10713TIP3   OH253629   1.589   5.939   2.244  0.1108  0.0647 -0.0485
10713TIP3    H153630   1.547   5.863   2.204 -1.7353  0.8742  0.2545
10713TIP3    H253631   1.611   5.995   2.169  0.2121 -0.1446 -0.1775
10714TIP3   OH253632   0.882   0.849  13.731 -0.0287 -0.0107  0.2211
10714TIP3    H153633   0.944   0.816  13.666 -0.8464 -0.9274 -0.1238
10714TIP3    H253634   0.796   0.821  13.699 -0.4975 -0.0156  1.4108
10715TIP3   OH253635   3.286   0.302  15.329  0.0359 -0.6360 -0.0511
10715TIP3    H153636   3.356   0.293  15.394 -0.0579 -1.8052 -0.0996
10715TIP3    H253637   3.243   0.217  15.327 -3.4475  0.8122  2.2778
10716TIP3   OH253638   5.693   6.157  10.898 -0.3541  0.2569  0.0754
10716TIP3    H153639   5.610   6.187  10.936 -1.1350 -1.7697  0.1017
10716TIP3    H253640   5.674   6.069  10.865  1.0146  0.9089 -2.6822
10717TIP3   OH253641   2.572   5.273  12.713 -0.0960  0.7077 -0.2972
10717TIP3    H153642   2.544   5.349  12.661  2.7470  1.0107 -1.5844
10717TIP3    H253643   2.645   5.306  12.765 -0.2305 -0.6388  0.7838
10718TIP3   OH253644   2.899   1.362  15.726  0.5956  0.3120 -0.1200
10718TIP3    H153645   2.948   1.284  15.755  0.1155 -0.7547 -2.0400
10718TIP3    H253646   2.845   1.385  15.802  1.5111 -0.5657  0.8467
10719TIP3   OH253647   5.756   4.677   1.119 -0.0743  0.3189  0.2277
10719TIP3    H153648   5.692   4.717   1.179 -2.6296 -3.1195  0.1351
10719TIP3    H253649   5.707   4.665   1.038  1.5544 -0.1348 -0.7194
10720TIP3   OH253650   5.655   1.494   0.529 -0.5261 -0.1234  0.3919
10720TIP3    H153651   5.624   1.454   0.610 -0.8213 -1.4080 -0.3221
10720TIP3    H253652   5.696   1.422   0.481 -1.1294  0.4173 -0.9802
10721TIP3   OH253653   4.817   1.638   1.101  0.1530 -0.3897 -0.5348
10721TIP3    H153654   4.839   1.556   1.057  0.0394  0.3415 -2.0149
10721TIP3    H253655   4.901   1.680   1.119  0.2004 -0.7015  0.0027
10722TIP3   OH253656   0.131   6.360  13.228 -0.2590 -0.1226  0.4113
10722TIP3    H153657   0.045   6.319  13.242 -0.5307 -0.2231 -1.2889
10722TIP3    H253658   0.192   6.286  13.224 -0.4706 -0.2580 -0.7557
10723TIP3   OH253659   1.699   0.128  17.037 -0.2452 -0.1725  0.6243
10723TIP3    H153660   1.772   0.189  17.042 -0.5422  0.2259  0.0562
10723TIP3    H253661   1.710   0.073  17.115 -0.3293  0.9904  1.4779
10724TIP3   OH253662   6.056   1.738  14.665  0.4535 -0.2087 -0.5058
10724TIP3    H153663   6.034   1.646  14.654  1.2702 -0.3295 -1.2223
10724TIP3    H253664   5.983   1.786  14.627 -1.1328 -0.4854  1.9617
10725TIP3   OH253665   2.883   3.556   0.495 -0.4376  0.2030 -0.3682
10725TIP3    H153666   2.845   3.620   0.435 -0.2409  1.5961  0.9130
10725TIP3    H253667   2.977   3.559   0.478 -0.3938  0.5140 -0.0842
10726TIP3   OH253668   3.690   6.267   0.222  0.0608 -0.3139  0.7158
10726TIP3    H153669   3.630   6.259   0.296 -1.4002  2.6229  0.0056
10726TIP3    H253670   3.768   6.308   0.259 -1.5606  3.4022  0.4262
10727TIP3   OH253671   1.187   5.499   1.869 -0.4682 -0.5765 -0.4344
10727TIP3    H153672   1.241   5.560   1.818 -0.4700 -0.5671 -0.4251
10727TIP3    H253673   1.177   5.422   1.813  1.9676 -1.8125  0.6752
10728TIP3   OH253674   1.037   5.474  14.684  0.2323 -0.2678  0.1491
10728TIP3    H153675   1.012   5.383  14.700  0.2016 -0.2870 -0.0111
10728TIP3    H253676   1.034   5.483  14.589 -2.6690  0.7293  0.2518
10729TIP3   OH253677   5.455   4.436  13.867  0.0618 -0.1437 -0.2144
10729TIP3    H153678   5.437   4.415  13.959 -1.1633  0.5260 -0.2746
10729TIP3    H253679   5.373   4.473  13.835  0.7131  0.3417 -1.3779
10730TIP3   OH253680   1.675   6.548   3.130  0.1799  0.2811 -0.5961
10730TIP3    H153681   1.738   6.552   3.058  0.0663 -0.1154 -0.7227
10730TIP3    H253682   1.598   6.593   3.098  0.7822  1.7638 -0.0309
10731TIP3   OH253683   5.128   0.841   4.953 -0.1194  0.2040  0.0136
10731TIP3    H153684   5.049   0.793   4.927 -1.0897  1.0365  1.2812
10731TIP3    H253685   5.131   0.916   4.894 -1.4284  1.2367  1.1843
10732TIP3   OH253686   4.834   5.815  12.643  0.5157  0.1020 -0.2623
10732TIP3    H153687   4.863   5.787  12.556  2.1753 -0.3565  0.3871
10732TIP3    H253688   4.912   5.856  12.681 -0.1658  0.2196  1.0394
10733TIP3   OH253689   0.568   3.486  12.987  0.4090 -0.0395  0.0628
10733TIP3    H153690   0.623   3.435  13.046 -0.6155  0.6503  1.6787
10733TIP3    H253691   0.608   3.573  12.986  0.4283 -0.0494 -0.2935
10734TIP3   OH253692   3.414   6.024   3.627  0.1375 -0.3976 -0.0442
10734TIP3    H153693   3.482   6.092   3.636 -0.8485  0.5592  0.4317
10734TIP3    H253694   3.377   6.017   3.715  0.1670 -1.5149 -0.1136
10735TIP3   OH253695   3.128   4.376  12.514 -0.0828  0.0653  0.1561
10735TIP3    H153696   3.140   4.400  12.422 -0.0680 -0.0646  0.1231
10735TIP3    H253697   3.039   4.341  12.519  0.5334 -1.6637 -0.1996
10736TIP3   OH253698   3.971   0.171   5.915 -0.2221 -0.2082  0.2830
10736TIP3    H153699   4.058   0.131   5.922  0.3816  0.6899 -1.5370
10736TIP3    H253700   3.973   0.244   5.976  0.5900  0.2498 -0.2701
10737TIP3   OH253701   2.033   2.255   3.376  0.2362  0.2372  0.7933
10737TIP3    H153702   1.973   2.181   3.377 -0.7181  0.9943  0.5504
10737TIP3    H253703   1.997   2.316   3.440  0.0184  1.2576 -0.2721
10738TIP3   OH253704   6.236   4.483  15.338 -0.3961  0.0800  0.0266
10738TIP3    H153705   6.158   4.539  15.341  0.0247  0.7237 -0.7627
10738TIP3    H253706   6.225   4.431  15.259 -0.2046 -0.0920  0.1134
10739TIP3   OH253707   1.941   6.017  14.096  0.1225 -0.7309 -0.6934
10739TIP3    H153708   1.927   5.938  14.043 -0.3827 -1.9872  1.1871
10739TIP3    H253709   2.035   6.020  14.111  0.1792 -0.7835 -1.0274
10740TIP3   OH253710   5.185   0.536  11.522 -0.2856  0.7553  0.0175
10740TIP3    H153711   5.227   0.582  11.450 -0.6502 -0.1459 -0.7845
10740TIP3    H253712   5.137   0.604  11.570 -1.3836  1.1219 -1.5394
10741TIP3   OH253713   4.651   1.837   3.624  0.3058 -0.0624 -0.4474
10741TIP3    H153714   4.663   1.803   3.712 -1.0742 -1.6670 -0.8141
10741TIP3    H253715   4.560   1.814   3.601  0.8891 -0.5125 -2.5902
10742TIP3   OH253716   5.602   4.956  13.394  0.1903  0.2722  0.1447
10742TIP3    H153717   5.656   5.014  13.447  0.1137 -0.3313  0.9105
10742TIP3    H253718   5.514   4.963  13.433  0.1436 -0.2139  0.1373
10743TIP3   OH253719   3.647   2.281  11.590  0.1554 -0.4482 -0.5158
10743TIP3    H153720   3.579   2.282  11.523 -0.5032 -0.4276  0.1435
10743TIP3    H253721   3.601   2.296  11.672  0.7923 -1.5564  0.0811
10744TIP3   OH253722   6.053   0.621   0.471  0.0071  0.2346  0.1164
10744TIP3    H153723   6.111   0.580   0.535  0.1601  0.6169  0.2295
10744TIP3    H253724   6.040   0.710   0.505  0.1784  0.4779 -0.4382
10745TIP3   OH253725   0.739   0.560  10.893  0.3347  0.0531 -0.3567
10745TIP3    H153726   0.804   0.614  10.849  0.3926  1.3971  1.2700
10745TIP3    H253727   0.700   0.618  10.958 -1.9135 -0.9524 -0.6996
10746TIP3   OH253728   0.091   6.613   2.150 -0.4262 -0.0316  0.2872
10746TIP3    H153729   0.048   6.688   2.192  1.5203  1.5852 -0.4151
10746TIP3    H253730   0.175   6.605   2.196  0.5430 -0.0152 -1.3916
10747TIP3   OH253731   4.416   3.759  15.242 -0.3951 -0.3633 -0.0701
10747TIP3    H153732   4.481   3.719  15.300 -1.1213 -1.6650 -0.1354
10747TIP3    H253733   4.467   3.793  15.169  0.1837 -1.7049 -0.3092
10748TIP3   OH253734   5.897   4.355   5.086 -0.3648 -0.0300 -0.2181
10748TIP3    H153735   5.963   4.377   5.152 -1.6843  0.7255  0.9183
10748TIP3    H253736   5.877   4.438   5.043  0.6190 -0.5518 -1.7374
10749TIP3   OH253737   5.233   6.677  16.325 -0.4978  0.1398 -0.4432
10749TIP3    H153738   5.258   6.660  16.235 -1.7418  0.5604 -0.8926
10749TIP3    H253739   5.301   6.634  16.378 -1.2335 -2.5756 -1.5222
10750TIP3   OH253740   5.864   3.628   5.018 -0.2547 -0.1181 -0.8730
10750TIP3    H153741   5.866   3.626   4.922 -0.2618  1.4593 -0.9287
10750TIP3    H253742   5.947   3.670   5.042  0.5615 -2.0488 -0.0894
10751TIP3   OH253743   5.980   0.494  16.407  0.4607 -0.0860 -0.3054
10751TIP3    H153744   6.001   0.565  16.468 -0.5890  0.9561 -1.1096
10751TIP3    H253745   6.039   0.423  16.431  1.6945  1.1381  0.3910
10752TIP3   OH253746   1.698   3.436   4.998 -0.2134 -0.2125  0.1527
10752TIP3    H153747   1.649   3.365   5.040 -0.9892 -0.1906 -0.6874
10752TIP3    H253748   1.737   3.395   4.921  0.2502  0.0255  0.2534
10753TIP3   OH253749   2.683   6.351   3.139 -0.1904  0.4605  0.3121
10753TIP3    H153750   2.648   6.275   3.186 -2.1668  0.6316 -0.8131
10753TIP3    H253751   2.732   6.313   3.066  1.1858  0.2526  1.2908
10754TIP3   OH253752   3.309   3.264  13.364 -0.0197  0.2578 -0.2834
10754TIP3    H153753   3.225   3.232  13.398 -0.3055  0.6005 -0.6621
10754TIP3    H253754   3.292   3.355  13.338  0.4595  0.3209 -0.3912
10755TIP3   OH253755   2.370   0.738   0.089  0.6211  0.5368 -0.1085
10755TIP3    H153756   2.409   0.793   0.158  1.8612  1.0655 -1.1957
10755TIP3    H253757   2.445   0.706   0.039  0.0567 -3.0589  1.0610
10756TIP3   OH253758   3.417   4.061   0.433 -0.0205 -0.1617 -0.2972
10756TIP3    H153759   3.495   4.038   0.383 -0.9581 -0.8753 -1.4903
10756TIP3    H253760   3.382   4.138   0.387  0.9145  1.2967  1.2985
10757TIP3   OH253761   2.491   5.466   4.945 -0.0281 -0.1049  0.2106
10757TIP3    H153762   2.472   5.552   4.909  1.0249  0.6249  1.3307
10757TIP3    H253763   2.465   5.471   5.036 -3.0119 -2.0429 -0.3829
10758TIP3   OH253764   3.847   0.356   3.585 -0.7997 -0.3721 -0.0713
10758TIP3    H153765   3.893   0.388   3.662  0.1159 -1.5993 -0.0812
10758TIP3    H253766   3.784   0.426   3.564 -0.4935  0.3433  1.2709
10759TIP3   OH253767   4.924   5.716   3.528 -0.0172 -0.2950  0.1180
10759TIP3    H153768   4.830   5.730   3.513 -0.1069 -1.9684 -1.1281
10759TIP3    H253769   4.941   5.629   3.493  2.3368  0.6109 -1.2467
10760TIP3   OH253770   4.911   3.296   0.312 -0.0895 -0.0710 -0.1710
10760TIP3    H153771   4.823   3.285   0.346  0.1421 -0.2279  0.3879
10760TIP3    H253772   4.899   3.320   0.220 -0.6668 -2.0898 -0.6661
10761TIP3   OH253773   1.417   3.899   1.102 -0.5966  0.2901  0.1145
10761TIP3    H153774   1.430   3.894   1.196 -0.7346 -0.2462  0.1050
10761TIP3    H253775   1.494   3.856   1.065 -2.1723 -2.7178  0.0505
10762TIP3   OH253776   6.818   6.134  14.394 -0.1852 -0.3391 -0.0781
10762TIP3    H153777   6.808   6.199  14.464  0.5686 -0.1012 -0.1819
10762TIP3    H253778   6.757   6.163  14.326 -1.0952 -0.7063  0.5708
10763TIP3   OH253779   5.756   6.666  16.023  0.2502  0.3060 -0.1537
10763TIP3    H153780   5.790   6.650  16.111  0.2300 -2.7103 -0.5690
10763TIP3    H253781   5.822   6.626  15.966  0.1512  2.0162 -1.5337
10764TIP3   OH253782   3.117   5.211   0.267 -0.1440 -0.5924  0.7970
10764TIP3    H153783   3.198   5.168   0.291  0.5664 -1.3820 -2.5229
10764TIP3    H253784   3.117   5.212   0.171 -2.5480  2.2795  0.6566
10765TIP3   OH253785   6.822   0.322  15.188 -0.2773 -0.9158 -0.8207
10765TIP3    H153786   6.735   0.285  15.180 -1.0127  0.8687 -1.5585
10765TIP3    H253787   6.826   0.389  15.120  0.9768  0.3289  0.4107
10766TIP3   OH253788   3.758   1.672  16.511 -0.3805  0.3201  0.0094
10766TIP3    H153789   3.691   1.716  16.563 -1.8107 -1.5126 -0.2121
10766TIP3    H253790   3.787   1.739  16.449 -1.4940  1.3550  0.5548
10767TIP3   OH253791   0.003   3.115  11.207 -0.4743  0.4632  0.1477
10767TIP3    H153792  -0.026   3.205  11.193 -0.1542  0.7091  1.0532
10767TIP3    H253793   0.072   3.101  11.141 -0.3582  0.9592  0.1651
10768TIP3   OH253794   5.537   5.941  13.335  0.6221  0.0601  0.3908
10768TIP3    H153795   5.545   5.849  13.360  0.2744  0.3977  1.8383
10768TIP3    H253796   5.619   5.961  13.290  1.5361 -0.4557  1.7713
10769TIP3   OH253797   3.912   3.390   5.917  0.1980  0.3812 -0.3382
10769TIP3    H153798   3.933   3.482   5.899  0.3999  0.4643  0.3100
10769TIP3    H253799   3.847   3.394   5.987 -0.6555  0.0636 -1.0862
10770TIP3   OH253800   4.726   6.536  14.246 -0.5503  0.1494 -0.0317
10770TIP3    H153801   4.747   6.504  14.334 -0.7077  1.3132  0.4410
10770TIP3    H253802   4.683   6.620  14.260  1.6974  1.6074 -1.2903
10771TIP3   OH253803   6.669   5.358  11.737 -0.0455  0.3933 -0.1948
10771TIP3    H153804   6.640   5.425  11.799 -0.0094 -0.7029  1.0577
10771TIP3    H253805   6.763   5.353  11.750 -0.3725 -2.1576  2.2086
10772TIP3   OH253806   6.797   3.583   5.697  0.1796  0.0881 -0.3666
10772TIP3    H153807   6.735   3.655   5.685 -0.4945 -0.6292 -1.2630
10772TIP3    H253808   6.878   3.627   5.724 -0.6746  1.0384  0.7838
10773TIP3   OH253809   5.871   6.003  12.395 -0.3825 -0.0275 -0.2145
10773TIP3    H153810   5.952   6.054  12.395  1.2765 -2.4863  0.4747
10773TIP3    H253811   5.825   6.032  12.474  0.7752  0.0400  0.4602
10774TIP3   OH253812   5.280   5.450  14.627 -0.3780  0.5594  0.2104
10774TIP3    H153813   5.200   5.473  14.579 -1.4670 -0.4086  1.4794
10774TIP3    H253814   5.248   5.412  14.709  1.4096  1.0969  1.2048
10775TIP3   OH253815   2.961   0.146   6.155  0.0520 -0.1351  0.2270
10775TIP3    H153816   2.991   0.065   6.114  2.4420  0.1656  1.2210
10775TIP3    H253817   2.889   0.119   6.213  1.9332 -1.9346  1.9040
10776TIP3   OH253818   6.584   4.553   6.727 -0.1376  0.0489  0.4925
10776TIP3    H153819   6.540   4.638   6.735  1.7576  1.1367  0.1298
10776TIP3    H253820   6.515   4.491   6.705 -1.6030  1.4643  0.9666
10777TIP3   OH253821   0.583   6.853   4.769 -0.2350 -0.0241  0.5697
10777TIP3    H153822   0.669   6.894   4.759 -0.1118 -0.0886  1.3200
10777TIP3    H253823   0.524   6.908   4.718  0.6707 -1.4927 -2.3166
10778TIP3   OH253824   3.732   1.796  15.016  0.5349  0.2406  0.0297
10778TIP3    H153825   3.819   1.756  15.013  0.0213 -0.9428  0.2936
10778TIP3    H253826   3.723   1.827  15.106  0.4836 -0.1357  0.1587
10779TIP3   OH253827   2.447   5.922   2.972 -0.1073  0.3085  0.4078
10779TIP3    H153828   2.462   5.859   2.902 -1.5523  1.8382 -1.3630
10779TIP3    H253829   2.531   5.926   3.019  0.9070 -0.7387 -1.2248
10780TIP3   OH253830   0.942   4.039  16.731  0.2570  0.0700  0.3422
10780TIP3    H153831   0.974   4.052  16.821  2.8864 -1.2754 -0.2927
10780TIP3    H253832   0.890   3.960  16.736  1.2679 -0.6030  0.5333
10781TIP3   OH253833   4.235   1.366  10.951 -0.2247 -0.3477 -0.0934
10781TIP3    H153834   4.278   1.322  11.025 -1.5178  1.1380  1.6179
10781TIP3    H253835   4.144   1.337  10.956 -0.8696  1.6583  0.4488
10782TIP3   OH253836   3.790   6.816  16.054  0.0190 -0.3457 -0.1020
10782TIP3    H153837   3.840   6.744  16.017 -0.6740 -0.7287 -0.3232
10782TIP3    H253838   3.789   6.798  16.149 -1.1469 -1.3032 -0.2659
10783TIP3   OH253839   2.310   1.363  11.473 -0.8199 -0.2574 -0.1409
10783TIP3    H153840   2.374   1.424  11.511 -0.5543 -0.2035 -0.6659
10783TIP3    H253841   2.263   1.328  11.548  0.2131 -0.7307  0.3101
10784TIP3   OH253842   4.211   3.277   1.477  0.1480  0.3789  1.0782
10784TIP3    H153843   4.127   3.242   1.448  0.7236 -0.2217  0.0568
10784TIP3    H253844   4.241   3.215   1.544  0.8140 -0.7287 -0.1881
10785TIP3   OH253845   2.081   1.861  15.012  0.3389  0.1220  0.4240
10785TIP3    H153846   2.041   1.847  15.098  2.4585  1.0007  1.6367
10785TIP3    H253847   2.094   1.773  14.977 -1.3766 -0.2191  0.5695
10786TIP3   OH253848   2.523   2.213   4.451 -0.0307 -0.1017 -0.3382
10786TIP3    H153849   2.521   2.220   4.546  0.7590  1.2287 -0.3924
10786TIP3    H253850   2.613   2.187   4.431 -0.1104 -0.0825 -0.7268
10787TIP3   OH253851   5.666   2.836   3.628 -0.3641  0.7834 -0.2249
10787TIP3    H153852   5.679   2.907   3.564 -2.1155  0.1612 -1.3313
10787TIP3    H253853   5.621   2.878   3.701  0.8696  1.3105  0.2742
10788TIP3   OH253854   2.980   0.585   0.914  0.3274 -0.2310 -0.2043
10788TIP3    H153855   3.032   0.594   0.993 -0.1081  0.6836 -0.0114
10788TIP3    H253856   2.920   0.660   0.915 -1.9156 -1.9058  0.2824
10789TIP3   OH253857   1.628   0.771  14.912 -0.1332  0.3806 -0.3668
10789TIP3    H153858   1.641   0.708  14.983 -0.0338 -1.5699 -2.0518
10789TIP3    H253859   1.709   0.766  14.861 -0.3259  1.5430 -0.8164
10790TIP3   OH253860   1.969   5.291  12.736 -0.1141 -0.2235 -0.4083
10790TIP3    H153861   2.048   5.272  12.687  0.5294 -0.2039  0.5939
10790TIP3    H253862   1.984   5.253  12.822 -0.1875  1.7815  0.5615
10791TIP3   OH253863   4.089   1.169  16.359  0.0794  0.0231  0.8388
10791TIP3    H153864   4.108   1.200  16.270  1.7743 -0.0139  1.1595
10791TIP3    H253865   4.004   1.207  16.379 -1.0211 -1.1136 -1.3159
10792TIP3   OH253866   2.557   6.064   4.657 -0.3434 -0.1323  0.2401
10792TIP3    H153867   2.597   6.105   4.734 -0.5628  1.6789 -0.5770
10792TIP3    H253868   2.463   6.078   4.668 -0.5983 -1.9535  0.7724
10793TIP3   OH253869   5.587   5.978   2.647 -0.1514 -0.6220 -0.1422
10793TIP3    H153870   5.580   5.911   2.580 -1.3210 -1.0030  0.3449
10793TIP3    H253871   5.550   5.939   2.726  2.0004 -0.5148  1.0157
10794TIP3   OH253872   1.881   1.115  14.801 -0.4877 -0.2410 -0.1617
10794TIP3    H153873   1.902   1.110  14.894  0.8601  0.1783 -0.4213
10794TIP3    H253874   1.826   1.038  14.785 -1.1150 -0.0737  1.0584
10795TIP3   OH253875   3.702   1.548  11.005  0.3449  0.1422  0.0394
10795TIP3    H153876   3.651   1.605  10.948 -0.5409  0.0122  0.6916
10795TIP3    H253877   3.673   1.460  10.984  1.3883 -0.0654 -0.6422
10796TIP3   OH253878   6.367   5.093   0.327 -0.4105 -0.1741  0.3405
10796TIP3    H153879   6.397   5.100   0.418 -1.4735  0.7239  0.6328
10796TIP3    H253880   6.303   5.023   0.328  0.4554 -0.9972  0.0237
10797TIP3   OH253881   4.256   3.265  13.460  0.1457 -0.0180 -0.4340
10797TIP3    H153882   4.285   3.308  13.541  1.0926  3.5684 -2.4333
10797TIP3    H253883   4.192   3.326  13.423 -1.7876 -2.5219 -1.5010
10798TIP3   OH253884   2.932   3.244   1.967  0.3914  0.2574 -0.1643
10798TIP3    H153885   2.945   3.331   2.004  0.3771  0.2061 -0.0384
10798TIP3    H253886   2.999   3.190   2.008 -0.5003 -0.1156  0.8384
10799TIP3   OH253887   4.450   1.322   0.227 -0.3205  0.0480 -0.2082
10799TIP3    H153888   4.447   1.378   0.149  0.5177  0.5877  0.1326
10799TIP3    H253889   4.541   1.327   0.256 -0.7016  0.1286  1.0049
10800TIP3   OH253890   0.008   0.248  16.157  0.7409  0.5856  0.4136
10800TIP3    H153891   0.030   0.327  16.207 -0.0918  0.5468  0.8749
10800TIP3    H253892  -0.001   0.180  16.224 -0.5805  0.5757  0.2551
10801TIP3   OH253893   5.308   3.728   2.711  0.4099  0.4276  0.3139
10801TIP3    H153894   5.382   3.765   2.663  0.0327  0.0204 -0.5962
10801TIP3    H253895   5.317   3.764   2.800  2.3066 -0.4940  0.5312
10802TIP3   OH253896   2.309   6.270   1.615 -0.0741 -0.1631  0.0966
10802TIP3    H153897   2.244   6.214   1.657 -0.2927 -0.2367 -0.3410
10802TIP3    H253898   2.286   6.358   1.642 -0.1374 -0.2223  0.2363
10803TIP3   OH253899   5.035   0.276  13.600  0.3359 -0.2430 -0.1635
10803TIP3    H153900   5.076   0.348  13.552 -1.6475  0.4588 -0.8874
10803TIP3    H253901   4.980   0.232  13.535 -0.6441 -0.6687  0.9209
10804TIP3   OH253902   0.898   6.563   4.411  0.3622 -0.7733  0.0538
10804TIP3    H153903   0.851   6.516   4.342 -0.0079  0.3503 -0.4883
10804TIP3    H253904   0.833   6.573   4.481 -0.2490  0.7636 -0.6879
10805TIP3   OH253905   2.783   2.256   4.343 -0.3367  0.1747  0.0193
10805TIP3    H153906   2.826   2.317   4.404  0.2365 -0.6728  0.4797
10805TIP3    H253907   2.855   2.208   4.302 -0.8195 -2.3590  1.9320
10806TIP3   OH253908   2.397   1.322   2.070 -0.3104 -0.4229  0.1335
10806TIP3    H153909   2.305   1.307   2.051 -0.3315  0.6946 -0.7446
10806TIP3    H253910   2.397   1.394   2.132 -0.0077  0.1403 -0.5099
10807TIP3   OH253911   0.458   3.160   3.902 -0.0518 -0.0546  0.8544
10807TIP3    H153912   0.435   3.138   3.992  1.2735  0.4912  1.3483
10807TIP3    H253913   0.554   3.155   3.899 -0.0360  0.5156 -0.3664
10808TIP3   OH253914   5.466   2.639  13.981  0.3374  0.1891 -0.7819
10808TIP3    H153915   5.437   2.730  13.991 -2.2324 -0.5485 -0.7577
10808TIP3    H253916   5.548   2.646  13.932  0.6356  2.5499 -0.0872
10809TIP3   OH253917   0.218   6.576  14.088  0.1456  0.0693  0.3184
10809TIP3    H153918   0.188   6.666  14.073 -0.2886 -0.0667  0.3775
10809TIP3    H253919   0.156   6.540  14.151  1.4931  0.4040  1.9259
10810TIP3   OH253920   0.294   4.761   6.073  0.2389 -0.3314  0.7758
10810TIP3    H153921   0.308   4.699   6.144  0.1878  0.7460  1.7539
10810TIP3    H253922   0.372   4.816   6.072 -0.0115  0.0310  0.3866
10811TIP3   OH253923   2.519   0.841  11.168 -0.4815 -0.6053  0.0820
10811TIP3    H153924   2.516   0.904  11.096 -1.7275 -0.1248  0.5116
10811TIP3    H253925   2.568   0.886  11.237  0.8349 -1.1220 -0.4975
10812TIP3   OH253926   5.973   6.696   5.339  0.1620  0.2992  0.0831
10812TIP3    H153927   5.883   6.704   5.308 -0.0117  0.7796  0.7136
10812TIP3    H253928   5.988   6.775   5.391  0.8030  0.0105  0.3430
10813TIP3   OH253929   1.085   0.650  16.782 -0.0535 -0.2436 -0.1645
10813TIP3    H153930   1.058   0.675  16.870 -0.3707  1.5304 -0.7116
10813TIP3    H253931   1.168   0.697  16.768 -0.1437 -0.2788 -0.8952
10814TIP3   OH253932   0.277   2.313   4.877 -0.2053 -0.5898  0.2831
10814TIP3    H153933   0.321   2.352   4.952  0.8262  0.2453 -0.7137
10814TIP3    H253934   0.219   2.382   4.844 -0.6225 -0.9352  0.2813
10815TIP3   OH253935   1.777   3.230  14.114 -0.9626 -0.6701  0.5242
10815TIP3    H153936   1.834   3.232  14.191 -0.1782 -2.8128  0.0531
10815TIP3    H253937   1.776   3.320  14.083 -0.2663 -0.0063  2.2791
10816TIP3   OH253938   0.459   2.881   0.952 -0.0621 -0.3455 -0.2043
10816TIP3    H153939   0.470   2.912   1.042  2.5453 -2.1847  0.2187
10816TIP3    H253940   0.478   2.957   0.898 -0.4670  0.4755  0.7790
10817TIP3   OH253941   5.165   5.966   2.445 -0.3478 -0.2047  0.2742
10817TIP3    H153942   5.121   6.007   2.520 -0.6152 -0.2150  0.1226
10817TIP3    H253943   5.096   5.952   2.381 -0.1743 -0.4837  0.1464
10818TIP3   OH253944   6.690   5.953   2.535 -0.7691  0.1143 -0.3383
10818TIP3    H153945   6.732   5.993   2.459 -2.3909 -0.1068 -1.4021
10818TIP3    H253946   6.666   5.865   2.506 -0.8395 -0.2028  0.6418
10819TIP3   OH253947   3.972   5.521  11.543 -0.4438 -0.6242 -0.7751
10819TIP3    H153948   3.952   5.441  11.493 -2.2652  0.7532 -2.4003
10819TIP3    H253949   3.942   5.501  11.632 -0.0166 -2.0586 -0.9195
10820TIP3   OH253950   1.759   4.920  11.432 -0.4194 -0.1228 -0.1871
10820TIP3    H153951   1.795   4.912  11.344  0.5010  0.2383  0.1354
10820TIP3    H253952   1.679   4.972  11.421 -0.2241  0.0544 -0.7863
10821TIP3   OH253953   6.417   4.563  12.355  0.3531 -0.0104 -0.3380
10821TIP3    H153954   6.349   4.623  12.384  0.8247  0.1172  0.5552
10821TIP3    H253955   6.468   4.613  12.291 -0.5808 -0.2246 -1.2665
10822TIP3   OH253956   1.441   0.186   0.489  0.1886  0.4089  0.5777
10822TIP3    H153957   1.483   0.125   0.549  1.2056  0.4035 -0.1179
10822TIP3    H253958   1.453   0.272   0.529  0.8983  0.4105  0.3644
10823TIP3   OH253959   5.140   1.788   5.238 -0.3519 -0.6413  0.2515
10823TIP3    H153960   5.094   1.873   5.238  0.2191 -0.2469  2.8292
10823TIP3    H253961   5.210   1.799   5.301 -0.0340 -2.9586  0.3797
10824TIP3   OH253962   0.031   3.151   3.317 -0.4774 -0.3519 -0.3646
10824TIP3    H153963  -0.059   3.129   3.293 -0.3315  0.4948 -1.7635
10824TIP3    H253964   0.077   3.158   3.234 -0.0281  3.1205  0.0476
10825TIP3   OH253965   5.657   4.528  10.873  0.4055  0.0249 -0.4068
10825TIP3    H153966   5.749   4.538  10.849  0.5905  1.5275  0.7989
10825TIP3    H253967   5.615   4.606  10.837 -0.1587 -0.0028  0.1917
10826TIP3   OH253968   1.095   5.529  15.829 -0.3759  0.2524  0.2047
10826TIP3    H153969   1.034   5.462  15.860  0.9111 -1.1747 -0.1771
10826TIP3    H253970   1.042   5.589  15.777 -1.5491 -0.5675  0.4301
10827TIP3   OH253971   0.573   0.411   1.507 -0.5898  0.5027  0.2793
10827TIP3    H153972   0.626   0.479   1.549  0.2562  0.5815 -0.8463
10827TIP3    H253973   0.492   0.409   1.557 -0.8787  2.7645  0.0054
10828TIP3   OH253974   6.475   0.659  14.315 -0.0851 -0.4891 -0.1465
10828TIP3    H153975   6.518   0.574  14.307 -0.8965 -1.5375  4.3325
10828TIP3    H253976   6.381   0.638  14.313 -0.3010  0.4365  0.0195
10829TIP3   OH253977   3.854   4.649   2.536 -0.1884 -0.5472 -0.3452
10829TIP3    H153978   3.813   4.606   2.612 -0.3159 -2.1170 -1.2470
10829TIP3    H253979   3.782   4.694   2.493 -0.0184  0.8267  0.7300
10830TIP3   OH253980   2.748   5.781  12.163 -0.1629  0.0852 -0.4462
10830TIP3    H153981   2.806   5.707  12.144 -0.2096  0.1804 -0.9802
10830TIP3    H253982   2.718   5.811  12.077 -0.5684  0.3878 -0.2051
10831TIP3   OH253983   1.467   3.744  10.120 -0.1147  0.4081 -0.5685
10831TIP3    H153984   1.442   3.829  10.157  0.4908 -0.2385  1.4422
10831TIP3    H253985   1.400   3.683  10.150  1.1630 -0.4074  0.7726
10832TIP3   OH253986   4.056   6.118  15.470 -0.3628  0.3542 -0.7710
10832TIP3    H153987   3.989   6.186  15.465 -0.6951 -0.0270 -2.4394
10832TIP3    H253988   4.023   6.056  15.535  1.5431  3.3067  3.4024
10833TIP3   OH253989   6.561   3.337  14.385  0.1765 -0.1552 -0.1725
10833TIP3    H153990   6.576   3.243  14.374  0.9737  0.0739 -1.1961
10833TIP3    H253991   6.562   3.371  14.296  1.9003  1.1147  0.2880
10834TIP3   OH253992   3.159   6.374   1.969  0.0968 -0.5542  0.4228
10834TIP3    H153993   3.253   6.354   1.969  0.9005  2.6592  1.5632
10834TIP3    H253994   3.143   6.410   1.882  0.3612  0.4716  0.7826
10835TIP3   OH253995   5.107   4.887   0.306 -0.8368  0.0434 -0.0514
10835TIP3    H153996   5.093   4.836   0.227  1.0539  1.4759 -1.4196
10835TIP3    H253997   5.022   4.924   0.327 -1.7953 -1.9870 -0.1912
10836TIP3   OH253998   2.525   0.557  14.200 -0.0558  0.3684 -0.1490
10836TIP3    H153999   2.434   0.533  14.187  0.5424 -2.7936  0.7078
10836TIP3    H254000   2.561   0.567  14.112 -0.9554  0.6341 -0.4960
10837TIP3   OH254001   4.908   0.274   5.480  0.1615  0.0327 -0.7679
10837TIP3    H154002   4.947   0.283   5.567 -1.8917 -0.2909  0.2279
10837TIP3    H254003   4.916   0.361   5.441  1.1248  0.1706 -0.3028
10838TIP3   OH254004   5.047   1.404  13.137 -0.4039  0.8238  0.2308
10838TIP3    H154005   5.089   1.427  13.054 -0.7667  1.0576  0.1098
10838TIP3    H254006   4.956   1.430  13.125 -0.7951 -0.5033  0.1557
10839TIP3   OH254007   2.385   6.091   1.398  0.1154  0.8377 -0.1137
10839TIP3    H154008   2.356   6.010   1.438 -2.7873  1.3434 -0.9280
10839TIP3    H254009   2.390   6.154   1.470 -1.6212  0.8703  0.0301
10840TIP3   OH254010   2.684   1.691  14.202  0.3738 -0.3058 -0.2298
10840TIP3    H154011   2.649   1.703  14.113  0.9528 -0.1182 -0.4378
10840TIP3    H254012   2.648   1.607  14.230 -0.0442 -0.2351 -0.5317
10841TIP3   OH254013   0.174   2.470   5.170 -0.7791 -0.1690  0.1678
10841TIP3    H154014   0.110   2.495   5.236 -0.5523  1.4474 -0.1659
10841TIP3    H254015   0.252   2.522   5.192  0.7523 -2.6613  1.0510
10842TIP3   OH254016   1.789   1.652   4.532  0.4241 -0.1204  0.2338
10842TIP3    H154017   1.738   1.600   4.595  2.7770 -0.3981  2.0400
10842TIP3    H254018   1.822   1.588   4.469 -1.2592  0.0445 -0.8748
10843TIP3   OH254019   2.999   3.611   2.623  0.3036 -0.5470 -0.5031
10843TIP3    H154020   3.041   3.528   2.645  0.3014 -0.2816  0.5582
10843TIP3    H254021   3.038   3.637   2.539  1.7734 -0.6337  0.1313
10844TIP3   OH254022   0.160   2.439  12.017  0.0097  0.2262  0.9098
10844TIP3    H154023   0.189   2.392  12.096  1.5390  1.0439  0.8673
10844TIP3    H254024   0.065   2.426  12.015  0.1756 -1.4453  1.8092
10845TIP3   OH254025   6.098   1.337   5.505  0.7172  0.7782  0.1198
10845TIP3    H154026   6.057   1.394   5.571  0.7004  0.2396  0.5844
10845TIP3    H254027   6.192   1.346   5.522  0.7043  0.4451  0.3951
10846TIP3   OH254028   6.010   1.436   5.774  0.2833  0.1710 -0.0040
10846TIP3    H154029   5.999   1.342   5.790  0.7784  0.2194  0.7110
10846TIP3    H254030   5.934   1.476   5.816 -0.9867 -0.0237 -2.0133
10847TIP3   OH254031   0.577   4.358   2.951  0.5119  0.3041  0.3327
10847TIP3    H154032   0.522   4.335   2.876  0.5230  0.6068  0.2286
10847TIP3    H254033   0.551   4.296   3.019 -0.8652  1.2155  0.6957
10848TIP3   OH254034   2.331   4.318  14.769 -0.1180 -0.2903  0.0435
10848TIP3    H154035   2.290   4.392  14.725  0.4559 -0.5429 -0.9415
10848TIP3    H254036   2.379   4.272  14.700  2.6331  0.5255  1.2434
10849TIP3   OH254037   5.423   1.863  14.590 -0.0934 -0.5960  0.4672
10849TIP3    H154038   5.490   1.797  14.606 -1.1813 -1.5476  1.3259
10849TIP3    H254039   5.344   1.812  14.572 -1.4238  0.3928  3.0399
10850TIP3   OH254040   5.856   0.369   2.427  0.0943 -0.3554 -0.3873
10850TIP3    H154041   5.879   0.452   2.470  1.6765 -0.5090 -0.8604
10850TIP3    H254042   5.869   0.386   2.334 -1.6572 -0.5316 -0.6990
10851TIP3   OH254043   5.428   0.023  14.949  0.0236 -0.3650  0.0483
10851TIP3    H154044   5.341   0.005  14.914  0.1546 -0.2205 -0.3636
10851TIP3    H254045   5.436   0.118  14.948  1.0775 -0.3914 -2.2521
10852TIP3   OH254046   3.277   5.515  12.662  0.2227  0.4960  0.3637
10852TIP3    H154047   3.206   5.463  12.625 -0.2731  1.8205 -0.6282
10852TIP3    H254048   3.265   5.509  12.757  0.6027 -1.7169  0.3268
10853TIP3   OH254049   1.016   5.024   5.678  0.3824 -0.2558  0.0420
10853TIP3    H154050   0.995   5.112   5.709 -0.7079 -1.0173  1.5914
10853TIP3    H254051   0.931   4.982   5.663  0.8802 -1.0442 -0.6983
10854TIP3   OH254052   5.441   4.267   2.482 -0.1231 -0.9326  0.1709
10854TIP3    H154053   5.533   4.244   2.465  0.2941  0.6694  0.0576
10854TIP3    H254054   5.401   4.268   2.395 -0.0573 -0.9127  0.1401
10855TIP3   OH254055   0.763   5.534   5.818  0.0285 -0.4121  0.0143
10855TIP3    H154056   0.845   5.501   5.783  0.0343 -0.5299  0.1372
10855TIP3    H254057   0.738   5.470   5.885 -0.9981 -1.2749 -1.1412
10856TIP3   OH254058   1.093   5.137   3.228  0.0921 -0.1858  0.8241
10856TIP3    H154059   1.021   5.146   3.291  0.0230  0.9688  0.6135
10856TIP3    H254060   1.121   5.227   3.212 -0.6024 -0.3534 -1.6068
10857TIP3   OH254061   5.059   1.061   4.800  0.4267 -0.1571  0.4185
10857TIP3    H154062   5.117   1.087   4.728  1.5447  0.2597  1.4478
10857TIP3    H254063   5.030   1.143   4.838 -2.8602 -0.2326 -1.5508
10858TIP3   OH254064   4.560   6.688  14.401 -0.7343 -0.0497 -0.3388
10858TIP3    H154065   4.614   6.766  14.416  0.1658 -0.2797 -2.0731
10858TIP3    H254066   4.470   6.719  14.406 -0.4142  0.7602  0.6257
10859TIP3   OH254067   4.993   3.771  16.180 -0.1401 -0.1266  0.2206
10859TIP3    H154068   5.004   3.694  16.235 -0.7473  0.3554  1.0295
10859TIP3    H254069   4.899   3.776  16.164 -0.0876  0.3879  0.0698
10860TIP3   OH254070   5.538   6.139   3.908 -0.1455  0.2416 -1.1888
10860TIP3    H154071   5.445   6.131   3.929  0.0407  0.8594 -0.0859
10860TIP3    H254072   5.569   6.048   3.905 -0.1383  0.0792  1.5409
10861TIP3   OH254073   0.579   4.800  12.594  0.4232 -0.1317 -0.2048
10861TIP3    H154074   0.546   4.738  12.660  1.7064 -0.5500  0.0676
10861TIP3    H254075   0.500   4.838  12.556 -0.3494  0.4522  1.8703
10862TIP3   OH254076   3.601   6.769  11.091 -0.3087 -0.2107  0.2841
10862TIP3    H154077   3.657   6.700  11.056 -2.0911 -1.8576  0.5029
10862TIP3    H254078   3.661   6.831  11.132  1.5285 -0.4099 -1.9090
10863TIP3   OH254079   0.070   6.850   0.531 -0.3817 -0.1769  0.1874
10863TIP3    H154080  -0.006   6.850   0.473 -0.6753  2.4629  0.4633
10863TIP3    H254081   0.033   6.842   0.619 -0.2285 -0.2808  0.2437
10864TIP3   OH254082   0.145   4.893  14.510  0.0365 -0.1282  0.1640
10864TIP3    H154083   0.163   4.800  14.524  0.3762  0.1081  1.4625
10864TIP3    H254084   0.091   4.896  14.431 -0.0384 -1.4317  0.1504
10865TIP3   OH254085   5.967   5.230  16.134  0.0868 -0.0552  0.5038
10865TIP3    H154086   5.896   5.255  16.074  2.1982 -0.7699 -2.5396
10865TIP3    H254087   6.042   5.282  16.105  1.4047 -0.9441  2.1367
10866TIP3   OH254088   6.700   0.963   3.658  0.0622  0.0960  0.6594
10866TIP3    H154089   6.726   1.023   3.589 -0.3273 -0.4860 -0.0118
10866TIP3    H254090   6.618   0.999   3.692 -1.5159 -1.3038 -1.4161
10867TIP3   OH254091   5.885   1.800  16.024 -0.3922  0.2215  0.3491
10867TIP3    H154092   5.932   1.803  16.107  0.4078 -0.5695 -0.0492
10867TIP3    H254093   5.802   1.845  16.041 -1.1097 -1.6121  2.1380
10868TIP3   OH254094   4.201   4.308   1.325 -0.1243  0.5665 -0.5021
10868TIP3    H154095   4.139   4.296   1.253 -0.4958 -1.8521  0.1394
10868TIP3    H254096   4.159   4.266   1.400  1.2185  1.0954  0.5817
10869TIP3   OH254097   1.918   1.821   4.868 -0.5077 -0.1637  0.0369
10869TIP3    H154098   1.925   1.787   4.779  1.3150 -1.1113  0.4816
10869TIP3    H254099   1.873   1.751   4.916  0.6798 -0.7274  0.3508
10870TIP3   OH254100   3.897   4.034  16.417  0.5302  0.1103  0.2368
10870TIP3    H154101   3.873   4.047  16.325 -0.6931 -0.0738  0.5125
10870TIP3    H254102   3.988   4.066  16.423  1.1655 -1.2594 -1.3459
10871TIP3   OH254103   0.374   4.087   2.418  0.1892 -0.1176 -0.2378
10871TIP3    H154104   0.327   4.046   2.345  0.3582 -1.6430  0.4879
10871TIP3    H254105   0.364   4.181   2.402 -1.9431 -0.3907 -0.8685
10872TIP3   OH254106   2.669   4.137  13.916  0.1633  0.0972  0.1643
10872TIP3    H154107   2.738   4.135  13.849 -0.7856  0.5256 -0.8650
10872TIP3    H254108   2.587   4.135  13.866 -0.5842 -0.4091  1.3558
10873TIP3   OH254109   3.047   0.297  14.416 -0.1667 -0.1128 -0.3116
10873TIP3    H154110   3.083   0.381  14.445  0.6028 -0.2147 -0.9257
10873TIP3    H254111   3.124   0.244  14.397 -0.6359 -0.3794 -1.5693
10874TIP3   OH254112   3.998   4.368   2.487 -0.0843 -0.3229  0.7154
10874TIP3    H154113   3.997   4.450   2.537  0.1548  0.5719 -0.6829
10874TIP3    H254114   4.030   4.394   2.400 -3.3589 -1.2207 -0.9155
10875TIP3   OH254115   4.904   4.204   5.300  0.4794  0.0921  0.0588
10875TIP3    H154116   4.838   4.260   5.259  1.2164  0.3267 -0.8521
10875TIP3    H254117   4.870   4.186   5.388 -1.0772 -0.3160 -0.6113
10876TIP3   OH254118   4.851   0.672   1.721 -0.5158  0.5376  0.2814
10876TIP3    H154119   4.796   0.736   1.767 -0.5172  0.2966  0.6229
10876TIP3    H254120   4.811   0.665   1.635 -1.1545  0.2164  0.5926
10877TIP3   OH254121   2.823   0.339  12.839 -0.0073 -0.2274  0.2238
10877TIP3    H154122   2.914   0.366  12.853  0.0922 -0.4493  0.0161
10877TIP3    H254123   2.828   0.275  12.768 -0.4125  0.3271 -0.3174
10878TIP3   OH254124   4.303   0.065   4.411  0.1643 -0.5566 -0.6795
10878TIP3    H154125   4.217   0.070   4.452  0.9054 -0.5533  0.9346
10878TIP3    H254126   4.333  -0.024   4.427 -0.0483 -0.9795 -2.3851
10879TIP3   OH254127   3.082   6.112   6.167  0.5652  0.7736 -0.3500
10879TIP3    H154128   3.150   6.167   6.127  0.2206  1.3938 -0.0872
10879TIP3    H254129   3.002   6.163   6.158 -0.1432 -0.5293 -1.9070
10880TIP3   OH254130   5.228   1.092  11.032  0.0106 -0.5525  0.7902
10880TIP3    H154131   5.293   1.091  11.102  1.4101 -0.3226 -0.4587
10880TIP3    H254132   5.208   0.999  11.018  0.8873 -0.7070  0.4747
10881TIP3   OH254133   5.013   4.165   1.263 -0.5228 -0.0528  0.6228
10881TIP3    H154134   5.026   4.071   1.277  2.9774  0.0869 -0.5406
10881TIP3    H254135   4.960   4.193   1.337 -1.6021 -2.8956  1.0608
10882TIP3   OH254136   3.596   2.486  15.394  0.0835 -0.0502  0.0407
10882TIP3    H154137   3.552   2.474  15.478 -0.2022  0.6535 -0.0096
10882TIP3    H254138   3.620   2.397  15.367 -2.2129 -0.5819 -0.4408
10883TIP3   OH254139   0.675   4.106  11.263 -0.6603 -0.1981 -0.5812
10883TIP3    H154140   0.648   4.151  11.343 -1.0816  0.7802 -1.2430
10883TIP3    H254141   0.707   4.021  11.292  0.4266  0.6286  0.7509
10884TIP3   OH254142   1.215   0.295  13.063 -0.0262  0.0433 -0.5743
10884TIP3    H154143   1.258   0.236  13.124 -0.3439  0.7041  0.3215
10884TIP3    H254144   1.164   0.238  13.005 -1.0699 -0.5371  0.8513
10885TIP3   OH254145   5.446   1.026  12.599  0.0532 -0.3974 -0.4994
10885TIP3    H154146   5.518   1.088  12.611  0.9834 -1.7671  1.7187
10885TIP3    H254147   5.488   0.940  12.603 -1.5171 -1.2249 -0.9423
10886TIP3   OH254148   3.001   6.464   2.512  0.2426 -0.6117 -0.1992
10886TIP3    H154149   3.057   6.493   2.439  0.0878  2.0005  0.6257
10886TIP3    H254150   2.915   6.450   2.472  0.3466  0.0374 -0.6659
10887TIP3   OH254151   3.005   5.274  16.020 -0.8741 -0.5670  0.2330
10887TIP3    H154152   3.062   5.289  15.944 -1.2770 -2.0787 -0.4238
10887TIP3    H254153   3.058   5.220  16.079 -0.6221  0.4686  0.9753
10888TIP3   OH254154   3.083   6.489   4.450 -0.4925  0.1706 -0.2463
10888TIP3    H154155   3.124   6.408   4.482 -0.3304  0.2097 -0.3546
10888TIP3    H254156   3.157   6.546   4.428 -0.6079  0.4916  0.1815
10889TIP3   OH254157   3.366   3.616  15.961 -0.4905  0.4327  0.0815
10889TIP3    H154158   3.353   3.710  15.946 -1.5973  0.3489  0.4432
10889TIP3    H254159   3.298   3.592  16.024 -2.0997 -1.1654 -2.0821
10890TIP3   OH254160   6.438   0.896   4.238 -0.4680  0.2484 -0.1184
10890TIP3    H154161   6.356   0.847   4.244  0.0726 -0.5313  1.6496
10890TIP3    H254162   6.474   0.872   4.152 -1.0404 -1.1581  0.0017
10891TIP3   OH254163   0.542   6.187   3.338 -0.3057  0.0452  0.3494
10891TIP3    H154164   0.469   6.140   3.298 -0.0055  0.1795 -0.3671
10891TIP3    H254165   0.522   6.279   3.323  0.3444  0.0628 -0.4522
10892TIP3   OH254166   0.998   1.877  12.503  0.8479 -0.1323 -0.5517
10892TIP3    H154167   1.005   1.821  12.580 -1.1943 -0.0589 -0.2520
10892TIP3    H254168   0.996   1.966  12.538 -0.0511 -0.0979 -0.6628
10893TIP3   OH254169   0.394   5.895   6.120  0.4724 -0.4569  0.4731
10893TIP3    H154170   0.301   5.872   6.119  0.4489 -0.3855  0.8611
10893TIP3    H254171   0.399   5.970   6.180  0.8360 -0.7017  0.7512
10894TIP3   OH254172   5.603   6.323   4.938 -0.1444  0.4195  0.0577
10894TIP3    H154173   5.668   6.255   4.920  0.2430  0.3806  1.4485
10894TIP3    H254174   5.524   6.274   4.962  0.2838  0.4171  1.5713
10895TIP3   OH254175   5.527   5.812  15.141 -0.2193 -0.3627  0.1930
10895TIP3    H154176   5.542   5.867  15.064 -0.1303 -0.5006  0.1131
10895TIP3    H254177   5.433   5.795  15.140 -0.4644  0.7949  0.8855
10896TIP3   OH254178   0.211   3.448  16.985  0.9552 -0.0953 -0.2164
10896TIP3    H154179   0.153   3.523  16.970 -0.5956 -1.5347 -2.0101
10896TIP3    H254180   0.179   3.409  17.066  2.2159  1.5108  1.1084
10897TIP3   OH254181   1.640   6.416  14.393 -1.0389  0.3747 -0.2163
10897TIP3    H154182   1.662   6.363  14.316  1.4786  0.7885  0.1479
10897TIP3    H254183   1.724   6.432  14.437 -2.3290  0.4769  2.4386
10898TIP3   OH254184   1.211   2.019   2.293  0.1290  0.1571 -0.3782
10898TIP3    H154185   1.249   2.063   2.370  0.8153  0.6927 -1.0100
10898TIP3    H254186   1.165   1.943   2.329  1.5338 -0.3316  0.4466
10899TIP3   OH254187   6.730   1.534  15.389 -0.3829 -0.2561  0.3931
10899TIP3    H154188   6.643   1.557  15.422 -0.1714 -2.7230  3.1001
10899TIP3    H254189   6.719   1.446  15.351  1.0065 -1.0164  1.6063
10900TIP3   OH254190   2.571   2.480   0.137  0.6679  0.3832  0.1546
10900TIP3    H154191   2.498   2.455   0.081  1.3263 -0.7732 -0.2325
10900TIP3    H254192   2.531   2.522   0.213 -0.3817 -0.0827 -0.1290
10901TIP3   OH254193   0.999   4.695  13.333  0.2298 -0.4523  0.1480
10901TIP3    H154194   1.000   4.609  13.291  0.2351 -1.1535  1.5488
10901TIP3    H254195   0.932   4.688  13.401  0.0087  0.7640  0.0839
10902TIP3   OH254196   4.829   5.604  15.303  0.6713 -0.0175  0.3250
10902TIP3    H154197   4.888   5.666  15.260 -0.0094 -0.9614 -2.1339
10902TIP3    H254198   4.883   5.563  15.371  1.7984  1.5830  0.4416
10903TIP3   OH254199   1.164   2.517   6.227  0.5850 -0.1948 -0.0707
10903TIP3    H154200   1.236   2.555   6.176 -0.2584  0.6940 -0.6385
10903TIP3    H254201   1.195   2.520   6.317  2.0433 -1.6561 -0.4767
10904TIP3   OH254202   6.381   6.586  15.326  0.5658  0.0259  0.4012
10904TIP3    H154203   6.430   6.534  15.263 -0.9334 -1.1446  0.1371
10904TIP3    H254204   6.426   6.572  15.409 -0.0200 -2.1244  0.4298
10905TIP3   OH254205   3.797   2.369  14.371 -0.8414 -0.3078  0.0336
10905TIP3    H154206   3.741   2.368  14.448  0.2522  0.4597  0.8822
10905TIP3    H254207   3.861   2.299  14.386  1.1311  1.6081  1.2739
10906TIP3   OH254208   0.358   1.396  12.946  0.5183 -0.9072 -0.0453
10906TIP3    H154209   0.356   1.371  13.038  0.9869 -0.4818  0.0843
10906TIP3    H254210   0.412   1.475  12.943  1.1576 -1.3536 -0.7866
10907TIP3   OH254211   3.091   0.413  14.051 -0.5209  0.1800 -0.0640
10907TIP3    H154212   3.057   0.340  13.999 -0.7941  0.5981 -0.4801
10907TIP3    H254213   3.015   0.448  14.096 -0.5445  0.7253 -0.5114
10908TIP3   OH254214   4.906   4.328  14.344  0.2855  0.4525  0.1453
10908TIP3    H154215   4.993   4.369  14.350  0.3875  0.1279  0.9960
10908TIP3    H254216   4.918   4.257  14.281 -0.0356  2.0278 -1.8095
10909TIP3   OH254217   6.801   2.346  16.527 -0.4923 -0.4052  0.1755
10909TIP3    H154218   6.738   2.362  16.457 -1.3563 -0.7239  0.8731
10909TIP3    H254219   6.818   2.433  16.564 -2.1830 -0.5409  1.3833
10910TIP3   OH254220   3.836   3.056   5.976 -0.1044  0.2334  0.0582
10910TIP3    H154221   3.758   3.026   5.930 -0.2001  0.5649 -0.0024
10910TIP3    H254222   3.830   3.015   6.063 -1.1783  1.4927  0.6218
10911TIP3   OH254223   4.894   5.131  14.465  0.2216 -0.1383  0.8412
10911TIP3    H154224   4.833   5.147  14.393  2.1612  1.0567 -0.6174
10911TIP3    H254225   4.919   5.039  14.455  0.0557 -0.1305  0.3383
10912TIP3   OH254226   6.364   5.659  14.703  0.0130 -0.3757 -0.3340
10912TIP3    H154227   6.310   5.734  14.677 -1.1707 -0.7686  0.8429
10912TIP3    H254228   6.425   5.647  14.631 -0.2710  1.2411 -0.8880
10913TIP3   OH254229   4.362   1.654  14.549 -0.2856 -0.3808 -0.2378
10913TIP3    H154230   4.293   1.670  14.614  0.2654  0.1596  0.2305
10913TIP3    H254231   4.432   1.715  14.574  1.0544 -2.1030  0.3425
10914TIP3   OH254232   6.694   3.905  15.292  0.0271  0.1134 -0.4547
10914TIP3    H154233   6.749   3.975  15.255  0.2945  0.7641  1.0953
10914TIP3    H254234   6.755   3.833  15.307 -0.0413 -0.0752 -1.0483
10915TIP3   OH254235   5.354   1.817   2.010 -0.1819 -0.5812  0.8150
10915TIP3    H154236   5.444   1.849   2.016  0.9665 -3.4846  1.0359
10915TIP3    H254237   5.301   1.883   2.054  1.7383  1.5051  0.1369
10916TIP3   OH254238   0.483   0.880  11.889  0.6981 -0.3859  0.1399
10916TIP3    H154239   0.461   0.873  11.982 -0.6487 -3.5068 -0.2606
10916TIP3    H254240   0.577   0.864  11.885  0.7839 -0.1387  0.9756
10917TIP3   OH254241   5.106   3.315   3.598 -0.8369  0.1690  0.3481
10917TIP3    H154242   5.117   3.225   3.629 -1.2234 -1.0307 -2.6960
10917TIP3    H254243   5.194   3.345   3.579 -0.8172 -0.2068 -0.1873
10918TIP3   OH254244   0.922   0.250  16.426 -0.0904  0.2081  0.3551
10918TIP3    H154245   0.865   0.271  16.352 -1.4146 -1.0742  0.9659
10918TIP3    H254246   0.910   0.323  16.487 -1.2860 -0.1553  0.5777
10919TIP3   OH254247   3.791   6.656  13.968 -0.1150  0.3107  0.8436
10919TIP3    H154248   3.820   6.745  13.946  0.7332 -0.2436 -0.3846
10919TIP3    H254249   3.697   6.657  13.950  0.0398  0.7311  0.0045
10920TIP3   OH254250   0.122   5.991  11.970 -0.3991 -0.1317 -0.3637
10920TIP3    H154251   0.135   5.899  11.990 -1.2460  0.2099  2.0409
10920TIP3    H254252   0.035   6.011  12.002  0.3481  1.8478  0.6019
10921TIP3   OH254253   2.928   1.229  15.989  0.0474  0.2866 -0.2774
10921TIP3    H154254   2.891   1.317  15.986  0.1330  0.3472  0.3661
10921TIP3    H254255   2.992   1.232  16.060  0.9283  0.0442 -1.0354
10922TIP3   OH254256   1.164   1.262  10.558  0.2549  0.5952  0.1507
10922TIP3    H154257   1.172   1.170  10.582 -0.0640  1.1088  2.4404
10922TIP3    H254258   1.080   1.268  10.512  1.2330 -0.5617 -1.9039
10923TIP3   OH254259   2.292   2.970   0.333 -0.2164  0.5230  0.4805
10923TIP3    H154260   2.344   2.969   0.414  2.8521  2.3437 -1.2685
10923TIP3    H254261   2.288   3.063   0.309 -2.6627  0.2087 -0.5538
10924TIP3   OH254262   0.857   1.551  11.751 -0.2528 -0.7434  0.7817
10924TIP3    H154263   0.921   1.493  11.709 -0.1394  0.0288 -0.1473
10924TIP3    H254264   0.902   1.583  11.830  1.6915  1.9379 -1.2212
10925TIP3   OH254265   3.606   6.010   3.244 -0.0332  0.0568  0.5482
10925TIP3    H154266   3.603   6.099   3.280  3.9935 -0.1533  1.9302
10925TIP3    H254267   3.699   5.995   3.226 -0.4672 -4.0532  0.8515
10926TIP3   OH254268   1.282   1.745   1.447 -0.0459  0.5759 -0.3112
10926TIP3    H154269   1.311   1.836   1.452  0.0672  0.4848  1.5438
10926TIP3    H254270   1.362   1.693   1.448 -0.1350  0.4356 -0.2392
10927TIP3   OH254271   2.628   2.363   1.290 -0.5148 -0.1815 -0.0439
10927TIP3    H154272   2.538   2.339   1.269 -0.6139  0.7601 -0.7675
10927TIP3    H254273   2.626   2.459   1.296  0.0996 -0.2308  1.5894
10928TIP3   OH254274   5.584   5.457   3.865 -0.5455 -0.1839  0.2832
10928TIP3    H154275   5.506   5.511   3.854 -0.5041 -0.4170 -1.4483
10928TIP3    H254276   5.621   5.450   3.777  1.1093 -0.5700  0.9722
10929TIP3   OH254277   2.675   6.516  14.045  0.2843  0.1148  0.4831
10929TIP3    H154278   2.605   6.461  14.081 -0.2610  1.8729  2.2955
10929TIP3    H254279   2.733   6.533  14.119  2.3300 -0.7806 -0.8538
10930TIP3   OH254280   6.156   2.508  12.807  0.0939  0.0624 -0.4977
10930TIP3    H154281   6.083   2.458  12.771 -0.2463  0.6714 -0.6663
10930TIP3    H254282   6.118   2.592  12.832  1.0739  1.1803 -2.4660
10931TIP3   OH254283   3.681   4.332   4.126  0.2136 -0.1262  0.4890
10931TIP3    H154284   3.681   4.305   4.034  3.4664 -0.1357  0.3527
10931TIP3    H254285   3.687   4.250   4.174 -0.7822 -0.0876  0.6886
10932TIP3   OH254286   2.819   2.499   0.014  0.9382 -0.0394  0.0376
10932TIP3    H154287   2.804   2.486  -0.080  0.5742  0.6452 -0.0072
10932TIP3    H254288   2.732   2.496   0.053  0.7363  2.5267 -0.0381
10933TIP3   OH254289   1.472   6.334  11.071 -1.3590 -0.2511  0.0398
10933TIP3    H154290   1.502   6.317  11.160  0.4621 -1.7991 -0.8063
10933TIP3    H254291   1.451   6.248  11.036 -3.0738  0.4371 -0.7363
10934TIP3   OH254292   5.383   0.320   4.999 -0.2641 -0.5939  0.3610
10934TIP3    H154293   5.384   0.414   5.017  1.3319 -0.2842 -1.0866
10934TIP3    H254294   5.328   0.311   4.921  0.0558 -0.7665  0.1498
10935TIP3   OH254295   5.378   1.362   4.009  0.0181 -0.4901  0.1642
10935TIP3    H154296   5.330   1.287   3.975  0.1996 -0.4785 -0.1160
10935TIP3    H254297   5.340   1.377   4.096 -1.5081  0.4425 -0.6407
10936TIP3   OH254298   1.329   6.293  14.116  0.1870 -0.0605 -0.0304
10936TIP3    H154299   1.382   6.231  14.166 -1.4158 -0.9409  0.6718
10936TIP3    H254300   1.388   6.364  14.095  1.1539 -0.0485  2.4053
10937TIP3   OH254301   3.166   3.755   5.784 -0.4049 -0.1903  0.0406
10937TIP3    H154302   3.141   3.714   5.866  0.8456  1.8336  1.5159
10937TIP3    H254303   3.087   3.801   5.756 -0.8546 -0.9420  0.0386
10938TIP3   OH254304   6.846   3.117   0.036 -0.3004 -0.3449  0.3908
10938TIP3    H154305   6.911   3.069   0.088  0.2729 -0.5528 -0.4901
10938TIP3    H254306   6.763   3.101   0.080  0.1404 -0.6957  1.1108
10939TIP3   OH254307   4.034   3.743   1.979 -0.3632 -0.4438 -0.0371
10939TIP3    H154308   4.051   3.830   2.017 -2.3920 -0.7467  1.7620
10939TIP3    H254309   3.949   3.752   1.937  0.4073 -1.0239 -1.7984
10940TIP3   OH254310   4.152   2.384   4.915  0.2087 -0.1096  0.2914
10940TIP3    H154311   4.196   2.443   4.976  0.5453  0.5472 -0.5662
10940TIP3    H254312   4.204   2.390   4.835 -2.2519  1.9001 -1.3001
10941TIP3   OH254313   6.191   0.577   4.614  0.1740 -0.0230  0.0098
10941TIP3    H154314   6.152   0.614   4.535 -0.9140  0.2359  0.6413
10941TIP3    H254315   6.201   0.651   4.673 -0.0550 -0.3907  0.5189
10942TIP3   OH254316   1.301   2.027  12.422 -0.4906 -0.2580 -0.3092
10942TIP3    H154317   1.393   2.043  12.446 -0.8948  0.8554  0.5787
10942TIP3    H254318   1.269   1.966  12.488 -0.9527  0.9824  0.6405
10943TIP3   OH254319   2.519   4.252   4.620 -0.9119  0.2751  0.0740
10943TIP3    H154320   2.605   4.223   4.589 -1.3795 -1.6410  0.3871
10943TIP3    H254321   2.538   4.305   4.698  0.0149  0.7035 -0.4265
10944TIP3   OH254322   4.415   0.471  13.618 -0.1885 -0.1873  0.4487
10944TIP3    H154323   4.445   0.485  13.529 -1.1218  0.5898  0.2286
10944TIP3    H254324   4.362   0.549  13.637 -1.3814 -1.1222  1.0702
10945TIP3   OH254325   6.547   6.743  15.058  0.2144 -0.9056  0.2337
10945TIP3    H154326   6.607   6.731  15.131  1.6149  0.1553 -0.6846
10945TIP3    H254327   6.486   6.812  15.087 -0.9684 -2.3612  1.3704
10946TIP3   OH254328   2.668   1.165   1.115 -0.1661  0.1182 -0.6261
10946TIP3    H154329   2.601   1.152   1.048 -1.4232 -0.1551  0.6314
10946TIP3    H254330   2.686   1.259   1.114 -0.6726  0.2138 -0.8861
10947TIP3   OH254331   4.956   1.293  15.805 -0.0866 -0.4038  0.0829
10947TIP3    H154332   5.001   1.326  15.883  1.6071  0.4109 -1.1830
10947TIP3    H254333   4.992   1.343  15.733 -1.8771 -0.8803 -1.2283
10948TIP3   OH254334   6.419   1.761  14.033 -0.0578 -0.5352 -0.0572
10948TIP3    H154335   6.452   1.799  13.951 -1.0662  1.9101  0.5738
10948TIP3    H254336   6.460   1.813  14.101 -0.6430 -1.3470  0.9392
10949TIP3   OH254337   6.742   5.040   0.525 -0.6525  0.3707 -1.2552
10949TIP3    H154338   6.795   5.049   0.446 -0.2588 -0.5027 -1.1039
10949TIP3    H254339   6.694   4.958   0.512 -0.0059 -0.1739 -0.2612
10950TIP3   OH254340   2.980   1.226  13.211  0.3721  0.5081 -0.0893
10950TIP3    H154341   2.937   1.197  13.131 -2.7147 -1.6884  2.1260
10950TIP3    H254342   3.019   1.147  13.248 -0.9507  0.7579  2.0205
10951TIP3   OH254343   1.922   2.443  16.504 -0.0365  0.0263 -0.3700
10951TIP3    H154344   1.993   2.507  16.514  1.0400 -1.1298 -0.3602
10951TIP3    H254345   1.964   2.359  16.520 -1.9357 -0.5491  2.3132
10952TIP3   OH254346   0.777   5.007   4.642 -0.5148  0.3242 -0.0766
10952TIP3    H154347   0.832   4.974   4.712 -0.6842  0.3975  0.0919
10952TIP3    H254348   0.782   4.940   4.573  0.6211  0.8149 -0.4941
10953TIP3   OH254349   2.896   4.280   0.071  0.1994 -0.3007  0.7761
10953TIP3    H154350   2.833   4.337   0.026  0.3602 -1.2375 -0.6931
10953TIP3    H254351   2.980   4.326   0.064 -0.2354  0.9366  2.7118
10954TIP3   OH254352   4.856   1.204   5.321  0.5456 -0.3805 -0.1876
10954TIP3    H154353   4.774   1.252   5.332 -0.2254 -1.3382 -1.4201
10954TIP3    H254354   4.872   1.163   5.407  0.8237  1.3945  0.6502
10955TIP3   OH254355   1.101   1.228   0.757 -0.4106  0.3188 -0.2669
10955TIP3    H154356   1.106   1.161   0.824  1.6239 -0.0752 -0.7494
10955TIP3    H254357   1.040   1.293   0.792 -0.2123 -0.3921  1.4762
10956TIP3   OH254358   4.887   0.816   5.332 -0.1692  0.7568 -0.0220
10956TIP3    H154359   4.975   0.853   5.327  0.7103 -1.0313  1.1491
10956TIP3    H254360   4.838   0.863   5.265  1.8527  1.3337 -1.1926
10957TIP3   OH254361   2.400   1.600   4.055 -0.0372  0.5870 -0.1128
10957TIP3    H154362   2.397   1.682   4.005  0.3147  1.8397  1.7720
10957TIP3    H254363   2.337   1.613   4.126  0.3678 -0.5826  0.4932
10958TIP3   OH254364   4.682   1.336   1.633  0.1181  0.3600  0.5002
10958TIP3    H154365   4.621   1.380   1.692  0.4163  2.4202 -0.6560
10958TIP3    H254366   4.728   1.406   1.589  1.9078 -1.1481 -0.1531
10959TIP3   OH254367   5.038   3.683  16.952 -0.3548 -0.0875 -0.1969
10959TIP3    H154368   4.986   3.661  16.874 -1.0086 -0.0542  0.2226
10959TIP3    H254369   4.973   3.696  17.021  0.2948 -1.7698  0.7770
10960TIP3   OH254370   6.804   4.278  13.132 -0.2063  0.2784 -0.3622
10960TIP3    H154371   6.770   4.302  13.046  0.5138 -1.2846 -1.1256
10960TIP3    H254372   6.871   4.345  13.150 -0.8990  1.0714 -0.6375
10961TIP3   OH254373   0.767   2.414  11.070 -0.2881  0.1166  0.7985
10961TIP3    H154374   0.762   2.339  11.010  0.5329 -1.6713  2.8593
10961TIP3    H254375   0.856   2.448  11.057 -0.4260  0.3300  0.3669
10962TIP3   OH254376   3.877   4.139  11.936 -0.6849  0.4402 -0.5841
10962TIP3    H154377   3.869   4.171  12.026  1.2988 -2.2107  0.6715
10962TIP3    H254378   3.803   4.080  11.924  0.6073 -1.5198  0.4971
10963TIP3   OH254379   2.652   3.923   4.435 -0.1667  0.1566 -1.0585
10963TIP3    H154380   2.598   3.878   4.500  3.1661 -1.6766  0.7494
10963TIP3    H254381   2.681   4.003   4.480 -0.0679  0.3004 -1.3755
10964TIP3   OH254382   5.970   1.961  12.292 -0.2833 -0.1096  0.2987
10964TIP3    H154383   5.974   2.054  12.268 -1.8558  0.1208  0.8427
10964TIP3    H254384   5.918   1.920  12.223 -0.4421 -0.3993  0.5844
10965TIP3   OH254385   2.261   2.186   0.823  0.3292 -0.0182  0.0444
10965TIP3    H154386   2.268   2.100   0.864  0.9378  0.9294  2.0525
10965TIP3    H254387   2.167   2.199   0.811  0.2869 -1.6465 -1.9535
10966TIP3   OH254388   5.569   2.808  12.831  0.2366  0.5679 -0.2686
10966TIP3    H154389   5.586   2.830  12.740  0.9492  1.3144  0.0212
10966TIP3    H254390   5.615   2.725  12.845 -1.2534 -0.4244 -0.9982
10967TIP3   OH254391   1.555   3.530  12.452 -0.0340  0.0366 -0.4600
10967TIP3    H154392   1.566   3.606  12.508  0.1371 -0.4212  0.1331
10967TIP3    H254393   1.460   3.515  12.448 -0.0621  0.2372 -0.5228
10968TIP3   OH254394   2.077   3.522  16.284 -0.3977  0.4594  0.5828
10968TIP3    H154395   1.985   3.530  16.258 -0.7164  1.2546  1.8512
10968TIP3    H254396   2.094   3.428  16.282 -0.0887  0.4148 -3.2728
10969TIP3   OH254397   6.297   4.362   6.065 -0.1708  0.9535  0.0991
10969TIP3    H154398   6.381   4.407   6.065 -0.0094  0.6677 -0.4984
10969TIP3    H254399   6.318   4.270   6.081 -0.3759  0.9000  0.0663
10970TIP3   OH254400   0.611   3.180  10.255 -0.4145 -0.1701 -0.2906
10970TIP3    H154401   0.644   3.103  10.301 -0.2413 -1.2510 -2.1264
10970TIP3    H254402   0.534   3.148  10.208  0.0317  0.6087 -1.5831
10971TIP3   OH254403   0.842   4.496   1.824  0.5339 -0.4163  0.5185
10971TIP3    H154404   0.893   4.426   1.783 -0.1922 -0.6071 -0.0635
10971TIP3    H254405   0.892   4.576   1.805  0.1495 -0.4770 -0.8739
10972TIP3   OH254406   3.630   5.741   0.141  0.4518  0.0243  0.3381
10972TIP3    H154407   3.691   5.810   0.170  0.7351 -0.2824  0.4723
10972TIP3    H254408   3.558   5.789   0.100  1.6401  0.3576 -1.5225
10973TIP3   OH254409   6.610   1.699  11.373  0.1315  0.4810 -0.3306
10973TIP3    H154410   6.659   1.739  11.444 -0.1306  0.4839 -0.1498
10973TIP3    H254411   6.669   1.703  11.297  1.2713 -1.5061  0.3781
10974TIP3   OH254412   3.731   2.573  14.165  0.2021  0.1769  0.2998
10974TIP3    H154413   3.797   2.517  14.206 -0.8575 -0.9553  0.5182
10974TIP3    H254414   3.719   2.645  14.227 -0.5915 -0.9489  1.4893
10975TIP3   OH254415   0.904   5.657   2.365  0.6474  0.4452 -0.0287
10975TIP3    H154416   0.973   5.614   2.314  0.7834 -0.9243  1.2516
10975TIP3    H254417   0.927   5.639   2.456 -1.0668  0.5110  0.4410
10976TIP3   OH254418   4.615   3.132   4.239  1.0891  0.0161  0.0018
10976TIP3    H154419   4.625   3.117   4.333  0.6579 -1.2606 -0.1428
10976TIP3    H254420   4.588   3.224   4.232  0.9497  0.0694  1.1377
10977TIP3   OH254421   3.961   5.860   1.212  0.6176  0.7245 -0.5123
10977TIP3    H154422   4.024   5.790   1.228  1.2835  1.3884 -0.1792
10977TIP3    H254423   4.005   5.940   1.240 -0.1326  1.2862 -0.8712
10978TIP3   OH254424   6.289   5.864  12.891  0.0883  0.2878 -0.0536
10978TIP3    H154425   6.225   5.869  12.962  2.2273  0.4675  1.9652
10978TIP3    H254426   6.241   5.895  12.814 -2.9203 -1.7823  0.7936
10979TIP3   OH254427   2.128   5.192   1.705  0.8431  0.0693 -0.0614
10979TIP3    H154428   2.215   5.154   1.716  1.1234  1.0011  1.1604
10979TIP3    H254429   2.070   5.137   1.757  0.4228 -1.3289 -1.8950
10980TIP3   OH254430   1.246   4.651   3.126  0.0638 -0.3886  0.0078
10980TIP3    H154431   1.189   4.727   3.130  2.1720  1.2404  1.2083
10980TIP3    H254432   1.297   4.653   3.207 -1.1866 -4.3252  1.1408
10981TIP3   OH254433   6.367   4.054   3.532 -0.2579 -0.0979  0.0148
10981TIP3    H154434   6.293   4.002   3.565 -1.5768  1.5293 -0.2283
10981TIP3    H254435   6.331   4.142   3.520  1.4667  0.5106 -1.1195
10982TIP3   OH254436   4.376   0.098   2.482 -0.1800 -0.1101 -0.2245
10982TIP3    H154437   4.434   0.125   2.554 -0.3853 -0.9114  0.2554
10982TIP3    H254438   4.291   0.135   2.506 -0.3038 -0.5843  0.0741
10983TIP3   OH254439   4.383   6.424  16.754  0.1986 -0.4644  0.0963
10983TIP3    H154440   4.323   6.401  16.825  0.4074 -0.5344  0.2509
10983TIP3    H254441   4.460   6.368  16.768  1.4069  1.4028  1.4198
10984TIP3   OH254442   1.307   4.299  16.044 -0.0973  0.0234 -0.0716
10984TIP3    H154443   1.258   4.346  15.978 -0.3998  1.5502  1.1920
10984TIP3    H254444   1.252   4.224  16.067 -1.5135  1.2932  0.7794
10985TIP3   OH254445   5.855   6.736  11.673 -0.1713  0.0181 -0.0912
10985TIP3    H154446   5.807   6.800  11.622 -0.3368  0.4639  0.6026
10985TIP3    H254447   5.862   6.776  11.760  0.7362 -0.3972  0.0358
10986TIP3   OH254448   2.771   4.374  16.227  0.2269  0.3441  0.5740
10986TIP3    H154449   2.808   4.379  16.315  1.3987 -0.2245  0.1358
10986TIP3    H254450   2.796   4.458  16.186 -0.5781  0.7360  0.8684
10987TIP3   OH254451   3.296   2.745  16.663  0.1178 -1.3802 -0.3060
10987TIP3    H154452   3.333   2.675  16.716 -0.0520 -1.3005 -0.0831
10987TIP3    H254453   3.259   2.806  16.726 -2.8143 -2.7579 -0.5416
10988TIP3   OH254454   3.331   5.160   1.461 -0.0718  0.4136 -0.2247
10988TIP3    H154455   3.266   5.147   1.530 -0.9645 -1.6679 -1.3729
10988TIP3    H254456   3.415   5.139   1.502 -0.5982 -0.8814  0.2297
10989TIP3   OH254457   3.823   6.659   1.640 -0.4551  0.4210 -0.3081
10989TIP3    H154458   3.905   6.700   1.612  0.4212 -1.8508 -1.3850
10989TIP3    H254459   3.760   6.730   1.641  0.3390  1.5060 -4.4587
10990TIP3   OH254460   0.331   2.004  16.181 -0.2570  0.4725  0.2378
10990TIP3    H154461   0.347   1.921  16.225  0.3226  0.9971  1.0584
10990TIP3    H254462   0.255   2.041  16.226  1.3217  1.7759  2.0299
10991TIP3   OH254463   1.220   6.342   2.488 -0.2736 -0.2512  0.1524
10991TIP3    H154464   1.256   6.334   2.400  1.1515 -1.7505  0.8239
10991TIP3    H254465   1.206   6.436   2.500  1.0313  0.1287 -1.0826
10992TIP3   OH254466   0.323   0.776   5.575  0.7317  0.1488  0.0052
10992TIP3    H154467   0.402   0.826   5.555  0.6500 -0.6534 -2.7049
10992TIP3    H254468   0.257   0.842   5.598  1.0570  1.2318 -1.9561
10993TIP3   OH254469   1.963   1.154   1.159 -0.1071  0.5229  0.2530
10993TIP3    H154470   2.037   1.105   1.122  0.4423  0.2522  1.6309
10993TIP3    H254471   1.886   1.101   1.139 -0.0443  1.1307 -1.7730
10994TIP3   OH254472   3.833   2.466   4.137 -0.1753 -0.5472 -0.5496
10994TIP3    H154473   3.817   2.518   4.058 -0.7405 -0.0047 -0.0890
10994TIP3    H254474   3.910   2.505   4.177  0.5667 -1.2972 -1.2192
10995TIP3   OH254475   5.151   2.932  14.763 -0.1824  0.9440 -0.0609
10995TIP3    H154476   5.084   2.947  14.696 -0.6751  0.2807  0.2702
10995TIP3    H254477   5.232   2.923  14.714 -0.4890  0.7884 -0.5487
10996TIP3   OH254478   2.278   1.693  14.780  0.2926 -0.2380  0.2393
10996TIP3    H154479   2.273   1.601  14.756  0.3456 -0.4624  1.0573
10996TIP3    H254480   2.370   1.717  14.765  0.3547 -0.4067  0.3499
10997TIP3   OH254481   4.976   3.659   2.452 -0.2056 -0.5557  0.1717
10997TIP3    H154482   4.926   3.587   2.415 -0.0011 -0.3815 -0.4619
10997TIP3    H254483   4.950   3.736   2.401  0.0580 -0.3030  0.4104
10998TIP3   OH254484   4.646   1.393   5.392 -0.8813 -1.0227  0.3105
10998TIP3    H154485   4.617   1.472   5.346  3.0118  0.5791  0.1525
10998TIP3    H254486   4.584   1.325   5.366 -1.5262  0.8098 -3.7565
10999TIP3   OH254487   5.660   6.340  16.236 -0.1856  0.5664  0.7892
10999TIP3    H154488   5.744   6.296  16.221 -0.2559  0.1559  1.5120
10999TIP3    H254489   5.683   6.418  16.287 -0.0615  1.3886 -0.4872
11000TIP3   OH254490   2.590   0.186  12.148  0.0617 -0.1244 -0.1971
11000TIP3    H154491   2.524   0.232  12.097  0.1348 -1.1959 -1.2866
11000TIP3    H254492   2.549   0.103  12.173  1.2592 -1.2279 -1.6966
11001TIP3   OH254493   6.033   4.268   0.849  0.0916 -0.7241  0.2891
11001TIP3    H154494   5.941   4.253   0.872  0.3430 -2.3387  0.3300
11001TIP3    H254495   6.037   4.253   0.755  0.3218 -0.6972  0.2940
11002TIP3   OH254496   5.459   5.190   5.670  0.0442 -0.0877  0.5965
11002TIP3    H154497   5.462   5.278   5.633  1.2302 -0.0681  0.6893
11002TIP3    H254498   5.518   5.193   5.745  0.0064 -0.9337  0.6799
11003TIP3   OH254499   0.475   5.894  14.428 -0.0367  0.1262  0.6524
11003TIP3    H154500   0.447   5.803  14.437  0.4224 -0.3494 -1.7825
11003TIP3    H254501   0.393   5.943  14.418 -0.2807 -0.0179  1.8417
11004TIP3   OH254502   3.478   1.371  15.920  0.2868 -0.2270 -0.8084
11004TIP3    H154503   3.526   1.441  15.964  1.6907 -1.3628 -0.4480
11004TIP3    H254504   3.477   1.396  15.828  2.7413 -0.7633 -1.0394
11005TIP3   OH254505   0.338   0.804  10.979  0.2906  0.1032  0.0396
11005TIP3    H154506   0.340   0.790  10.885  2.2134 -2.2386  0.3424
11005TIP3    H254507   0.252   0.772  11.007 -0.2768  0.7835 -0.8587
11006TIP3   OH254508   0.976   0.078  10.709  0.1437 -0.0812  0.2395
11006TIP3    H154509   0.898   0.074  10.653  0.0939 -1.2136  0.3855
11006TIP3    H254510   0.943   0.066  10.798  0.4779 -0.5113  0.3067
11007TIP3   OH254511   3.680   1.799  11.300 -0.0933  0.2638 -0.2426
11007TIP3    H154512   3.761   1.783  11.253  0.1032  2.2848 -0.7075
11007TIP3    H254513   3.702   1.867  11.364 -1.2055  0.1805  0.2614
11008TIP3   OH254514   4.220   6.216   3.894 -0.1818 -0.1325  0.2029
11008TIP3    H154515   4.202   6.124   3.911 -1.5612  0.2791  1.0768
11008TIP3    H254516   4.137   6.261   3.908  0.0047  1.0458 -1.9434
11009TIP3   OH254517   6.116   6.645  16.987  0.3398  0.0443  0.1092
11009TIP3    H154518   6.197   6.654  17.037 -0.9676  1.7741  2.0703
11009TIP3    H254519   6.066   6.724  17.006 -2.3087 -1.4384 -0.1194
11010TIP3   OH254520   4.332   0.882   3.481 -0.5160 -0.4045 -0.3360
11010TIP3    H154521   4.355   0.972   3.456 -1.9041  0.4199  1.1601
11010TIP3    H254522   4.326   0.885   3.576 -0.4350 -2.1466 -0.2549
11011TIP3   OH254523   0.628   3.236  11.885  0.5643 -0.3440  0.1281
11011TIP3    H154524   0.585   3.153  11.863 -0.9996  0.1907  1.0274
11011TIP3    H254525   0.556   3.296  11.905  1.7213  0.6291  1.5821
11012TIP3   OH254526   2.277   3.632  12.869  0.5384  0.1658  0.1394
11012TIP3    H154527   2.233   3.694  12.927 -1.5122 -0.7227 -0.3620
11012TIP3    H254528   2.237   3.646  12.783  1.6491 -0.3289 -0.4797
11013TIP3   OH254529   6.052   5.069   4.205 -0.5864  0.3556 -0.2826
11013TIP3    H154530   5.996   5.137   4.242  0.3006  2.3919 -2.4483
11013TIP3    H254531   6.056   5.089   4.112  1.6405 -1.2880 -0.6227
11014TIP3   OH254532   4.443   4.391   0.286 -1.0422 -0.0292 -0.3015
11014TIP3    H154533   4.522   4.341   0.264  1.0828  2.7080  0.4067
11014TIP3    H254534   4.372   4.328   0.283  1.4137 -3.1012  0.8299
11015TIP3   OH254535   3.081   6.404  13.262  0.8137 -1.0248 -0.3346
11015TIP3    H154536   3.167   6.429  13.228  0.4004 -1.5995 -1.9105
11015TIP3    H254537   3.059   6.324  13.214 -0.8878 -0.5167 -0.4609
11016TIP3   OH254538   2.303   2.335   5.033  0.4519  0.5091  0.7909
11016TIP3    H154539   2.319   2.364   5.123  0.7274  2.3531  0.1971
11016TIP3    H254540   2.289   2.416   4.984  1.5832 -0.3626 -1.0924
11017TIP3   OH254541   3.687   3.745   4.381  0.4134 -0.4327  0.0376
11017TIP3    H154542   3.781   3.760   4.367  0.2106  1.9826  0.9278
11017TIP3    H254543   3.647   3.768   4.297  0.4989 -0.5100 -0.0266
11018TIP3   OH254544   4.002   0.386  14.890  0.3791 -0.2656 -0.3111
11018TIP3    H154545   3.996   0.450  14.818  2.8586 -0.6941 -0.9979
11018TIP3    H254546   3.939   0.417  14.955 -2.0738  0.0669 -2.6822
11019TIP3   OH254547   6.346   0.425  12.545  0.2014  0.6732 -1.0032
11019TIP3    H154548   6.352   0.482  12.468 -1.2822 -0.1732 -1.7997
11019TIP3    H254549   6.399   0.468  12.612  0.2207  2.2685 -2.0068
11020TIP3   OH254550   0.163   0.865  11.617  0.5233  0.2198  0.2686
11020TIP3    H154551   0.104   0.892  11.547  1.8724 -0.3619 -1.1412
11020TIP3    H254552   0.244   0.912  11.600  0.8666  0.0905  1.4692
11021TIP3   OH254553   0.751   1.673  15.557 -0.0097 -0.1199  0.2485
11021TIP3    H154554   0.745   1.765  15.580  0.0169  0.1472 -0.7562
11021TIP3    H254555   0.799   1.632  15.629  0.8284  0.8235  0.2388
11022TIP3   OH254556   6.830   1.844  13.399 -0.1944  0.6174 -0.6116
11022TIP3    H154557   6.877   1.834  13.482 -0.7450  3.5628  0.1596
11022TIP3    H254558   6.878   1.912  13.352 -1.8564  1.4628 -1.1707
11023TIP3   OH254559   5.904   5.752  11.222  0.4917 -0.1064 -0.1652
11023TIP3    H154560   5.881   5.763  11.314  0.1625 -0.7974 -0.1614
11023TIP3    H254561   5.822   5.768  11.175  0.4186 -0.7783 -0.2693
11024TIP3   OH254562   2.559   0.262  16.016  0.4148  0.8729 -0.3235
11024TIP3    H154563   2.625   0.259  16.085  0.5615  0.8129 -0.4640
11024TIP3    H254564   2.601   0.221  15.941 -0.2682 -0.4922 -0.0016
11025TIP3   OH254565   2.999   3.579  14.637  1.0030  0.0601 -0.5212
11025TIP3    H154566   2.964   3.577  14.548 -1.7851  0.6942  0.4512
11025TIP3    H254567   2.959   3.656  14.677 -0.0156 -1.6423  2.0473
11026TIP3   OH254568   2.925   5.950   3.255  0.1208 -0.3953 -0.2788
11026TIP3    H154569   3.009   5.915   3.284  1.2099 -0.3339 -3.0838
11026TIP3    H254570   2.863   5.926   3.325  2.1208 -1.8601  1.0889
11027TIP3   OH254571   5.635   6.274  15.383 -0.7251  0.3039 -0.3746
11027TIP3    H154572   5.639   6.359  15.340 -3.8567 -0.5739 -2.7840
11027TIP3    H254573   5.648   6.211  15.311  3.0338 -1.4217  1.5280
11028TIP3   OH254574   6.226   6.268  14.425  0.5396  0.1574  0.2221
11028TIP3    H154575   6.200   6.195  14.370 -0.8821 -0.3669  1.5175
11028TIP3    H254576   6.219   6.345  14.369 -0.0973 -0.4434 -0.5384
11029TIP3   OH254577   0.604   1.748  10.482 -0.0117 -0.1014  0.1441
11029TIP3    H154578   0.658   1.725  10.406 -0.3334  2.8146 -1.0894
11029TIP3    H254579   0.530   1.688  10.477 -1.5201  1.7497 -3.6939
11030TIP3   OH254580   6.589   5.572  15.318  0.4005  0.1319  0.4345
11030TIP3    H154581   6.514   5.627  15.292  1.2036  0.9530 -0.2115
11030TIP3    H254582   6.632   5.551  15.236  2.0470  1.3850  0.9228
11031TIP3   OH254583   3.428   4.727  13.341  0.3106 -0.0543  0.4012
11031TIP3    H154584   3.412   4.633  13.336 -1.1411  0.1799  0.0597
11031TIP3    H254585   3.519   4.735  13.370  0.5710 -1.5503  0.0641
11032TIP3   OH254586   2.986   3.680  16.926 -0.3292  0.5857 -0.3903
11032TIP3    H154587   2.945   3.605  16.882 -0.9238  0.8858 -0.3521
11032TIP3    H254588   3.031   3.641  17.001 -0.3499  0.2239 -0.5608
11033TIP3   OH254589   1.780   3.887   3.011 -0.3967 -0.5499 -0.0570
11033TIP3    H154590   1.764   3.944   3.086  0.2221  0.9345 -1.0216
11033TIP3    H254591   1.840   3.820   3.045 -1.4163 -0.8869  1.1858
11034TIP3   OH254592   5.005   2.988  14.129  0.1138  0.1247  0.0857
11034TIP3    H154593   5.091   3.013  14.163  0.3429  1.5811 -1.4140
11034TIP3    H254594   4.947   2.991  14.205  1.5373 -1.9780  1.3646
11035TIP3   OH254595   4.537   0.405   3.878  0.1631  0.4405 -0.1034
11035TIP3    H154596   4.467   0.448   3.829 -0.6692 -1.0007 -0.2474
11035TIP3    H254597   4.617   0.445   3.845 -0.5403  1.4586 -0.6252
11036TIP3   OH254598   4.754   1.842  15.230  0.0332 -0.4848 -0.0411
11036TIP3    H154599   4.717   1.756  15.247  1.4635 -1.3858 -1.1528
11036TIP3    H254600   4.724   1.897  15.302 -1.7814 -1.6246  0.1322
11037TIP3   OH254601   1.463   0.092  14.379  0.2536 -0.4319 -0.2553
11037TIP3    H154602   1.468  -0.002  14.397  0.9382 -0.9461 -2.6549
11037TIP3    H254603   1.371   0.114  14.390  0.2248 -1.1576  1.1791
11038TIP3   OH254604   6.061   5.858   2.743 -0.1955  0.0291  0.8294
11038TIP3    H154605   6.138   5.802   2.742 -2.8726 -4.1383 -0.2532
11038TIP3    H254606   6.010   5.829   2.818 -3.1617 -1.5103 -1.5269
11039TIP3   OH254607   6.471   6.090   4.660 -0.4943  0.1878 -0.1782
11039TIP3    H154608   6.377   6.101   4.648 -0.6197 -2.0380 -2.0679
11039TIP3    H254609   6.510   6.128   4.581 -0.0132 -0.6260 -0.3535
11040TIP3   OH254610   3.910   6.610   3.891  1.0050  0.1792 -0.3716
11040TIP3    H154611   3.853   6.583   3.818  0.5153  0.1114  0.0316
11040TIP3    H254612   3.867   6.688   3.926  1.1587  0.1221 -0.0608
11041TIP3   OH254613   0.664   0.014  14.423  0.5181 -0.7446  0.2107
11041TIP3    H154614   0.617  -0.047  14.479  0.1746  0.0198  0.7704
11041TIP3    H254615   0.633   0.100  14.449 -0.5784 -0.3961 -1.9997
11042TIP3   OH254616   1.829   2.898  12.139 -0.2216  0.0665  0.3336
11042TIP3    H154617   1.846   2.937  12.224 -0.5403 -1.3246  1.0722
11042TIP3    H254618   1.733   2.897  12.131 -0.1816  0.8036 -0.3516
11043TIP3   OH254619   0.619   3.747  10.716  0.0838 -0.1060 -0.3187
11043TIP3    H154620   0.639   3.837  10.741  2.1890 -0.5813 -0.1357
11043TIP3    H254621   0.648   3.739  10.625  1.8796 -1.1004  0.2798
11044TIP3   OH254622   5.427   4.050   4.842  0.5489  0.3606  0.1339
11044TIP3    H154623   5.377   4.021   4.919  0.4814  0.2215  0.0391
11044TIP3    H254624   5.361   4.090   4.785  0.6866  0.9484  0.3840
11045TIP3   OH254625   4.889   4.958   3.561  0.0531  0.2117 -0.4323
11045TIP3    H154626   4.893   4.950   3.657 -3.7506 -0.3333 -0.1272
11045TIP3    H254627   4.923   4.875   3.529 -0.7950 -0.5937  0.6418
11046TIP3   OH254628   3.472   3.041   2.722 -0.2102 -0.2329  0.1511
11046TIP3    H154629   3.386   3.004   2.741 -0.4693 -0.4064 -1.2502
11046TIP3    H254630   3.518   2.971   2.676  0.2124  0.3113 -0.2620
11047TIP3   OH254631   5.586   1.440   2.591  0.4489  0.0708 -0.5768
11047TIP3    H154632   5.658   1.488   2.630 -0.3617  0.7742  0.0836
11047TIP3    H254633   5.613   1.348   2.597  1.6964  0.3724 -1.2173
11048TIP3   OH254634   2.801   4.041   1.457 -0.1488  0.2451  0.5600
11048TIP3    H154635   2.736   4.057   1.389 -0.6897 -1.0411  0.7531
11048TIP3    H254636   2.821   3.948   1.450  3.4921  0.9928 -1.0878
11049TIP3   OH254637   1.289   4.067   4.556 -0.1352 -0.2747 -0.2403
11049TIP3    H154638   1.259   4.095   4.642 -1.0733 -0.5042 -0.4742
11049TIP3    H254639   1.372   4.022   4.572  1.1810  2.1430  0.2124
11050TIP3   OH254640   3.001   4.934   0.007  0.0515  0.5257 -0.1788
11050TIP3    H154641   2.938   4.956   0.075  0.7560  1.4978  0.1715
11050TIP3    H254642   2.966   4.853  -0.031 -1.5082  1.1335 -0.1376
11051TIP3   OH254643   6.210   0.662   3.957 -0.0372  0.8000 -0.1449
11051TIP3    H154644   6.118   0.636   3.949  0.0789  0.5261 -0.6010
11051TIP3    H254645   6.221   0.681   4.051  0.2459 -2.3533  0.5938
11052TIP3   OH254646   6.657   2.433   0.067 -0.8013 -0.3517  0.2476
11052TIP3    H154647   6.630   2.524   0.059  1.0978  0.2186 -0.0076
11052TIP3    H254648   6.641   2.396  -0.020  0.1175  0.2287 -0.1741
11053TIP3   OH254649   6.811   3.239   2.338 -0.1058  0.1188  0.0150
11053TIP3    H154650   6.720   3.218   2.358 -0.2263 -0.1635 -0.7867
11053TIP3    H254651   6.863   3.183   2.396 -0.4303 -1.6853 -1.3374
11054TIP3   OH254652   3.166   0.610  10.910 -0.1686  0.5780 -0.3726
11054TIP3    H154653   3.074   0.607  10.935 -0.0588 -0.8124 -0.0433
11054TIP3    H254654   3.169   0.574  10.822  0.2049 -0.7641  0.1628
11055TIP3   OH254655   0.899   1.459   3.741 -0.1298  0.1847  0.3076
11055TIP3    H154656   0.838   1.483   3.810  0.3150 -1.0773  1.1750
11055TIP3    H254657   0.984   1.492   3.771  0.0516 -0.2925  0.3184
11056TIP3   OH254658   5.201   5.767   1.189  0.3573 -0.2796 -0.3638
11056TIP3    H154659   5.113   5.797   1.164  0.5029  0.0482 -0.4812
11056TIP3    H254660   5.205   5.677   1.158 -1.0610 -1.3866  2.2493
11057TIP3   OH254661   2.909   3.846  14.703  0.2524  0.2484  0.2495
11057TIP3    H154662   2.896   3.940  14.692  1.7257  0.6035  1.3014
11057TIP3    H254663   2.839   3.806  14.651 -0.1487  1.9056 -0.5411
11058TIP3   OH254664   4.074   5.467   3.371 -0.2984  0.6256  0.1694
11058TIP3    H154665   4.114   5.393   3.327  1.3421  1.0829  0.8140
11058TIP3    H254666   4.138   5.538   3.362  0.4257  0.6164  3.6441
11059TIP3   OH254667   3.111   2.366  14.356 -0.2420 -0.3881  0.0769
11059TIP3    H154668   3.141   2.394  14.270  1.2243 -4.2024 -0.8906
11059TIP3    H254669   3.035   2.310  14.338  0.8652 -2.3113  0.9738
11060TIP3   OH254670   1.094   2.951  16.570 -0.6529  0.3542 -0.5864
11060TIP3    H154671   1.053   2.970  16.655  0.0781 -0.0424 -0.1320
11060TIP3    H254672   1.158   3.020  16.559  1.8827 -1.5615  0.9817
11061TIP3   OH254673   4.976   5.858  16.333  0.0747 -0.1112 -0.3200
11061TIP3    H154674   4.903   5.907  16.368  0.7654  0.9384 -0.2980
11061TIP3    H254675   4.980   5.883  16.240 -1.8688 -3.0122 -1.3332
11062TIP3   OH254676   2.508   0.614   4.405 -0.2319 -0.1783 -0.3393
11062TIP3    H154677   2.472   0.632   4.493 -1.5445  1.1363 -1.0897
11062TIP3    H254678   2.591   0.661   4.403  0.2769 -1.0091  0.5102
11063TIP3   OH254679   0.187   6.161  12.318  0.1528  0.0636  0.3746
11063TIP3    H154680   0.221   6.248  12.297  3.5886 -1.8592 -3.1975
11063TIP3    H254681   0.125   6.141  12.248  1.0630 -1.1478 -0.1192
11064TIP3   OH254682   4.162   2.271  11.144  0.5038 -0.1454 -0.1602
11064TIP3    H154683   4.157   2.245  11.052  1.1935 -1.0926  0.0514
11064TIP3    H254684   4.182   2.190  11.191 -0.0131  0.2935  0.8500
11065TIP3   OH254685   6.257   0.320  15.210 -0.8277  0.0667 -0.3790
11065TIP3    H154686   6.211   0.386  15.159 -0.3977  1.2000  0.6410
11065TIP3    H254687   6.224   0.332  15.299 -2.2289 -2.4526 -0.4667
11066TIP3   OH254688   3.272   5.343   1.010 -0.1063  0.3155 -0.1144
11066TIP3    H154689   3.228   5.341   0.926  0.5032  1.2899 -0.4732
11066TIP3    H254690   3.253   5.258   1.049  1.1895 -0.9467 -2.0656
11067TIP3   OH254691   1.280   4.206  10.239 -0.8368  0.1705  0.2000
11067TIP3    H154692   1.275   4.225  10.145  0.3952 -0.1074  0.0632
11067TIP3    H254693   1.263   4.290  10.281 -2.3479  0.1150 -0.2262
11068TIP3   OH254694   0.650   2.817  10.764  0.8806 -0.0399  0.4812
11068TIP3    H154695   0.584   2.840  10.698  0.5426  1.0558  1.1726
11068TIP3    H254696   0.665   2.898  10.812  1.6268 -0.6549  1.3161
11069TIP3   OH254697   1.831   2.473   3.333 -0.0651 -0.0395 -0.8811
11069TIP3    H154698   1.912   2.484   3.284  0.8726  1.0439  0.8343
11069TIP3    H254699   1.783   2.406   3.284  1.5596 -0.2437 -2.2928
11070TIP3   OH254700   4.941   3.893   3.638  0.1007  0.4072  0.2033
11070TIP3    H154701   4.930   3.959   3.707  2.3665 -0.6413  1.6756
11070TIP3    H254702   4.886   3.819   3.666 -1.0716  0.9421 -0.5631
11071TIP3   OH254703   4.663   3.550  11.269 -0.7435  0.2271  0.2787
11071TIP3    H154704   4.648   3.644  11.272 -0.1974  0.2961  1.9426
11071TIP3    H254705   4.577   3.513  11.249 -0.6670  1.1092 -1.9607
11072TIP3   OH254706   3.212   3.399  11.287  0.4816 -0.3537 -0.2427
11072TIP3    H154707   3.301   3.418  11.257  0.6841 -0.9064 -0.0130
11072TIP3    H254708   3.181   3.330  11.227  0.0980  0.0441 -0.5050
11073TIP3   OH254709   5.474   5.015   6.132 -0.0647  0.1216 -0.0556
11073TIP3    H154710   5.568   5.004   6.118 -0.0802 -1.7522  0.9977
11073TIP3    H254711   5.434   4.987   6.050  0.2786  0.5021 -0.3559
11074TIP3   OH254712   1.646   4.570   2.403  0.4998 -0.7607  0.2861
11074TIP3    H154713   1.646   4.540   2.312  3.4050  0.9659 -0.3941
11074TIP3    H254714   1.564   4.619   2.412  0.2336 -0.8324 -1.4366
11075TIP3   OH254715   0.244   3.918   0.883  0.7762 -0.3422  0.0317
11075TIP3    H154716   0.330   3.899   0.847  0.8920 -0.5515  0.4092
11075TIP3    H254717   0.194   3.954   0.809  1.0244 -0.7070 -0.3204
11076TIP3   OH254718   5.899   2.655  16.280 -0.0145  0.2046 -0.9945
11076TIP3    H154719   5.871   2.581  16.333  1.3118  1.2232  1.2847
11076TIP3    H254720   5.819   2.704  16.262 -0.6570 -0.8366 -1.0834
11077TIP3   OH254721   2.482   4.512   4.176 -0.4228  0.1582  0.5704
11077TIP3    H154722   2.444   4.477   4.095  1.8820  1.8284 -1.3600
11077TIP3    H254723   2.474   4.440   4.239 -0.5477 -1.9544 -1.6958
11078TIP3   OH254724   6.456   3.484   3.832 -0.3299  0.4772  0.0380
11078TIP3    H154725   6.438   3.527   3.915 -0.3643 -0.4492  0.5259
11078TIP3    H254726   6.374   3.442   3.808  0.3119 -1.3117  0.7984
11079TIP3   OH254727   2.433   3.302  13.433 -0.0962 -0.5717 -0.3647
11079TIP3    H154728   2.435   3.214  13.469 -2.2531 -0.3260  0.4958
11079TIP3    H254729   2.521   3.337  13.450 -0.1444 -1.4707  2.1133
11080TIP3   OH254730   0.146   1.023   3.558 -0.2997  0.0398  0.0312
11080TIP3    H154731   0.126   1.014   3.651 -0.4878 -0.2626 -0.0373
11080TIP3    H254732   0.068   1.064   3.520  0.9536  3.1574  0.5256
11081TIP3   OH254733   4.770   0.766  12.949  0.1397  0.3370  0.0622
11081TIP3    H154734   4.747   0.737  12.860  0.7110  0.4125 -0.1160
11081TIP3    H254735   4.751   0.860  12.949  1.2851  0.5936 -0.3843
11082TIP3   OH254736   1.818   1.613   2.433  0.1135 -0.0432  0.5535
11082TIP3    H154737   1.850   1.690   2.386  0.1561  0.3881  1.2624
11082TIP3    H254738   1.733   1.639   2.467 -0.7278 -0.9698 -0.7724
11083TIP3   OH254739   2.123   0.840  17.000  0.4841  0.4886  0.2845
11083TIP3    H154740   2.064   0.850  17.074 -0.6930 -1.5074 -0.3006
11083TIP3    H254741   2.211   0.851  17.038 -0.1673  2.5811  1.3312
11084TIP3   OH254742   2.483   5.777  16.406  0.0400 -0.0379 -0.6174
11084TIP3    H154743   2.407   5.786  16.465  0.0401 -1.5984 -0.3346
11084TIP3    H254744   2.445   5.748  16.323  0.1026  1.6049 -1.2537
11085TIP3   OH254745   2.223   6.540  12.899 -0.3151  0.8789 -0.2159
11085TIP3    H154746   2.286   6.594  12.852  0.3250 -0.2731 -0.7286
11085TIP3    H254747   2.142   6.548  12.849  0.4889 -0.7302 -1.8821
11086TIP3   OH254748   3.467   1.944   0.586 -0.4743 -0.0268 -0.0771
11086TIP3    H154749   3.383   1.953   0.631 -0.1832  1.3856  0.2451
11086TIP3    H254750   3.531   1.974   0.651  0.2630 -0.9756 -0.3628
11087TIP3   OH254751   1.097   2.150  14.174 -0.1705  0.1226  0.4330
11087TIP3    H154752   1.126   2.236  14.144  1.8948 -0.6202  0.1320
11087TIP3    H254753   1.177   2.108  14.207 -0.4752 -2.7479 -2.0934
11088TIP3   OH254754   4.262   1.192  13.642  0.4123  0.2851 -0.4840
11088TIP3    H154755   4.276   1.103  13.610 -0.8645 -0.7690  1.6610
11088TIP3    H254756   4.168   1.197  13.658  0.3740  2.2495 -1.1015
11089TIP3   OH254757   4.353   3.868   2.112 -0.1895  0.2178  0.2072
11089TIP3    H154758   4.316   3.788   2.075  0.9888 -0.4582  0.4246
11089TIP3    H254759   4.306   3.939   2.069 -1.4232 -0.5844  0.1816
11090TIP3   OH254760   3.715   0.986  10.286 -0.2295 -0.7567  0.1113
11090TIP3    H154761   3.638   1.018  10.238 -0.5066 -0.6224  0.6397
11090TIP3    H254762   3.681   0.915  10.340 -0.0647 -0.4282  0.6525
11091TIP3   OH254763   3.240   3.140  12.998 -0.4836  0.6883 -0.3616
11091TIP3    H154764   3.220   3.141  13.091  0.7470  0.4536 -0.0679
11091TIP3    H254765   3.172   3.086  12.959  0.0233 -0.8052  0.6918
11092TIP3   OH254766   5.720   5.193  10.659  0.5187  0.1753 -0.2246
11092TIP3    H154767   5.701   5.261  10.594  1.6017  0.7749  0.0504
11092TIP3    H254768   5.800   5.224  10.703 -0.5542  0.1509  1.8720
11093TIP3   OH254769   2.112   6.813  12.039  0.4364  0.5578  0.1041
11093TIP3    H154770   2.136   6.720  12.042 -2.7071 -0.3232  1.0386
11093TIP3    H254771   2.070   6.824  11.953  2.6764  1.7651 -0.9589
11094TIP3   OH254772   6.842   5.863  16.616  0.2796  0.3865 -0.4287
11094TIP3    H154773   6.839   5.936  16.678  0.9563  0.8313 -0.9078
11094TIP3    H254774   6.751   5.852  16.588  0.0778  0.6469  0.1070
11095TIP3   OH254775   0.722   6.123   4.721  0.7983 -0.5394 -0.1849
11095TIP3    H154776   0.792   6.067   4.754  0.7530 -0.6676 -0.3085
11095TIP3    H254777   0.766   6.202   4.689  0.7275  0.3342  1.7190
11096TIP3   OH254778   5.892   4.826  14.482  0.5020 -0.4966  0.0578
11096TIP3    H154779   5.860   4.913  14.460 -0.2874 -0.2091  2.1154
11096TIP3    H254780   5.814   4.779  14.512  1.5783 -0.4824  3.1265
11097TIP3   OH254781   0.573   6.481  16.004  0.3152 -0.8044  0.5905
11097TIP3    H154782   0.521   6.424  15.947 -0.6369  0.0002  0.6317
11097TIP3    H254783   0.521   6.489  16.084  1.2131 -1.1909  1.2388
11098TIP3   OH254784   2.785   4.212  14.214  0.1153  0.1891 -0.0577
11098TIP3    H154785   2.864   4.194  14.163  0.4688  1.4711  0.0011
11098TIP3    H254786   2.817   4.261  14.290 -0.8788  2.0754 -0.7972
11099TIP3   OH254787   6.348   2.945   4.983 -0.0474  0.0267  0.1864
11099TIP3    H154788   6.353   2.907   5.070 -1.3171  0.1764  0.3498
11099TIP3    H254789   6.266   2.910   4.946  0.6513 -0.3292 -1.0900
11100TIP3   OH254790   0.896   6.515  14.159  0.2197  0.0556 -0.3711
11100TIP3    H154791   0.832   6.460  14.203 -0.4874 -1.1515 -2.7189
11100TIP3    H254792   0.981   6.481  14.187 -0.1999 -0.8822 -0.2076
11101TIP3   OH254793   2.113   0.450   1.983 -0.1142  0.6314  0.9017
11101TIP3    H154794   2.157   0.365   1.986  1.4486  1.3405 -0.5515
11101TIP3    H254795   2.176   0.508   1.941 -1.5742  2.2678  0.8787
11102TIP3   OH254796   0.064   4.569   2.890 -0.4751  0.0054 -0.3410
11102TIP3    H154797   0.040   4.510   2.819 -2.7507  1.5094 -0.9362
11102TIP3    H254798  -0.014   4.624   2.903  1.3808  2.7012  0.3278
11103TIP3   OH254799   2.654   3.353   1.086  0.0332  0.0145  0.0391
11103TIP3    H154800   2.716   3.364   1.014  0.3207 -1.5953  0.0025
11103TIP3    H254801   2.699   3.293   1.146 -0.8953  0.0030  0.7397
11104TIP3   OH254802   0.043   1.263  14.626 -0.3360 -0.0755  0.3112
11104TIP3    H154803   0.032   1.296  14.537 -0.7835 -0.3926  0.2495
11104TIP3    H254804  -0.021   1.193  14.634  0.7016 -1.0399  0.3991
11105TIP3   OH254805   6.670   5.970   1.165  0.4719  0.2390  0.2406
11105TIP3    H154806   6.637   5.970   1.074  0.9013 -1.1199  0.0507
11105TIP3    H254807   6.637   6.051   1.202 -0.4426  0.4265 -0.8870
11106TIP3   OH254808   5.703   1.042   2.080 -0.0503  0.0364  0.1789
11106TIP3    H154809   5.718   1.007   1.993 -1.1931 -3.3853  1.2236
11106TIP3    H254810   5.785   1.025   2.127  0.2884  1.1909  0.0591
11107TIP3   OH254811   5.987   0.094   0.328  0.0407 -0.1940 -0.0686
11107TIP3    H154812   5.905   0.049   0.345  0.1473 -0.8488 -1.1569
11107TIP3    H254813   5.979   0.178   0.372 -0.4183 -1.0216  1.4821
11108TIP3   OH254814   5.027   0.099  10.579 -0.0475 -0.5558  0.5899
11108TIP3    H154815   5.104   0.152  10.600 -0.0187 -0.5280  0.4170
11108TIP3    H254816   5.018   0.039  10.653  0.9943 -1.5416 -0.0620
11109TIP3   OH254817   4.245   5.905   0.203 -0.0613 -0.0283  0.0674
11109TIP3    H154818   4.238   5.954   0.285 -2.1168 -0.0263 -0.0641
11109TIP3    H254819   4.339   5.887   0.194  0.3622  1.0951  1.7402
11110TIP3   OH254820   2.473   4.645  11.229 -0.6151 -0.1003  0.1382
11110TIP3    H154821   2.498   4.615  11.316 -0.7806 -0.4658  0.0630
11110TIP3    H254822   2.551   4.631  11.175 -0.8030 -0.7517  0.0213
11111TIP3   OH254823   0.214   1.854  13.932  0.5750  0.0735 -0.1190
11111TIP3    H154824   0.290   1.798  13.943 -0.0345 -0.6195  0.6655
11111TIP3    H254825   0.139   1.799  13.957 -0.2850  0.4261 -1.7632
11112TIP3   OH254826   4.382   4.936  16.033  0.1942 -0.2851  0.6142
11112TIP3    H154827   4.415   4.856  15.992 -0.4644  0.5052 -1.5975
11112TIP3    H254828   4.445   5.003  16.008  0.0601  0.1257  1.3690
11113TIP3   OH254829   4.592   1.136   0.067  0.1218 -0.8318  0.1221
11113TIP3    H154830   4.600   1.208   0.005 -1.5125 -1.9210 -1.4766
11113TIP3    H254831   4.532   1.169   0.134 -0.0187 -0.4453 -0.1915
11114TIP3   OH254832   0.743   3.099   5.992  0.2342  0.0408 -0.2383
11114TIP3    H154833   0.824   3.149   6.000  0.3029 -0.2384  1.0347
11114TIP3    H254834   0.702   3.106   6.078 -0.8031 -0.3300 -0.6825
11115TIP3   OH254835   5.780   0.492   2.862  0.4824 -0.2676 -0.2795
11115TIP3    H154836   5.689   0.481   2.835 -0.8120  1.5800  2.7421
11115TIP3    H254837   5.799   0.415   2.916 -0.1501  0.3710  0.9157
11116TIP3   OH254838   2.816   6.528  11.649  0.4344 -0.5241 -0.2255
11116TIP3    H154839   2.909   6.539  11.628  0.7251 -0.2223  1.1124
11116TIP3    H254840   2.773   6.518  11.564  1.4870  0.9257 -0.9822
11117TIP3   OH254841   5.220   3.343   5.273 -0.1143  0.2211 -1.1104
11117TIP3    H154842   5.183   3.306   5.354  0.4472  0.9290 -0.5136
11117TIP3    H254843   5.144   3.356   5.217 -0.6011  0.3083 -0.4498
11118TIP3   OH254844   3.806   3.104  11.871 -0.2662 -0.3751  0.6365
11118TIP3    H154845   3.775   3.035  11.930 -0.0033 -1.3222 -0.3203
11118TIP3    H254846   3.734   3.118  11.810 -0.2473  0.0927  0.7126
11119TIP3   OH254847   1.605   2.472   2.728 -0.3307  0.0047 -0.6600
11119TIP3    H154848   1.653   2.545   2.688  0.0070  0.4789  0.5387
11119TIP3    H254849   1.666   2.438   2.794 -0.8570 -0.7334 -0.5481
11120TIP3   OH254850   6.209   6.452   0.770  0.2975 -0.0642 -0.5123
11120TIP3    H154851   6.172   6.493   0.692  0.7540 -0.3818 -0.9021
11120TIP3    H254852   6.144   6.387   0.796  0.8827 -1.1444 -1.6310
11121TIP3   OH254853   3.839   2.981  15.701 -0.4302 -0.2048 -0.2958
11121TIP3    H154854   3.867   2.909  15.645  1.8345  0.1587  0.2649
11121TIP3    H254855   3.824   2.941  15.787 -0.4956 -0.2157 -0.3125
11122TIP3   OH254856   5.461   5.437  14.407 -0.5470  0.4951 -0.7599
11122TIP3    H154857   5.400   5.467  14.340 -0.0611  0.1415 -1.3684
11122TIP3    H254858   5.407   5.428  14.486 -2.1894 -3.2553 -2.0434
11123TIP3   OH254859   6.419   5.995  14.195 -0.1630 -0.2346 -0.1841
11123TIP3    H154860   6.358   6.061  14.161  1.3494  1.0971 -0.4126
11123TIP3    H254861   6.416   5.925  14.130  1.0448  1.3252 -2.0539
11124TIP3   OH254862   6.682   3.773  14.435  0.2748 -0.2188  0.1303
11124TIP3    H154863   6.721   3.845  14.485  0.7670  0.8000 -1.6155
11124TIP3    H254864   6.592   3.800  14.419 -0.0861 -0.8578  1.0049
11125TIP3   OH254865   5.945   3.151  15.886  0.3573  0.0205 -0.0926
11125TIP3    H154866   5.886   3.118  15.954 -0.2209  0.3816 -0.4141
11125TIP3    H254867   5.890   3.206  15.831  1.2997  1.5580  0.4469
11126TIP3   OH254868   2.102   3.108  13.930 -0.1601  0.1462  0.1564
11126TIP3    H154869   2.137   3.190  13.965  1.1232 -0.4124  0.2474
11126TIP3    H254870   2.010   3.127  13.913  0.5982  2.4167 -2.1543
11127TIP3   OH254871   3.264   4.583   4.627 -0.2447  0.3197  0.2530
11127TIP3    H154872   3.221   4.500   4.607 -1.4372  1.0629 -0.3762
11127TIP3    H254873   3.310   4.606   4.547 -2.4657  1.7568 -0.7047
11128TIP3   OH254874   5.214   1.998   2.114 -0.1078 -0.0648 -0.2488
11128TIP3    H154875   5.279   2.056   2.152  0.2080 -0.3770 -0.3143
11128TIP3    H254876   5.154   1.978   2.187  1.1021 -1.5398  0.4049
11129TIP3   OH254877   6.011   3.768  12.817  0.3531  0.0367  0.0601
11129TIP3    H154878   6.085   3.822  12.848  0.7052 -0.3299 -0.1277
11129TIP3    H254879   5.937   3.798  12.869  0.9945 -0.7762  1.5151
11130TIP3   OH254880   5.712   3.289   5.748  0.1885 -0.5409  0.0003
11130TIP3    H154881   5.750   3.322   5.667 -0.6813 -0.2809 -0.3150
11130TIP3    H254882   5.787   3.270   5.804  0.7630  0.7577 -0.2823
11131TIP3   OH254883   5.265   3.492  12.339  0.5668  0.2277 -0.5585
11131TIP3    H154884   5.192   3.537  12.382  0.3842  0.2921 -0.9285
11131TIP3    H254885   5.244   3.497  12.246  1.0009  0.1653 -0.6607
11132TIP3   OH254886   3.762   2.915   4.699  0.2608  0.2154  0.0822
11132TIP3    H154887   3.769   2.967   4.780  1.8125  0.8901 -0.4451
11132TIP3    H254888   3.668   2.914   4.679 -0.2153 -0.3440  2.1208
11133TIP3   OH254889   1.962   1.364   0.343  0.2259  0.0219  0.3544
11133TIP3    H154890   1.881   1.329   0.305  0.0590  0.8536 -0.0713
11133TIP3    H254891   2.016   1.286   0.357 -0.4750 -0.5039  0.2418
11134TIP3   OH254892   2.973   4.037   1.020  0.0420 -0.1733 -0.2442
11134TIP3    H154893   3.012   4.067   1.102  2.2541 -1.1313 -0.8872
11134TIP3    H254894   2.883   4.015   1.043  0.9915 -1.8108  2.2717
11135TIP3   OH254895   2.635   0.596  11.220  0.7833 -0.2975 -0.0283
11135TIP3    H154896   2.584   0.677  11.208 -0.8023 -1.3443 -0.6583
11135TIP3    H254897   2.703   0.620  11.283 -0.1827  1.2985  0.4772
11136TIP3   OH254898   1.752   6.243   0.083  0.0787  1.1924 -0.2115
11136TIP3    H154899   1.661   6.233   0.055  0.1949  3.2778 -1.5539
11136TIP3    H254900   1.783   6.321   0.037  2.9799 -0.1768 -0.7968
11137TIP3   OH254901   5.534   4.289  12.966  0.6031 -0.5115  0.0755
11137TIP3    H154902   5.468   4.259  12.904  0.5123  0.6049 -0.3823
11137TIP3    H254903   5.590   4.348  12.916  1.8818 -1.3261  0.4919
11138TIP3   OH254904   2.555   1.199  14.684 -0.0527 -0.1782  0.3216
11138TIP3    H154905   2.623   1.203  14.752  0.1532 -1.0418  0.1681
11138TIP3    H254906   2.592   1.249  14.611 -0.7104  1.6879  1.1909
11139TIP3   OH254907   4.858   5.332   1.429 -0.0196 -0.1407 -0.4715
11139TIP3    H154908   4.912   5.409   1.413 -0.0505 -0.3401 -1.6695
11139TIP3    H254909   4.794   5.361   1.494 -0.2211  0.9583 -1.1209
11140TIP3   OH254910   0.569   3.511  13.353  0.0620 -0.4522  0.3329
11140TIP3    H154911   0.627   3.436  13.368 -0.6099 -1.6421 -2.4809
11140TIP3    H254912   0.626   3.579  13.317  0.1267 -0.8048 -0.2426
11141TIP3   OH254913   1.159   2.421  16.456  0.1309  0.2052 -0.4844
11141TIP3    H154914   1.076   2.466  16.444  0.3061  1.1413  1.3950
11141TIP3    H254915   1.193   2.455  16.539  0.8395 -2.4892  0.4616
11142TIP3   OH254916   0.826   0.645   3.815  0.3907 -0.1545  0.3436
11142TIP3    H154917   0.883   0.678   3.745 -0.4918  2.5404  0.8027
11142TIP3    H254918   0.873   0.667   3.895 -0.3066  0.1360  0.6753
11143TIP3   OH254919   6.500   5.501  12.399  0.2918 -0.2332  0.0914
11143TIP3    H154920   6.483   5.411  12.426  0.7348 -0.6913 -1.0757
11143TIP3    H254921   6.570   5.493  12.334 -0.6325  0.8073 -1.0696
11144TIP3   OH254922   5.160   4.269  13.636  0.0446 -0.2260  0.7553
11144TIP3    H154923   5.223   4.309  13.577  0.4553 -1.4075  0.3672
11144TIP3    H254924   5.136   4.186  13.594 -0.1625 -0.7808  1.9097
11145TIP3   OH254925   5.358   5.013   1.960 -0.3319  0.1552  0.2589
11145TIP3    H154926   5.452   5.012   1.946 -0.4692  0.1871 -0.7060
11145TIP3    H254927   5.335   4.921   1.973 -0.1356  0.1719  0.7423
11146TIP3   OH254928   2.327   0.177   0.473 -0.8506  0.0269  0.1920
11146TIP3    H154929   2.317   0.253   0.416  0.6136  0.0334 -0.1130
11146TIP3    H254930   2.405   0.196   0.525 -1.0298 -0.8408  0.8134
11147TIP3   OH254931   5.010   0.087   2.061 -0.0353  0.1007  0.3686
11147TIP3    H154932   5.002   0.167   2.010  1.7667  1.6657  2.3407
11147TIP3    H254933   5.093   0.049   2.034 -1.0696 -1.4070 -0.8524
11148TIP3   OH254934   6.066   5.148   1.865  0.1898  0.3465 -0.5204
11148TIP3    H154935   6.111   5.193   1.936  1.1462  1.0844 -1.5722
11148TIP3    H254936   6.047   5.217   1.801 -1.5089 -0.1315 -0.5858
11149TIP3   OH254937   4.967   6.239   4.739  0.3610  0.3431 -0.1999
11149TIP3    H154938   4.915   6.162   4.716  1.3605 -0.4502  0.1122
11149TIP3    H254939   5.057   6.206   4.746  0.6007  1.2301  1.3943
11150TIP3   OH254940   1.754   1.745  13.109 -0.3253 -0.4992 -0.2440
11150TIP3    H154941   1.779   1.834  13.134  1.8066 -0.7370 -1.2856
11150TIP3    H254942   1.837   1.700  13.094 -1.3431 -1.6020 -3.3702
11151TIP3   OH254943   1.738   0.543  15.065  0.2400  0.3937 -0.1150
11151TIP3    H154944   1.671   0.475  15.060  0.1354  0.4211  0.7565
11151TIP3    H254945   1.795   0.526  14.991 -0.3450 -0.0467 -0.4726
11152TIP3   OH254946   5.131   5.930   3.450 -0.2250  0.3501  0.1297
11152TIP3    H154947   5.142   5.952   3.542 -0.0662  0.9097 -0.0203
11152TIP3    H254948   5.059   5.868   3.449 -0.4160  0.5596  0.6049
11153TIP3   OH254949   4.340   1.809   1.035  0.4853  0.1435  0.1482
11153TIP3    H154950   4.413   1.805   1.097  0.7818 -0.4034 -0.2198
11153TIP3    H254951   4.275   1.864   1.078  1.0537  0.5176  0.5478
11154TIP3   OH254952   1.203   6.542   4.236  0.9138 -0.5289  1.1679
11154TIP3    H154953   1.256   6.468   4.206 -0.5988 -0.7736 -1.1254
11154TIP3    H254954   1.255   6.581   4.306  2.7719 -2.4345  0.9635
11155TIP3   OH254955   2.942   2.884   1.402  0.1848 -0.2940  0.5839
11155TIP3    H154956   2.857   2.899   1.359  0.6645  1.1697  0.0948
11155TIP3    H254957   2.938   2.792   1.429 -2.0574  0.0471  1.6927
11156TIP3   OH254958   3.637   5.046  16.261 -0.4172  0.0576  0.6950
11156TIP3    H154959   3.711   5.014  16.311  0.0267 -0.6216 -0.3521
11156TIP3    H254960   3.632   4.987  16.185 -1.1535  0.9495  0.0228
11157TIP3   OH254961   4.300   4.984  13.751  1.0155  0.0783 -0.2152
11157TIP3    H154962   4.369   4.945  13.804  0.3639 -1.3949 -0.3841
11157TIP3    H254963   4.316   4.951  13.662 -0.3218 -0.9594 -0.1166
11158TIP3   OH254964   1.419   3.300  11.017 -0.5619  0.1073 -0.3046
11158TIP3    H154965   1.437   3.387  10.982  0.2390 -0.3757 -1.1360
11158TIP3    H254966   1.505   3.261  11.030 -0.9096 -0.4749  0.2885
11159TIP3   OH254967   0.089   4.974  11.371 -0.2478  0.8148 -0.3446
11159TIP3    H154968   0.108   5.017  11.455  0.2427  1.9648 -1.0213
11159TIP3    H254969   0.020   5.027  11.332  0.6077  1.2050 -1.3519
11160TIP3   OH254970   1.501   5.406  12.804  1.0652 -0.3956  0.2026
11160TIP3    H154971   1.511   5.447  12.718  1.7052  1.1569  0.9781
11160TIP3    H254972   1.567   5.449  12.859  0.5627 -1.2408  1.5210
11161TIP3   OH254973   3.170   3.179  16.282  0.0415 -0.0203  0.1561
11161TIP3    H154974   3.196   3.127  16.358  1.5992  0.3130 -0.1133
11161TIP3    H254975   3.162   3.115  16.211 -0.5892 -0.2202  0.4010
11162TIP3   OH254976   4.421   0.920   0.413  0.0105  0.2393 -0.6705
11162TIP3    H154977   4.506   0.930   0.456 -0.3290 -0.0884  0.0869
11162TIP3    H254978   4.396   0.829   0.430  0.2832 -0.1945 -2.3522
11163TIP3   OH254979   1.949   6.775   4.441 -0.5845  0.4142  0.0710
11163TIP3    H154980   2.034   6.741   4.471 -1.4726 -0.8550  1.2602
11163TIP3    H254981   1.898   6.697   4.420 -2.3103  0.9861  1.8255
11164TIP3   OH254982   1.538   2.608   5.784 -0.4533  0.2967  0.0717
11164TIP3    H154983   1.560   2.577   5.872  0.7386  2.5770  0.6535
11164TIP3    H254984   1.529   2.529   5.732  2.2540 -1.0491  1.4614
11165TIP3   OH254985   4.338   2.200  11.856  0.4440 -0.3085  0.3741
11165TIP3    H154986   4.394   2.278  11.860  0.8868 -0.6427  0.8113
11165TIP3    H254987   4.251   2.234  11.834  1.0527  0.0902 -1.6233
11166TIP3   OH254988   1.954   3.857   2.771 -0.2219 -0.3388  0.1749
11166TIP3    H154989   2.028   3.881   2.827  0.0503 -0.4494 -0.1298
11166TIP3    H254990   1.878   3.857   2.829  0.2334 -1.5888  0.8048
11167TIP3   OH254991   2.151   3.316  11.880  0.1554 -0.3507 -0.1200
11167TIP3    H154992   2.168   3.225  11.904  0.3846 -0.0914  0.7350
11167TIP3    H254993   2.208   3.332  11.805  0.3043 -0.8369 -0.1128
11168TIP3   OH254994   0.591   1.902  14.775 -0.4614  0.4170  0.4619
11168TIP3    H154995   0.585   1.956  14.854 -2.1426 -0.2967  0.8602
11168TIP3    H254996   0.500   1.892  14.746 -0.1810 -1.9328  0.2344
11169TIP3   OH254997   0.821   3.711   5.616 -0.6355 -0.4894  0.4481
11169TIP3    H154998   0.811   3.801   5.647 -0.4953 -0.6595  0.9972
11169TIP3    H254999   0.877   3.669   5.681 -1.1407 -1.1197  0.4920
11170TIP3   OH255000   4.685   2.927  15.608 -0.2528  0.0021 -0.2763
11170TIP3    H155001   4.765   2.890  15.570 -0.3025 -0.4802  0.0814
11170TIP3    H255002   4.688   3.020  15.584 -0.4353 -0.3401 -1.7402
11171TIP3   OH255003   1.414   4.520  14.726  0.5118 -0.1334  0.0616
11171TIP3    H155004   1.484   4.455  14.720  2.6790  2.1162 -0.9311
11171TIP3    H255005   1.451   4.589  14.780 -1.4441  0.6214  0.5004
11172TIP3   OH255006   3.315   3.520   2.780  0.6576 -0.0047  0.5242
11172TIP3    H155007   3.284   3.440   2.738  1.1706 -0.4282  0.9403
11172TIP3    H255008   3.241   3.548   2.835  0.6207 -0.4255  0.6973
11173TIP3   OH255009   3.229   0.658  16.239 -0.0098  0.0032  0.2772
11173TIP3    H155010   3.139   0.673  16.268  0.6973  2.6047  1.4213
11173TIP3    H255011   3.234   0.700  16.153 -0.6138 -2.8479 -1.2725
11174TIP3   OH255012   5.988   4.603   0.414 -0.4038  0.4028 -0.3290
11174TIP3    H155013   6.065   4.625   0.467 -1.3911  2.6639  0.2750
11174TIP3    H255014   6.023   4.585   0.327  0.9072  0.1173  0.2248
11175TIP3   OH255015   5.741   3.055   3.446 -0.5765  0.0564 -0.1828
11175TIP3    H155016   5.814   3.012   3.401 -0.0693  0.2196  0.4606
11175TIP3    H255017   5.783   3.119   3.503 -0.9642 -1.8368  2.4463
11176TIP3   OH255018   1.325   1.757   0.683 -0.4961  0.0776  0.0136
11176TIP3    H155019   1.359   1.826   0.740 -0.3565 -0.5946  0.7720
11176TIP3    H255020   1.233   1.748   0.708 -0.4409 -0.2017  0.1187
11177TIP3   OH255021   1.950   1.992   2.748  0.2345  0.3264 -0.4336
11177TIP3    H155022   2.010   1.952   2.685 -1.2029  1.0821 -2.3825
11177TIP3    H255023   1.925   2.075   2.708 -0.3951  1.0475  1.3763
11178TIP3   OH255024   3.702   1.378   0.196 -0.4341 -0.8080  0.3403
11178TIP3    H155025   3.762   1.304   0.206  2.2481  1.2649  0.7364
11178TIP3    H255026   3.702   1.397   0.102  0.7698  0.0812  0.4961
11179TIP3   OH255027   2.219   5.631  12.164 -0.5515  0.5142  0.1321
11179TIP3    H155028   2.186   5.721  12.157 -1.4555  0.3255  1.7284
11179TIP3    H255029   2.215   5.611  12.257  1.7223 -0.4355  0.0943
11180TIP3   OH255030   5.438   6.372   4.042 -0.3056 -0.1505 -0.1484
11180TIP3    H155031   5.456   6.278   4.047 -0.9760 -0.2639  0.2938
11180TIP3    H255032   5.475   6.407   4.124 -0.4201 -0.0889 -0.1237
11181TIP3   OH255033   1.169   1.384  11.786 -0.5557 -0.4985  0.3819
11181TIP3    H155034   1.121   1.379  11.704 -0.4043  0.1306  0.2511
11181TIP3    H255035   1.261   1.393  11.760 -0.2831 -2.1756  0.6256
11182TIP3   OH255036   4.988   4.683   4.779  0.0875 -0.0950 -0.4120
11182TIP3    H155037   5.026   4.771   4.779 -0.6115  0.2177  0.1775
11182TIP3    H255038   5.050   4.631   4.830 -0.6366  0.6050  1.2688
11183TIP3   OH255039   1.526   1.163  16.821 -0.4507 -0.1929  0.1768
11183TIP3    H155040   1.489   1.245  16.790 -0.1112 -1.0236 -2.6694
11183TIP3    H255041   1.621   1.174  16.811 -0.2971 -0.4206  1.2289
11184TIP3   OH255042   4.074   4.854  15.184 -0.3105 -0.1646 -0.0802
11184TIP3    H155043   3.996   4.871  15.130  0.1714  0.4073 -0.6170
11184TIP3    H255044   4.138   4.919  15.154 -0.6735  1.5923  2.5619
11185TIP3   OH255045   2.394   4.036  12.974 -0.6984  0.5592  0.8618
11185TIP3    H155046   2.448   3.982  13.033 -0.4922  0.0315  0.2064
11185TIP3    H255047   2.435   4.025  12.888 -1.3373  0.8558  0.5156
11186TIP3   OH255048   4.346   1.107  12.104  0.4985 -0.4391  0.0810
11186TIP3    H155049   4.342   1.095  12.009  0.1376 -0.5130  0.1049
11186TIP3    H255050   4.436   1.083  12.127  0.6924 -0.0771 -0.2889
11187TIP3   OH255051   5.271   0.870   0.915 -0.2114 -0.3781 -0.5574
11187TIP3    H155052   5.365   0.873   0.897 -0.1206  0.4093  0.0167
11187TIP3    H255053   5.250   0.776   0.913  0.9044 -0.7015  0.8536
11188TIP3   OH255054   4.929   6.346  12.582  0.0271  0.0423 -0.1079
11188TIP3    H155055   4.933   6.266  12.529  1.1494 -0.0706  0.1283
11188TIP3    H255056   4.838   6.351  12.610 -0.4200 -0.3128 -1.4056
11189TIP3   OH255057   4.206   0.727  10.468 -0.4524 -0.0304 -0.0903
11189TIP3    H155058   4.235   0.690  10.552 -1.2625 -1.7337 -0.5145
11189TIP3    H255059   4.280   0.779  10.439  1.5064 -2.6560 -0.2017
11190TIP3   OH255060   2.451   2.597  15.254  0.2879  0.1658 -0.0637
11190TIP3    H155061   2.498   2.636  15.328  0.4145 -0.3350  0.1215
11190TIP3    H255062   2.457   2.663  15.185  0.0341  0.7051  0.4184
11191TIP3   OH255063   0.955   0.521  12.269 -0.3187  0.4751  0.1774
11191TIP3    H155064   0.873   0.476  12.288 -0.3555  0.5492  0.1931
11191TIP3    H255065   0.975   0.497  12.179  1.4937 -2.4959  1.2123
11192TIP3   OH255066   4.890   3.607   5.684 -0.3525 -0.4001 -0.2309
11192TIP3    H155067   4.892   3.584   5.591 -2.1130  0.0506 -0.4100
11192TIP3    H255068   4.881   3.523   5.729 -0.5611 -0.5454 -0.5381
11193TIP3   OH255069   5.688   0.812  11.258 -0.4634  0.6463 -0.3864
11193TIP3    H155070   5.611   0.807  11.202  0.0382 -0.5811 -1.0099
11193TIP3    H255071   5.705   0.722  11.284  0.4896  0.9573  0.1143
11194TIP3   OH255072   5.656   6.374  14.576 -0.0826 -0.4813  0.2073
11194TIP3    H155073   5.583   6.419  14.532  0.9342  1.0246 -0.0303
11194TIP3    H255074   5.698   6.443  14.628  0.7108 -1.5008  0.9360
11195TIP3   OH255075   1.861   3.434  14.951  0.2122 -0.1712  0.0123
11195TIP3    H155076   1.955   3.415  14.956  0.1367 -1.0202 -1.2326
11195TIP3    H255077   1.841   3.479  15.033  1.2793 -1.8222  1.2461
11196TIP3   OH255078   4.190   0.019   5.615 -0.7261 -0.3352  0.2971
11196TIP3    H155079   4.185   0.111   5.592  1.8456 -0.0107  0.7313
11196TIP3    H255080   4.250  -0.019   5.550  3.3820 -0.2588  3.6485
11197TIP3   OH255081   3.173   4.340  12.232  0.1912  0.6462  0.0827
11197TIP3    H155082   3.210   4.264  12.188  0.2831 -0.0745  1.3545
11197TIP3    H255083   3.187   4.412  12.171  0.3355 -0.2985 -1.0410
11198TIP3   OH255084   4.867   0.359   4.687 -0.0515  0.5382  0.1763
11198TIP3    H155085   4.831   0.298   4.623  0.5820 -0.1166  0.4143
11198TIP3    H255086   4.805   0.358   4.760 -1.3125  2.0872 -0.8361
11199TIP3   OH255087   3.001   0.887   4.462  0.4328  0.0116  0.4449
11199TIP3    H155088   3.004   0.973   4.419  0.5218  0.3366  1.0886
11199TIP3    H255089   3.017   0.906   4.555 -1.6482 -0.4717  0.9382
11200TIP3   OH255090   4.076   4.032  13.099  0.0444  0.1988 -0.5225
11200TIP3    H155091   3.999   4.086  13.116 -0.2761 -0.2927 -0.3860
11200TIP3    H255092   4.121   4.076  13.027  2.1849  3.0889  2.3277
11201TIP3   OH255093   5.172   5.906  11.442 -0.6423 -0.3095  0.3245
11201TIP3    H155094   5.124   5.824  11.431  0.3246 -1.0121  1.1095
11201TIP3    H255095   5.223   5.914  11.361 -0.7232 -0.4991  0.2541
11202TIP3   OH255096   3.375   6.430   5.143 -0.1761  0.7327 -0.9402
11202TIP3    H155097   3.342   6.423   5.232 -1.5812  0.7805 -1.4405
11202TIP3    H255098   3.327   6.364   5.093 -0.5991  1.7977 -1.9933
11203TIP3   OH255099   1.616   5.458  14.093  0.2089  0.4962  0.4458
11203TIP3    H155100   1.624   5.534  14.035 -0.8279 -1.2086 -2.1319
11203TIP3    H255101   1.522   5.446  14.103  0.0603 -2.6658 -2.6374
11204TIP3   OH255102   1.502   3.636   4.964  0.1020 -0.4231 -0.0257
11204TIP3    H155103   1.558   3.560   4.983 -0.3519 -0.8063 -0.1808
11204TIP3    H255104   1.415   3.607   4.990 -0.4489 -0.7505 -2.0379
11205TIP3   OH255105   2.179   6.644   5.528  0.1343  0.1090 -0.2234
11205TIP3    H155106   2.113   6.615   5.590  0.2009 -0.4429 -0.4021
11205TIP3    H255107   2.258   6.595   5.553  0.3481  0.4130 -0.3003
11206TIP3   OH255108   3.297   5.134  12.960 -0.2776  0.4073 -0.4352
11206TIP3    H155109   3.282   5.133  13.054  0.4852  2.4707 -0.2499
11206TIP3    H255110   3.344   5.052  12.942 -1.4527 -0.5615  0.7530
11207TIP3   OH255111   0.976   6.485   6.187  0.1612  0.2266  0.2634
11207TIP3    H155112   1.067   6.481   6.158  0.5146  1.1920  1.1930
11207TIP3    H255113   0.972   6.425   6.262 -0.2540 -0.6777 -0.4620
11208TIP3   OH255114   2.205   6.547  12.013 -0.2243  0.1832 -0.3471
11208TIP3    H155115   2.292   6.507  11.999 -0.0408 -0.6988  2.5544
11208TIP3    H255116   2.148   6.473  12.033 -0.9574  1.0033  0.6834
11209TIP3   OH255117   5.925   1.460  16.123 -0.1934  0.0185  0.2349
11209TIP3    H155118   5.961   1.472  16.211  2.1802 -1.6851 -0.3763
11209TIP3    H255119   5.945   1.368  16.102  2.4140  1.1569 -3.2623
11210TIP3   OH255120   5.551   6.107   2.090 -0.4791  0.5013  0.4917
11210TIP3    H155121   5.568   6.068   2.175 -0.0858 -0.6354 -0.0873
11210TIP3    H255122   5.633   6.096   2.041 -1.7294 -2.1574 -1.2427
11211TIP3   OH255123   5.833   1.316  14.880 -0.1884 -0.3102  0.3571
11211TIP3    H155124   5.834   1.287  14.971 -0.7918  0.0558  0.4882
11211TIP3    H255125   5.755   1.273  14.843 -0.8538  0.7961  0.4411
11212TIP3   OH255126   0.096   1.275  16.692  0.3163  0.0140 -0.1446
11212TIP3    H155127   0.007   1.272  16.726 -0.0041  1.2067 -0.8153
11212TIP3    H255128   0.106   1.364  16.659  0.6337 -0.9883 -3.0409
11213TIP3   OH255129   5.569   3.633   1.340 -0.2073 -0.1281  0.1115
11213TIP3    H155130   5.542   3.553   1.386 -0.0100 -0.5005 -0.4114
11213TIP3    H255131   5.487   3.668   1.304 -0.3619  0.1627  0.7320
11214TIP3   OH255132   4.506   2.184  14.774 -0.3504  0.5543  0.2039
11214TIP3    H155133   4.568   2.254  14.752 -1.1842  0.8707 -1.2485
11214TIP3    H255134   4.461   2.216  14.852  1.2578  0.3243  1.2920
11215TIP3   OH255135   1.473   2.052   5.606  0.8747 -0.0064  0.1033
11215TIP3    H155136   1.512   2.076   5.522  0.6929 -0.5235 -0.1287
11215TIP3    H255137   1.473   1.956   5.606 -0.6876 -0.0218 -0.0402
11216TIP3   OH255138   6.647   0.378   2.745  0.2901  0.3681  0.0770
11216TIP3    H155139   6.615   0.465   2.723  0.8425  0.8894  1.2599
11216TIP3    H255140   6.717   0.393   2.809  0.8458 -0.9053 -0.1913
11217TIP3   OH255141   3.945   1.531   3.235 -0.1315 -0.0035  0.0696
11217TIP3    H155142   4.025   1.534   3.287  0.3476 -1.5564 -0.5147
11217TIP3    H255143   3.964   1.468   3.165 -2.1075 -1.0214  0.3623
11218TIP3   OH255144   5.845   5.436  10.531  0.1106  0.0241  0.1499
11218TIP3    H155145   5.881   5.451  10.619 -0.9349  0.9532  0.4423
11218TIP3    H255146   5.920   5.406  10.480  0.7496 -0.4861  1.3441
11219TIP3   OH255147   0.455   0.703   0.757 -0.6912 -0.1004  0.1311
11219TIP3    H155148   0.475   0.766   0.688 -0.9575 -0.4735 -0.2933
11219TIP3    H255149   0.485   0.619   0.722 -1.9489 -0.4971 -0.0609
11220TIP3   OH255150   0.294   1.578  13.987  0.3688  0.1013 -0.1102
11220TIP3    H155151   0.231   1.563  14.057  0.2852 -0.1957 -0.2500
11220TIP3    H255152   0.288   1.501  13.932 -0.2949  0.7667 -1.0033
11221TIP3   OH255153   3.060   5.334   1.288  0.2464 -0.0883 -0.3202
11221TIP3    H155154   2.971   5.362   1.267  0.6693  0.8523 -0.9802
11221TIP3    H255155   3.090   5.396   1.354  1.6668  2.0731 -2.7598
11222TIP3   OH255156   6.181   4.918  16.827 -0.3062  0.0949 -0.4603
11222TIP3    H155157   6.124   4.852  16.787 -0.3213 -0.3360  0.2604
11222TIP3    H255158   6.168   4.908  16.921 -0.3195  1.1443 -0.3392
11223TIP3   OH255159   6.024   4.909   5.362 -0.2942 -0.0297  0.4984
11223TIP3    H155160   6.048   4.962   5.439 -0.1355  0.7785 -0.0967
11223TIP3    H255161   6.104   4.861   5.341  0.0200  0.6205  0.1570
11224TIP3   OH255162   0.975   1.849   4.716 -0.3757 -0.3278 -0.0828
11224TIP3    H155163   0.934   1.805   4.641 -0.2468 -1.2969  0.3993
11224TIP3    H255164   0.986   1.780   4.781  0.5027  0.2755  0.4271
11225TIP3   OH255165   0.243   3.437  12.991 -0.1350 -0.4209  0.1914
11225TIP3    H155166   0.255   3.372  12.921  0.0743  0.4473 -0.5967
11225TIP3    H255167   0.313   3.418  13.053 -0.4636 -1.3510  0.3066
11226TIP3   OH255168   3.369   2.515  13.675  0.5223 -0.1825  0.2652
11226TIP3    H155169   3.452   2.553  13.645  0.4644 -0.4238 -0.2204
11226TIP3    H255170   3.394   2.459  13.749  1.0093 -1.3112 -0.7065
11227TIP3   OH255171   6.463   6.151  13.812  0.2418  0.0342  0.3029
11227TIP3    H155172   6.474   6.225  13.871 -0.4130  0.5228 -0.1797
11227TIP3    H255173   6.510   6.177  13.732  2.4964 -1.2663  1.1083
11228TIP3   OH255174   4.852   1.290  15.468  0.1425  0.4246 -0.0514
11228TIP3    H155175   4.913   1.360  15.490  1.0708 -0.4079  0.0699
11228TIP3    H255176   4.801   1.276  15.548 -0.9233  1.7996 -0.4538
11229TIP3   OH255177   0.322   5.209  13.412 -0.8748 -0.6568 -0.4057
11229TIP3    H155178   0.401   5.215  13.465 -1.5775 -0.4870  0.6480
11229TIP3    H255179   0.251   5.234  13.471 -1.7553 -1.0932 -1.2435
11230TIP3   OH255180   1.271   3.265   1.161 -0.2540  0.3224 -0.3945
11230TIP3    H155181   1.217   3.344   1.157 -0.0199  0.4644 -0.9261
11230TIP3    H255182   1.231   3.206   1.098  1.2503  1.1139 -2.2138
11231TIP3   OH255183   3.581   2.728  13.483 -0.0627 -0.0306 -0.1448
11231TIP3    H155184   3.602   2.658  13.422 -2.1294  0.1585 -1.1672
11231TIP3    H255185   3.486   2.722  13.495  0.2024  0.0762  2.9227
11232TIP3   OH255186   4.790   6.372   5.967  0.1346  0.6278  0.1621
11232TIP3    H155187   4.782   6.363   6.062 -0.2762 -0.0158  0.0730
11232TIP3    H255188   4.782   6.282   5.934  1.9905  0.6266 -0.3711
11233TIP3   OH255189   5.880   5.401  13.638 -0.3345  0.0456 -0.0132
11233TIP3    H155190   5.858   5.490  13.665  1.5884  0.3852  0.6144
11233TIP3    H255191   5.942   5.412  13.566 -1.6554 -0.8368 -1.3431
11234TIP3   OH255192   3.857   4.547  13.966  0.5221 -0.1646 -0.0013
11234TIP3    H155193   3.891   4.586  14.047  2.1598  0.7458 -1.0645
11234TIP3    H255194   3.901   4.596  13.896 -1.2585 -0.5635 -1.4614
11235TIP3   OH255195   3.844   0.969   3.073  0.2205  0.2168 -0.0667
11235TIP3    H155196   3.869   1.056   3.104 -1.5752  0.8825 -0.3903
11235TIP3    H255197   3.928   0.924   3.057  1.1889  1.3305  1.5481
11236TIP3   OH255198   2.134   1.514   5.275 -0.3303 -0.3060  0.2979
11236TIP3    H155199   2.157   1.573   5.203  3.8162 -0.2454  1.3812
11236TIP3    H255200   2.107   1.571   5.346  0.5403  0.0714  0.3371
11237TIP3   OH255201   4.351   0.950   0.167  0.5035 -0.2891 -0.3272
11237TIP3    H155202   4.382   0.940   0.257 -0.9486 -1.2778  0.1066
11237TIP3    H255203   4.307   1.035   0.165  1.1804  0.0617 -0.3063
11238TIP3   OH255204   2.396   5.747   4.352 -0.5112 -0.1059 -0.2080
11238TIP3    H155205   2.373   5.666   4.397  2.7674 -1.5317 -0.7934
11238TIP3    H255206   2.450   5.795   4.414 -0.1126  0.2804 -0.8419
11239TIP3   OH255207   1.887   3.976  15.592  0.2172  0.6987 -0.1053
11239TIP3    H155208   1.819   4.038  15.621 -1.5673 -0.1389 -2.2662
11239TIP3    H255209   1.906   4.002  15.502 -1.0085 -2.1443 -1.2904
11240TIP3   OH255210   0.111   2.289   0.906  0.2141  0.5638 -0.2646
11240TIP3    H155211   0.092   2.221   0.972 -1.3235  0.1725 -1.0717
11240TIP3    H255212   0.067   2.367   0.939 -0.0479  0.5286 -0.5316
11241TIP3   OH255213   6.748   1.665  13.734 -0.2738  0.0224 -0.4004
11241TIP3    H155214   6.656   1.683  13.755 -0.6560  0.5979 -2.3550
11241TIP3    H255215   6.764   1.577  13.768 -1.5837 -0.1189 -0.1132
11242TIP3   OH255216   1.704   2.273  15.448  0.9015  0.0853  0.2570
11242TIP3    H155217   1.728   2.365  15.459  0.5801  0.1505  0.4196
11242TIP3    H255218   1.760   2.226  15.511  1.2830  0.1382 -0.0451
11243TIP3   OH255219   6.454   6.573  14.857  0.0770 -0.2514 -0.0587
11243TIP3    H155220   6.501   6.594  14.776 -1.6269  0.3302 -0.9413
11243TIP3    H255221   6.494   6.629  14.923  0.1573  0.7552 -0.9378
11244TIP3   OH255222   1.315   6.283  14.973  0.6725  0.4920 -0.1616
11244TIP3    H155223   1.359   6.274  14.889  1.1061 -1.2121  0.2094
11244TIP3    H255224   1.234   6.330  14.953  0.9852  0.5041 -1.4430
11245TIP3   OH255225   3.814   3.820  13.732 -0.4548  0.6023  0.2050
11245TIP3    H155226   3.827   3.892  13.671 -0.1007 -0.6301 -1.2258
11245TIP3    H255227   3.871   3.750  13.700 -1.5596 -0.6870  0.9308
11246TIP3   OH255228   5.504   6.787  17.089 -0.7434  0.3697  0.1845
11246TIP3    H155229   5.409   6.804  17.086 -0.9717 -0.9350 -1.0050
11246TIP3    H255230   5.514   6.715  17.151 -0.8069 -0.8636 -1.1703
11247TIP3   OH255231   1.853   3.768  15.974  0.3083  0.1829 -0.3913
11247TIP3    H155232   1.886   3.842  16.024  1.3256 -0.0850 -0.6464
11247TIP3    H255233   1.777   3.802  15.926  0.5242  0.9414 -0.1973
11248TIP3   OH255234   6.327   4.979   1.747  0.2277 -0.6926  0.4187
11248TIP3    H155235   6.330   4.900   1.692 -0.3700 -0.1974 -0.3560
11248TIP3    H255236   6.247   5.024   1.719  0.7617  0.3833  0.5806
11249TIP3   OH255237   1.794   0.236  11.172  0.1968 -0.5277  0.2580
11249TIP3    H155238   1.725   0.171  11.162  0.1428 -0.3847 -0.3692
11249TIP3    H255239   1.752   0.311  11.213 -0.0376 -0.4189 -0.1756
11250TIP3   OH255240   1.775   6.819  13.746  0.1864 -0.9069  0.1123
11250TIP3    H155241   1.839   6.752  13.723 -0.9343 -1.8507 -0.3682
11250TIP3    H255242   1.720   6.828  13.668 -0.8089 -0.7596  0.8140
11251TIP3   OH255243   2.924   0.388  13.569  0.1429 -0.2185 -0.0869
11251TIP3    H155244   2.941   0.478  13.597  2.1505 -0.4973 -0.3151
11251TIP3    H255245   2.990   0.335  13.613 -0.5904 -1.5184 -0.4729
11252TIP3   OH255246   3.810   3.351  16.256 -0.4399 -0.1706  0.2400
11252TIP3    H155247   3.787   3.338  16.164  1.6366  0.2662 -0.3944
11252TIP3    H255248   3.906   3.357  16.256 -0.2955 -1.4351  2.6010
11253TIP3   OH255249   0.370   5.468   4.283 -0.1732  0.3287  0.4967
11253TIP3    H155250   0.435   5.471   4.353  0.4285  0.6456 -0.0642
11253TIP3    H255251   0.411   5.515   4.211  0.1141 -1.8341 -0.8274
11254TIP3   OH255252   5.549   3.091  14.159 -0.2856 -0.0228 -0.1434
11254TIP3    H155253   5.602   3.013  14.140  0.2541  0.5712 -1.1371
11254TIP3    H255254   5.564   3.107  14.252  0.9891 -0.0915 -0.3123
11255TIP3   OH255255   3.486   1.783   4.236  0.3253  0.4512  0.4554
11255TIP3    H155256   3.392   1.763   4.243  0.2966  0.1549 -0.6723
11255TIP3    H255257   3.525   1.701   4.205  0.5796  1.3292 -1.6700
11256TIP3   OH255258   1.370   3.279  13.916  1.2726  0.3610 -0.3765
11256TIP3    H155259   1.303   3.343  13.892  1.3707  0.5539 -0.1339
11256TIP3    H255260   1.427   3.325  13.978  0.7842 -0.2495  0.5548
11257TIP3   OH255261   1.701   3.287   2.167 -0.0527  0.6015  0.1109
11257TIP3    H155262   1.690   3.265   2.260 -0.4599  2.2325  0.4789
11257TIP3    H255263   1.613   3.277   2.130 -0.2896  1.7544  0.3310
11258TIP3   OH255264   1.072   0.051  16.326  0.5559 -0.0894  0.2734
11258TIP3    H155265   1.004   0.103  16.368  1.4468 -0.6798  2.5841
11258TIP3    H255266   1.149   0.107  16.325  0.9670 -0.6309  0.8783
11259TIP3   OH255267   1.077   2.876   4.509 -0.0072  0.4667  0.1533
11259TIP3    H155268   1.015   2.840   4.446  1.4011  0.9380 -1.5655
11259TIP3    H255269   1.022   2.928   4.568 -1.4200 -0.3273 -0.3936
11260TIP3   OH255270   6.057   6.489   2.298  0.0454  0.0189  0.3128
11260TIP3    H155271   6.101   6.571   2.276 -0.4698 -0.1287 -1.3754
11260TIP3    H255272   6.009   6.509   2.378 -0.1981  1.4194 -0.1609
11261TIP3   OH255273   0.985   3.568   3.142 -0.2632 -0.0260 -0.2845
11261TIP3    H155274   1.029   3.579   3.227  0.6163 -0.3229 -0.6867
11261TIP3    H255275   1.042   3.507   3.094 -0.0311  1.1828 -1.5872
11262TIP3   OH255276   1.074   5.505   2.958 -0.3192  0.3793  0.2103
11262TIP3    H155277   1.154   5.454   2.973  0.2751  0.9966 -0.7532
11262TIP3    H255278   1.005   5.440   2.948  0.3264 -0.2197 -0.4207
11263TIP3   OH255279   1.324   0.938  14.197 -0.0013  0.2189  0.2668
11263TIP3    H155280   1.400   0.936  14.139 -0.4180 -1.0184 -0.2814
11263TIP3    H255281   1.310   1.031  14.216  2.8058  0.4140  1.9834
11264TIP3   OH255282   3.564   3.806   5.141 -0.1057 -0.0260  0.2237
11264TIP3    H155283   3.605   3.886   5.174  0.4995 -0.3936  0.3704
11264TIP3    H255284   3.634   3.759   5.096  0.3208 -1.8649  2.6335
11265TIP3   OH255285   4.311   4.758   1.066  0.0463 -0.1468 -0.4823
11265TIP3    H155286   4.270   4.704   0.999 -1.6373 -0.9226  1.0954
11265TIP3    H255287   4.349   4.696   1.128  1.6590  0.5526 -0.6988
11266TIP3   OH255288   2.255   1.725  10.708  0.0762  0.3151 -0.6254
11266TIP3    H155289   2.340   1.758  10.679  0.6224 -0.1455  0.3668
11266TIP3    H255290   2.192   1.761  10.646  0.6053  3.2199  0.3666
11267TIP3   OH255291   2.597   5.604   2.001 -0.4505 -0.7883  0.1582
11267TIP3    H155292   2.507   5.584   2.026 -1.4132 -0.9335 -2.9452
11267TIP3    H255293   2.600   5.699   1.998 -0.2993 -0.7693  0.9072
11268TIP3   OH255294   3.421   5.666  12.014  0.3201  0.4335  0.4156
11268TIP3    H155295   3.468   5.735  11.967  1.7405 -0.0532  1.0756
11268TIP3    H255296   3.430   5.588  11.958  0.6301  0.2519  0.7113
11269TIP3   OH255297   0.928   3.927   6.099  0.2346  0.2055 -0.1303
11269TIP3    H155298   0.952   3.984   6.172 -2.8465 -0.4888  1.5676
11269TIP3    H255299   0.995   3.858   6.099  1.6626  1.5363  0.3916
11270TIP3   OH255300   3.440   2.779   5.611 -0.1157 -0.2556  0.0311
11270TIP3    H155301   3.426   2.689   5.582 -3.7720 -0.1966  1.0860
11270TIP3    H255302   3.421   2.832   5.534 -0.1506 -0.3298 -0.0111
11271TIP3   OH255303   3.819   2.216  16.000  0.7885  0.1763  0.6662
11271TIP3    H155304   3.798   2.215  16.093 -0.0568  0.3723  0.4905
11271TIP3    H255305   3.900   2.165  15.993 -0.8776 -2.7778  1.1361
11272TIP3   OH255306   2.413   2.845  12.508 -0.1485  0.0810 -0.1826
11272TIP3    H155307   2.343   2.799  12.461 -0.9259 -0.9109  1.8435
11272TIP3    H255308   2.493   2.818  12.464 -0.8452 -0.7445 -0.9829
11273TIP3   OH255309   3.559   3.312   4.070  0.3367 -0.4844  0.2622
11273TIP3    H155310   3.570   3.391   4.017  1.8060 -0.9661 -0.2250
11273TIP3    H255311   3.514   3.250   4.012  0.3856 -0.4395  0.1765
11274TIP3   OH255312   6.115   6.495  16.403  0.2014  0.1401 -0.2827
11274TIP3    H155313   6.037   6.458  16.443  0.2526  1.1448  0.7960
11274TIP3    H255314   6.160   6.420  16.364  0.3387 -0.9741  1.8954
11275TIP3   OH255315   6.718   4.590  13.767  0.3245  0.0386 -0.0139
11275TIP3    H155316   6.732   4.556  13.678 -1.5380  0.4282 -0.5016
11275TIP3    H255317   6.710   4.511  13.821 -0.5799 -0.2559 -0.5564
11276TIP3   OH255318   2.326   4.955  11.840  0.5332 -0.3875  0.2253
11276TIP3    H155319   2.253   5.016  11.824  0.1157 -1.1729 -1.0479
11276TIP3    H255320   2.314   4.926  11.930  0.6585  1.2887  0.8119
11277TIP3   OH255321   3.935   5.025   1.988  0.1276  0.0809  0.0385
11277TIP3    H155322   3.901   5.028   2.078  1.0096 -1.1750  0.4478
11277TIP3    H255323   3.889   4.952   1.948  2.0207 -1.4738  0.5201
11278TIP3   OH255324   1.010   2.202   4.146 -0.2936 -0.1369  0.4274
11278TIP3    H155325   0.978   2.293   4.148  0.2612  0.1666 -1.7632
11278TIP3    H255326   1.047   2.188   4.233 -0.7507  1.6032  0.9542
11279TIP3   OH255327   6.486   2.642  13.281  0.5416  0.6164 -0.2698
11279TIP3    H155328   6.401   2.685  13.280 -0.4988 -1.3521 -0.3502
11279TIP3    H255329   6.470   2.557  13.322  1.9446 -0.8068 -2.4856
11280TIP3   OH255330   5.083   5.243  16.647 -0.8132 -0.7455 -0.0422
11280TIP3    H155331   5.023   5.201  16.709  0.9404  0.1703  2.4007
11280TIP3    H255332   5.130   5.308  16.699  1.2688 -0.3984 -2.2035
11281TIP3   OH255333   2.550   1.112  12.275 -0.4532 -0.0696  0.0761
11281TIP3    H155334   2.531   1.031  12.323 -0.4526 -0.4906 -0.6255
11281TIP3    H255335   2.493   1.109  12.199 -0.4281  0.5824  0.0267
11282TIP3   OH255336   3.179   5.296  15.813 -0.6446  0.0670  0.7662
11282TIP3    H155337   3.196   5.330  15.725 -1.2821 -2.5180 -0.4531
11282TIP3    H255338   3.253   5.238  15.832 -1.3537 -0.7247  1.1843
11283TIP3   OH255339   4.086   3.885   4.990 -0.3160  0.2901 -0.7444
11283TIP3    H155340   4.076   3.953   4.924 -0.1209  2.0686  0.9500
11283TIP3    H255341   4.018   3.905   5.055  0.7223 -0.1799  0.5351
11284TIP3   OH255342   6.164   0.403  15.908  0.3429  0.1159  0.4536
11284TIP3    H155343   6.117   0.486  15.898 -0.1852 -0.1101  0.9972
11284TIP3    H255344   6.104   0.337  15.873  1.6177  0.1618 -2.0438
11285TIP3   OH255345   3.170   0.879  10.475  0.0680 -0.0709  0.6314
11285TIP3    H155346   3.134   0.801  10.517 -0.4927  0.6688  1.5452
11285TIP3    H255347   3.100   0.910  10.418  0.3886 -0.3752  0.0617
11286TIP3   OH255348   4.973   6.376  12.892 -0.2740 -0.1130  0.2047
11286TIP3    H155349   5.059   6.335  12.883 -0.8415 -1.2551 -0.1789
11286TIP3    H255350   4.968   6.440  12.821  0.6351  0.6902  0.8338
11287TIP3   OH255351   3.682   4.750  15.755 -0.1669  0.5246  0.7507
11287TIP3    H155352   3.589   4.757  15.733 -0.4148  0.0476  1.5806
11287TIP3    H255353   3.721   4.831  15.721 -1.5235  2.4528  3.3809
11288TIP3   OH255354   3.007   2.103   4.683 -0.0383 -0.8593 -0.2297
11288TIP3    H155355   2.912   2.119   4.676 -0.0065  1.3437  2.5722
11288TIP3    H255356   3.015   2.035   4.750  0.3620 -0.5478  0.0427
11289TIP3   OH255357   3.659   2.129   1.697 -0.0338  0.0516  0.4203
11289TIP3    H155358   3.579   2.163   1.657 -0.3977 -0.9532  0.2656
11289TIP3    H255359   3.719   2.115   1.624  0.0677  0.2436  0.4674
11290TIP3   OH255360   1.240   0.399  16.805 -0.1934  0.3559  0.6869
11290TIP3    H155361   1.188   0.479  16.798 -0.0656  0.3512 -0.7893
11290TIP3    H255362   1.176   0.329  16.813 -0.5568  0.2491 -2.1108
11291TIP3   OH255363   5.791   2.610   3.139  0.1768  0.5017  1.0082
11291TIP3    H155364   5.771   2.703   3.146 -1.9749  0.1522  0.0554
11291TIP3    H255365   5.740   2.569   3.209 -0.4923 -0.1607  0.1528
11292TIP3   OH255366   6.273   5.839   4.486 -0.1963  0.1418  0.4962
11292TIP3    H155367   6.366   5.862   4.482 -0.4319  1.4086  1.5831
11292TIP3    H255368   6.270   5.748   4.455  1.5594 -0.3652  1.6444
11293TIP3   OH255369   2.455   2.734   1.103 -0.2475  0.3357  0.5363
11293TIP3    H155370   2.378   2.745   1.047 -0.4805  0.4721  0.8806
11293TIP3    H255371   2.516   2.802   1.073 -0.4536  0.5429  0.5837
11294TIP3   OH255372   6.115   4.022   5.386  0.4309 -0.2184 -0.4832
11294TIP3    H155373   6.146   4.107   5.416  0.6415 -0.5703  0.3267
11294TIP3    H255374   6.025   4.038   5.357  0.1091  0.0902  0.6215
11295TIP3   OH255375   6.668   6.217  13.134  0.3691  0.3497 -0.4716
11295TIP3    H155376   6.610   6.141  13.134  0.7952 -0.0527  1.8075
11295TIP3    H255377   6.615   6.287  13.172  0.6361  0.6065 -0.5704
11296TIP3   OH255378   3.874   6.039  16.663 -0.0802 -0.5535 -0.1802
11296TIP3    H155379   3.918   5.955  16.682 -1.6805 -1.2456  0.6895
11296TIP3    H255380   3.829   6.024  16.580  1.0764  0.0852 -0.9588
11297TIP3   OH255381   1.884   5.421  16.130  0.6196  0.4590  0.3972
11297TIP3    H155382   1.797   5.387  16.109  0.8462  0.8963 -1.4674
11297TIP3    H255383   1.869   5.488  16.196 -0.2184 -0.7934  1.5262
11298TIP3   OH255384   0.400   5.631   5.480  0.4347  0.5277 -0.5955
11298TIP3    H155385   0.351   5.573   5.421 -2.4774  2.0966  0.1072
11298TIP3    H255386   0.445   5.571   5.539  0.0569 -1.0201 -1.7925
11299TIP3   OH255387   0.091   6.341   3.604  0.4452  0.2512  0.1979
11299TIP3    H155388   0.075   6.324   3.697 -0.8587 -1.9353 -0.3581
11299TIP3    H255389   0.016   6.393   3.575  0.4116  0.1870  0.1706
11300TIP3   OH255390   3.896   4.890   4.494  0.3700 -0.1157 -0.2851
11300TIP3    H155391   3.862   4.803   4.472 -0.0386 -0.1518  0.4415
11300TIP3    H255392   3.890   4.940   4.413 -3.7222  0.6300  0.2890
11301TIP3   OH255393   1.435   3.186   0.473 -0.3642 -0.3408 -0.5461
11301TIP3    H155394   1.450   3.245   0.547 -0.3948  0.2384 -0.9938
11301TIP3    H255395   1.450   3.241   0.395 -0.0199 -1.0196 -0.9677
11302TIP3   OH255396   5.574   2.376   5.419  0.3144  0.2592  0.2590
11302TIP3    H155397   5.567   2.294   5.468 -0.6651 -0.5718 -1.1756
11302TIP3    H255398   5.665   2.378   5.390  0.1643 -0.7397 -0.3399
11303TIP3   OH255399   3.611   0.673   3.961 -0.1914 -0.2633  0.2068
11303TIP3    H155400   3.599   0.692   3.868 -0.9530  0.6408  0.4807
11303TIP3    H255401   3.705   0.655   3.969  0.0157  0.3764 -0.6040
11304TIP3   OH255402   6.550   1.092  10.607 -0.0233  0.2197 -0.6532
11304TIP3    H155403   6.518   1.011  10.568 -0.1832  0.0917 -0.2709
11304TIP3    H255404   6.634   1.108  10.565  1.2348 -1.4978  1.0291
11305TIP3   OH255405   5.742   6.675   2.885 -0.2873  0.0946 -0.1170
11305TIP3    H155406   5.824   6.690   2.932 -0.1694 -0.5076 -0.1134
11305TIP3    H255407   5.719   6.760   2.848 -0.7398  0.7360  1.5918
11306TIP3   OH255408   6.751   3.175   6.153 -0.1923 -0.1433  0.1567
11306TIP3    H155409   6.744   3.268   6.174 -1.3364 -0.1836  0.0433
11306TIP3    H255410   6.841   3.163   6.124  0.4644  0.5813  1.8083
11307TIP3   OH255411   2.791   2.979   0.499 -1.0023  0.0074  0.5489
11307TIP3    H155412   2.877   2.944   0.524 -0.9324 -1.1331 -1.1698
11307TIP3    H255413   2.810   3.065   0.461 -0.7249  0.0684  0.8177
11308TIP3   OH255414   4.604   4.250   5.847 -0.2764 -0.3765  0.6980
11308TIP3    H155415   4.601   4.160   5.881  0.8875 -0.4835  0.5601
11308TIP3    H255416   4.656   4.298   5.911 -1.9097  0.5198  1.4142
11309TIP3   OH255417   4.455   4.936   6.062 -0.2269  0.1985 -0.1576
11309TIP3    H155418   4.407   4.954   5.982 -0.3388 -1.1136 -0.4202
11309TIP3    H255419   4.517   4.867   6.038 -0.1520 -0.1066  0.8272
11310TIP3   OH255420   0.995   1.034   1.932  0.2458  0.2247 -0.2866
11310TIP3    H155421   0.931   0.978   1.887  0.3821 -0.5626  0.4816
11310TIP3    H255422   1.007   0.993   2.018  0.6784  1.1944  0.1297
11311TIP3   OH255423   4.317   5.810   6.104 -0.0741  0.0006 -0.2090
11311TIP3    H155424   4.354   5.838   6.020 -0.0851  0.2676 -0.1259
11311TIP3    H255425   4.306   5.891   6.153  0.9034 -0.2518  0.4493
11312TIP3   OH255426   2.626   2.612   4.659 -0.4070  0.6273 -0.1458
11312TIP3    H155427   2.626   2.615   4.564 -0.4744 -1.1481 -0.2416
11312TIP3    H255428   2.534   2.597   4.683 -0.7334  2.9530  0.3480
11313TIP3   OH255429   5.289   0.432  14.381 -0.1039  0.0591 -0.3087
11313TIP3    H155430   5.262   0.455  14.292 -0.7538  0.1613 -0.0967
11313TIP3    H255431   5.231   0.485  14.437  0.1509 -0.1678  0.1708
11314TIP3   OH255432   3.183   0.011   0.851 -0.3861  0.2441 -0.1296
11314TIP3    H155433   3.212   0.059   0.929  0.4279  0.9175 -0.8196
11314TIP3    H255434   3.137   0.077   0.799 -1.1374 -0.2596 -0.1233
11315TIP3   OH255435   2.606   1.265   3.371 -0.8226 -0.1857 -0.1900
11315TIP3    H155436   2.699   1.278   3.391 -0.9031  1.0187 -0.4993
11315TIP3    H255437   2.573   1.211   3.443 -0.1694  0.5174  0.6605
11316TIP3   OH255438   6.852   1.867   0.697 -0.0812  0.1944 -0.1994
11316TIP3    H155439   6.797   1.901   0.626 -1.4919  0.9829  1.2015
11316TIP3    H255440   6.928   1.830   0.653 -2.0966 -1.7321 -2.3275
11317TIP3   OH255441   3.696   4.857  16.991 -0.1141  0.4280 -0.5577
11317TIP3    H155442   3.729   4.898  16.910 -0.4923 -0.7742 -1.3438
11317TIP3    H255443   3.688   4.764  16.969 -0.2082  0.0820  0.8850
11318TIP3   OH255444   6.697   0.695  16.886  0.2893 -0.3551  0.1599
11318TIP3    H155445   6.773   0.680  16.829 -0.5385 -2.3579 -0.4946
11318TIP3    H255446   6.695   0.619  16.944  0.1431  0.8620  1.8192
11319TIP3   OH255447   5.439   1.725  11.292  0.0907  0.0956 -0.0664
11319TIP3    H155448   5.461   1.649  11.238 -0.2847  0.7365 -1.1591
11319TIP3    H255449   5.354   1.704  11.330  0.5099 -0.5026  0.5648
11320TIP3   OH255450   1.895   6.603   2.473  0.2381 -0.4068 -0.1278
11320TIP3    H155451   1.858   6.605   2.385  1.3905 -0.6131 -0.6436
11320TIP3    H255452   1.966   6.538   2.468 -0.6588 -1.5814  1.3735
11321TIP3   OH255453   6.485   5.338  16.896  0.2742  0.0027 -0.7867
11321TIP3    H155454   6.414   5.289  16.938  0.1031  0.5028 -0.4830
11321TIP3    H255455   6.445   5.372  16.816 -0.1224  1.0858 -0.1466
11322TIP3   OH255456   1.358   4.543   5.254 -0.4760  0.1227  0.0694
11322TIP3    H155457   1.275   4.570   5.294 -0.6599  0.9589 -0.8418
11322TIP3    H255458   1.332   4.499   5.173 -0.0686 -0.8200  0.4366
11323TIP3   OH255459   4.363   4.522   1.255  0.1025 -0.0814  0.0719
11323TIP3    H155460   4.343   4.587   1.323  0.5150  1.5317 -1.2854
11323TIP3    H255461   4.316   4.444   1.283 -0.2323  0.7090  1.8951
11324TIP3   OH255462   3.431   0.890  10.545  0.4520  0.0634  0.0243
11324TIP3    H155463   3.343   0.910  10.511  0.5833  2.2780  0.8320
11324TIP3    H255464   3.477   0.853  10.470 -0.1454  2.1109 -1.4494
11325TIP3   OH255465   3.296   6.059   2.533 -0.7280  0.5470  0.1664
11325TIP3    H155466   3.341   6.120   2.590  1.4581 -1.3461  0.6043
11325TIP3    H255467   3.366   6.015   2.484 -2.3428  0.0445 -1.8448
11326TIP3   OH255468   5.605   4.697   0.199  0.2753 -0.1531 -0.1956
11326TIP3    H155469   5.590   4.789   0.176  1.4358  0.3247  0.8444
11326TIP3    H255470   5.583   4.649   0.119  0.3819  1.0908 -1.0117
11327TIP3   OH255471   4.005   6.054  13.679  0.1131  0.5825 -0.3231
11327TIP3    H155472   3.989   6.085  13.590  0.2317  1.7751  0.0483
11327TIP3    H255473   3.963   6.120  13.735  1.1439  0.5556  0.5223
11328TIP3   OH255474   5.560   4.155  17.038  0.9816 -0.2919 -0.3335
11328TIP3    H155475   5.508   4.205  17.102  1.5463 -0.0034 -0.0985
11328TIP3    H255476   5.505   4.155  16.959  0.0331 -1.1138  0.3016
11329TIP3   OH255477   0.313   6.567   2.931  0.1967 -0.3257  0.0249
11329TIP3    H155478   0.348   6.498   2.989  0.3809  0.6690  1.1358
11329TIP3    H255479   0.255   6.521   2.872  0.4354 -1.4719  0.6481
11330TIP3   OH255480   3.327   2.846  11.570  0.6596  0.1966  0.0726
11330TIP3    H155481   3.257   2.900  11.534  1.5228  0.4050 -1.3935
11330TIP3    H255482   3.351   2.787  11.498  0.6248 -1.2761  1.2106
11331TIP3   OH255483   5.867   6.827  14.859  0.6064  0.6262  0.1244
11331TIP3    H155484   5.861   6.922  14.862  0.2442  0.5990  0.2739
11331TIP3    H255485   5.827   6.798  14.941 -0.0469  0.3016 -0.3070
11332TIP3   OH255486   4.860   6.435   2.522 -0.5067  1.0645  0.1496
11332TIP3    H155487   4.781   6.431   2.575 -1.4558  0.3747 -1.2540
11332TIP3    H255488   4.924   6.382   2.570 -1.2307  0.7386  0.7696
11333TIP3   OH255489   5.449   6.813   5.861 -0.1985  0.3252 -0.4675
11333TIP3    H155490   5.372   6.758   5.855  0.2900 -0.3155 -0.9995
11333TIP3    H255491   5.467   6.840   5.771 -0.3793  1.2846 -0.2241
11334TIP3   OH255492   3.366   3.882  13.232  0.4759  0.1627 -0.3814
11334TIP3    H155493   3.458   3.870  13.256  0.2167 -0.3207  0.4075
11334TIP3    H255494   3.369   3.925  13.147  1.4335  0.7684 -0.0564
11335TIP3   OH255495   4.413   2.120   4.040 -0.1649  0.7823 -0.7821
11335TIP3    H155496   4.481   2.149   3.979 -2.0970  0.6964 -3.1493
11335TIP3    H255497   4.394   2.198   4.093  2.1269  0.6320  0.3979
11336TIP3   OH255498   2.838   2.183   1.916  0.0632 -0.1034 -0.3867
11336TIP3    H155499   2.813   2.263   1.869 -1.7986  0.3988  1.3376
11336TIP3    H255500   2.762   2.162   1.970  0.2755 -3.3639 -1.1202
11337TIP3   OH255501   1.021   6.190   2.289 -0.0578  0.1650  0.4598
11337TIP3    H155502   1.074   6.132   2.342 -0.0370 -2.8209 -2.5388
11337TIP3    H255503   1.080   6.261   2.263  0.7960 -0.0697  1.7013
11338TIP3   OH255504   2.589   3.060  12.991  0.6028 -0.8291  0.1111
11338TIP3    H155505   2.540   3.095  13.067  0.2683 -0.7248 -0.1486
11338TIP3    H255506   2.672   3.031  13.028  0.9542  0.3870  0.3202
11339TIP3   OH255507   0.431   2.900  15.262  0.1771 -0.1259  0.4717
11339TIP3    H155508   0.485   2.873  15.187 -0.1060  1.0065 -0.1729
11339TIP3    H255509   0.421   2.821  15.315  2.2283 -0.4237  0.4676
11340TIP3   OH255510   3.865   0.915  10.935 -0.3711  1.0895 -0.4352
11340TIP3    H155511   3.778   0.905  10.897 -0.1810 -1.0265 -0.4197
11340TIP3    H255512   3.860   0.872  11.020  1.2002 -1.0843 -1.3331
11341TIP3   OH255513   6.636   1.406   1.159  0.1854 -0.2672 -0.2494
11341TIP3    H155514   6.653   1.454   1.078 -0.8019 -0.2532 -0.4667
11341TIP3    H255515   6.722   1.393   1.198  0.6176  0.2541 -1.0011
11342TIP3   OH255516   0.724   4.122  13.901  0.2254 -0.1265  0.1537
11342TIP3    H155517   0.654   4.183  13.922 -0.3245 -0.3553 -0.9295
11342TIP3    H255518   0.780   4.122  13.978 -0.6171  0.5443  0.7834
11343TIP3   OH255519   3.040   4.793  11.116  0.4736 -0.2500 -0.0899
11343TIP3    H155520   2.952   4.818  11.087  0.4016  3.0139  2.2835
11343TIP3    H255521   3.024   4.730  11.187  0.0562  0.1105  0.1423
11344TIP3   OH255522   6.531   3.754  16.137 -0.7558  0.6331 -0.2962
11344TIP3    H155523   6.512   3.738  16.044  0.1572  0.2538 -0.4355
11344TIP3    H255524   6.541   3.667  16.175 -0.5566  0.7935  0.0262
11345TIP3   OH255525   2.136   4.988  13.848 -0.4203  0.2679 -0.2845
11345TIP3    H155526   2.180   5.016  13.768  1.9479  1.2616  1.2718
11345TIP3    H255527   2.090   4.908  13.823  1.1195 -0.0355 -2.3774
11346TIP3   OH255528   5.875   5.557  11.873  0.2454 -0.2186 -0.0773
11346TIP3    H155529   5.830   5.473  11.864 -0.8158  0.2773  0.4478
11346TIP3    H255530   5.958   5.536  11.915 -0.2624 -0.9316  0.5893
11347TIP3   OH255531   0.599   0.475  14.964  0.0846  0.7642  0.1685
11347TIP3    H155532   0.538   0.509  14.898  1.7449  2.2305 -0.7010
11347TIP3    H255533   0.630   0.553  15.010  0.6091 -0.0371  1.2172
11348TIP3   OH255534   5.439   6.218   5.690 -0.1589 -0.1362  0.3670
11348TIP3    H155535   5.449   6.124   5.698  2.8677  0.1411  1.1335
11348TIP3    H255536   5.511   6.246   5.634 -1.5568  1.6722 -0.6701
11349TIP3   OH255537   1.900   1.077  13.461 -0.4413  0.2402  0.2257
11349TIP3    H155538   1.848   0.996  13.461 -1.8821  0.8599 -4.6681
11349TIP3    H255539   1.990   1.048  13.447 -0.6235 -0.5487  0.6174
11350TIP3   OH255540   1.442   0.139  13.692  0.6507 -0.3523  0.5919
11350TIP3    H155541   1.513   0.133  13.756 -0.7080 -3.5193  2.0268
11350TIP3    H255542   1.362   0.131  13.743 -0.6835  0.7131 -1.2157
11351TIP3   OH255543   6.420   0.735  13.652 -0.1562  0.1671  0.5756
11351TIP3    H155544   6.389   0.773  13.734  0.6853  0.2416  0.8708
11351TIP3    H255545   6.343   0.693  13.614 -0.8519  1.2035  0.7894
11352TIP3   OH255546   4.013   6.484   3.206 -0.6909  0.0873 -0.2296
11352TIP3    H155547   3.992   6.494   3.299 -2.0198 -0.2663 -0.4820
11352TIP3    H255548   4.070   6.407   3.202  0.8164  1.0991  0.4620
11353TIP3   OH255549   2.527   2.771  11.346 -0.2944  0.3790  0.0602
11353TIP3    H155550   2.474   2.730  11.414  0.5352 -0.0974  0.4361
11353TIP3    H255551   2.554   2.855  11.384  0.6036 -0.1142  0.5485
11354TIP3   OH255552   0.107   5.506   0.240  0.0779 -0.4151 -0.1837
11354TIP3    H155553   0.182   5.446   0.233 -0.9741 -1.8443  0.4333
11354TIP3    H255554   0.079   5.520   0.149  1.3297  0.4895 -0.4601
11355TIP3   OH255555   0.583   6.129   0.073 -0.4855 -0.2934  0.1147
11355TIP3    H155556   0.670   6.088   0.078  0.6251  1.8720 -0.4419
11355TIP3    H255557   0.576   6.182   0.152 -0.8814  0.3191 -0.3228
11356TIP3   OH255558   1.359   1.844   3.461  0.0486 -0.1190 -0.7262
11356TIP3    H155559   1.281   1.875   3.414 -0.2365  0.8843  0.3777
11356TIP3    H255560   1.335   1.758   3.494 -0.4364  0.0133 -0.7359
11357TIP3   OH255561   5.513   3.118   3.016  0.3190 -0.6899 -0.5111
11357TIP3    H155562   5.536   3.140   2.925  0.7765 -1.1749 -0.5189
11357TIP3    H255563   5.541   3.194   3.067  0.3895 -0.5663 -0.7325
11358TIP3   OH255564   6.657   6.135   5.665  1.0513 -0.0523 -0.4326
11358TIP3    H155565   6.604   6.088   5.601 -0.0806 -0.9112  1.0707
11358TIP3    H255566   6.662   6.225   5.632 -0.6725 -0.1480 -1.0163
11359TIP3   OH255567   3.563   0.680  16.626 -0.2338 -0.3004  0.2156
11359TIP3    H155568   3.530   0.593  16.601 -0.5295 -0.3028  0.6134
11359TIP3    H255569   3.593   0.718  16.544  0.1733 -0.8975  0.0760
11360TIP3   OH255570   2.884   6.288  13.879  1.0263  0.1202 -0.0913
11360TIP3    H155571   2.892   6.196  13.851  0.4201  0.0860 -0.1790
11360TIP3    H255572   2.970   6.326  13.861  1.4048 -0.5239  0.3019
11361TIP3   OH255573   3.602   4.985   1.617 -0.2945 -0.0596 -0.1135
11361TIP3    H155574   3.602   4.933   1.697  0.7431  0.4129  0.2066
11361TIP3    H255575   3.657   4.936   1.556 -1.6307 -0.7773 -0.8170
11362TIP3   OH255576   6.614   0.385   1.569  0.1989  0.6415 -0.3279
11362TIP3    H155577   6.532   0.335   1.569  0.9705 -0.6671  0.2332
11362TIP3    H255578   6.589   0.471   1.604 -0.9027  0.2037  0.0052
11363TIP3   OH255579   1.531   2.737   6.191  0.3751 -0.8793 -0.4632
11363TIP3    H155580   1.495   2.673   6.252  0.7590  1.7091  2.7380
11363TIP3    H255581   1.461   2.801   6.178  0.6686 -0.8222 -1.9795
11364TIP3   OH255582   4.372   3.940   0.531 -0.6704  0.5767  0.1188
11364TIP3    H155583   4.410   3.907   0.449 -0.2491  0.6085  0.3000
11364TIP3    H255584   4.282   3.906   0.531 -0.4501 -0.0258 -0.0175
11365TIP3   OH255585   1.312   5.124   6.166 -0.3593  0.2356 -0.7797
11365TIP3    H155586   1.350   5.087   6.246 -0.3687  0.4541 -0.6746
11365TIP3    H255587   1.388   5.140   6.109 -0.4240 -0.7762 -1.1794
11366TIP3   OH255588   4.688   3.604  15.842 -0.0833 -0.2166 -0.1778
11366TIP3    H155589   4.717   3.520  15.878 -0.1811  0.6378  2.0976
11366TIP3    H255590   4.753   3.624  15.775  0.1923 -1.8928 -0.4640
11367TIP3   OH255591   3.353   0.069  10.399  0.1504  0.1094 -0.4013
11367TIP3    H155592   3.358  -0.014  10.352 -0.5290  0.0015 -0.2984
11367TIP3    H255593   3.273   0.062  10.451  0.0253  0.8755 -0.4737
11368TIP3   OH255594   1.809   5.724   1.542 -0.0310 -0.5217  0.0722
11368TIP3    H155595   1.818   5.676   1.460 -0.3047 -1.0091  0.3274
11368TIP3    H255596   1.782   5.812   1.515  0.2083 -0.5842 -0.3769
11369TIP3   OH255597   6.004   4.454  14.962 -0.0427 -0.1141 -0.4747
11369TIP3    H155598   5.913   4.431  14.939  0.2089 -2.2133  0.4264
11369TIP3    H255599   6.002   4.549  14.971 -2.4349 -0.1703  0.5949
11370TIP3   OH255600   3.706   0.263  10.224 -0.5462 -0.1540 -0.0559
11370TIP3    H155601   3.708   0.194  10.290  0.5845 -1.0034 -0.9400
11370TIP3    H255602   3.785   0.314  10.241  0.5045 -1.2185 -1.5901
11371TIP3   OH255603   6.391   0.082   4.087 -0.2524  0.0777  0.5561
11371TIP3    H155604   6.475   0.124   4.068 -0.7214  0.6513 -0.2798
11371TIP3    H255605   6.349   0.072   4.002 -1.7206  1.2262  1.1039
11372TIP3   OH255606   1.452   4.417   0.635  0.1785 -0.1214 -0.0150
11372TIP3    H155607   1.456   4.407   0.730 -1.1649 -0.1430  0.0598
11372TIP3    H255608   1.505   4.494   0.616  1.6274 -0.9360  0.5869
11373TIP3   OH255609   1.589   0.048   2.597  0.2431  0.0654 -0.5618
11373TIP3    H155610   1.573  -0.024   2.657 -1.1855  0.3847 -0.5299
11373TIP3    H255611   1.594   0.126   2.652 -1.4211  0.4099 -0.8296
11374TIP3   OH255612   4.811   2.630   2.910 -0.0239  0.2555 -0.0718
11374TIP3    H155613   4.850   2.561   2.855 -1.3308  0.7920 -1.7677
11374TIP3    H255614   4.724   2.598   2.930 -0.0710  0.7233  0.4796
11375TIP3   OH255615   1.565   2.687   5.403 -0.3359 -0.2917  0.6485
11375TIP3    H155616   1.655   2.678   5.373  0.0538 -2.3993  2.2292
11375TIP3    H255617   1.561   2.774   5.444  0.3332  0.7086 -1.2862
11376TIP3   OH255618   3.123   2.595   1.912 -0.2294 -0.4459 -0.3062
11376TIP3    H155619   3.112   2.643   1.831 -1.2117  0.3691  0.2942
11376TIP3    H255620   3.213   2.613   1.939 -0.0547 -0.3350 -0.9463
11377TIP3   OH255621   4.236   0.841   5.769 -0.2704  0.0511  0.2127
11377TIP3    H155622   4.287   0.765   5.744 -1.1178 -0.7336  0.7962
11377TIP3    H255623   4.294   0.892   5.826  0.1107 -0.4327  0.2580
11378TIP3   OH255624   4.442   6.845   1.666  0.0966  0.3364 -0.2619
11378TIP3    H155625   4.441   6.930   1.711  0.5639  0.7429 -1.0017
11378TIP3    H255626   4.528   6.841   1.625 -0.8341  0.6389 -2.3461
11379TIP3   OH255627   0.988   3.279   5.723  0.0060 -0.0881 -0.4872
11379TIP3    H155628   1.044   3.352   5.748 -1.9690  1.6847 -0.9267
11379TIP3    H255629   0.958   3.242   5.806  1.1952 -0.6120 -0.2624
11380TIP3   OH255630   4.561   5.385   3.897  0.0855  0.1290  0.2433
11380TIP3    H155631   4.579   5.460   3.840  0.5170  0.2404  0.5160
11380TIP3    H255632   4.593   5.413   3.983  1.4932 -0.8558  0.0770
11381TIP3   OH255633   0.391   2.851   2.044 -0.1770  0.2920  0.3773
11381TIP3    H155634   0.310   2.806   2.067  0.3821  0.0114  1.8660
11381TIP3    H255635   0.432   2.793   1.980 -0.6600 -0.0591  0.3740
11382TIP3   OH255636   5.108   2.555   1.897 -1.1734 -0.0726  0.7541
11382TIP3    H155637   5.099   2.464   1.925 -1.0320 -0.8504 -1.5602
11382TIP3    H255638   5.201   2.574   1.906 -1.0979 -0.3730  0.6118
11383TIP3   OH255639   6.713   1.358   5.731 -0.5364  0.2452 -0.0065
11383TIP3    H155640   6.648   1.417   5.692 -0.0866  1.3363  0.8489
11383TIP3    H255641   6.765   1.414   5.789 -0.4113 -1.0777  1.2305
11384TIP3   OH255642   0.196   4.948   6.368  0.5034  0.4181 -1.0259
11384TIP3    H155643   0.124   4.888   6.353 -0.9020  1.8937 -0.5328
11384TIP3    H255644   0.193   5.008   6.293  3.4232 -1.4451 -2.8235
11385TIP3   OH255645   2.294   4.366   6.158 -0.3903  0.0257 -0.6095
11385TIP3    H155646   2.346   4.292   6.190 -0.3106  0.5213  0.4665
11385TIP3    H255647   2.238   4.389   6.233  0.0974  1.4951 -0.6713
11386TIP3   OH255648   1.014   4.518   1.221  0.8392  0.2755 -0.4686
11386TIP3    H155649   1.078   4.587   1.238  0.0654  1.1220 -0.8581
11386TIP3    H255650   0.972   4.544   1.139  0.1477 -0.3686 -0.3348
11387TIP3   OH255651   0.209   4.296  16.071 -0.7926  0.0124  0.0931
11387TIP3    H155652   0.159   4.377  16.060 -1.6743 -0.4275  0.7357
11387TIP3    H255653   0.211   4.257  15.984 -1.1442  0.2914 -0.0436
11388TIP3   OH255654   6.335   2.243  16.976 -0.0520 -0.1296  0.2282
11388TIP3    H155655   6.241   2.228  16.979  0.2133 -2.0374  0.4682
11388TIP3    H255656   6.346   2.332  17.009 -1.8271  0.5382 -0.8507
11389TIP3   OH255657   3.383   0.451  15.832  0.2112 -0.0020 -0.3987
11389TIP3    H155658   3.401   0.445  15.926 -0.0758  0.5423 -0.3061
11389TIP3    H255659   3.296   0.414  15.821 -0.3851  1.2977 -0.2268
11390TIP3   OH255660   1.705   2.926  16.719 -0.3816 -0.2568 -0.4393
11390TIP3    H155661   1.694   2.892  16.807  2.4506  1.0537  0.5594
11390TIP3    H255662   1.772   2.870  16.680 -1.2849 -0.5469 -1.6094
11391TIP3   OH255663   1.258   5.174   3.757 -0.4468  0.6573  0.1624
11391TIP3    H155664   1.221   5.257   3.727  0.1866  1.4694  1.5476
11391TIP3    H255665   1.193   5.141   3.820 -2.5830 -1.8421 -3.0347
11392TIP3   OH255666   3.129   1.421  15.225 -0.2680  0.1536 -0.3458
11392TIP3    H155667   3.171   1.427  15.139 -0.0723 -0.9363 -0.3311
11392TIP3    H255668   3.118   1.513  15.251  0.4518  0.4941 -1.1499
11393TIP3   OH255669   5.400   6.022   0.449  0.7543 -0.3318 -1.0950
11393TIP3    H155670   5.475   6.017   0.389 -0.3623  0.5797 -2.6437
11393TIP3    H255671   5.402   6.111   0.482  1.1304 -0.7165 -0.0298
11394TIP3   OH255672   0.122   1.642   0.112 -0.4533 -0.1127  0.1220
11394TIP3    H155673   0.082   1.598   0.037 -0.8118  0.4720 -0.0268
11394TIP3    H255674   0.050   1.661   0.171 -0.3879  0.7976 -0.0751
11395TIP3   OH255675   1.961   5.925   2.082 -0.4499 -0.2130 -0.0776
11395TIP3    H155676   1.991   5.889   1.998 -0.1809 -0.6560  0.1977
11395TIP3    H255677   2.015   5.879   2.147 -1.1054 -0.3473  0.3740
11396TIP3   OH255678   1.622   1.481  13.166 -0.5064  0.5133 -0.0254
11396TIP3    H155679   1.639   1.504  13.257 -1.3297  0.7755  0.0644
11396TIP3    H255680   1.634   1.563  13.118 -0.2710  0.4188 -0.1303
11397TIP3   OH255681   1.441   3.135  11.898  0.4929  0.2982 -0.1432
11397TIP3    H155682   1.496   3.207  11.930  1.1353 -0.2417 -0.0243
11397TIP3    H255683   1.398   3.101  11.977 -0.8669  1.3963 -0.3599
11398TIP3   OH255684   4.255   1.697   1.918  0.3100 -0.1382 -0.4078
11398TIP3    H155685   4.219   1.769   1.970  0.2819 -0.9096  0.6635
11398TIP3    H255686   4.267   1.735   1.831 -0.0943  1.0424  0.0256
11399TIP3   OH255687   3.979   5.291   2.810 -0.8200  0.0443 -0.0152
11399TIP3    H155688   4.048   5.329   2.864 -1.4028  1.7377 -0.3950
11399TIP3    H255689   3.947   5.217   2.861 -0.2833  0.6284  1.2208
11400TIP3   OH255690   6.507   2.542   2.492 -0.0655  0.0882  0.1517
11400TIP3    H155691   6.550   2.506   2.570 -0.4780  0.5583  0.6042
11400TIP3    H255692   6.415   2.550   2.517  0.3497  3.7392  0.9798
11401TIP3   OH255693   6.333   5.830   6.003 -0.0213 -0.1427  0.8062
11401TIP3    H155694   6.344   5.766   5.932 -1.4988  0.7353 -0.2640
11401TIP3    H255695   6.417   5.829   6.049  0.8779 -0.9554 -0.7621
11402TIP3   OH255696   4.746   2.812   4.608  0.0015 -0.0164 -0.5280
11402TIP3    H155697   4.733   2.878   4.676  1.2647  0.4835 -0.7377
11402TIP3    H255698   4.675   2.827   4.545 -0.1555  0.6537 -0.1954
11403TIP3   OH255699   2.614   5.146   1.915 -0.2072  0.1388 -0.4766
11403TIP3    H155700   2.688   5.090   1.939  0.4659  1.8582  1.8456
11403TIP3    H255701   2.646   5.199   1.843  0.1137 -0.4928 -0.8060
11404TIP3   OH255702   3.020   4.262   3.862  0.1172  0.5048 -0.5786
11404TIP3    H155703   3.011   4.168   3.849  0.6397  0.3012  0.4280
11404TIP3    H255704   3.001   4.300   3.777 -1.0609 -0.4464 -0.7694
11405TIP3   OH255705   1.388   3.947  14.473  0.3267  0.5737 -0.5988
11405TIP3    H155706   1.325   3.988  14.413 -1.9717 -0.8828  0.6721
11405TIP3    H255707   1.373   3.990  14.556  0.9737  0.1707 -0.2703
11406TIP3   OH255708   6.231   3.628  16.492  0.5528 -0.1319 -0.0896
11406TIP3    H155709   6.219   3.533  16.498 -0.6023 -0.0594 -0.9786
11406TIP3    H255710   6.241   3.646  16.399 -1.1547  0.8014 -0.1340
11407TIP3   OH255711   5.724   3.516  12.015  0.0766  0.4336 -0.2937
11407TIP3    H155712   5.790   3.533  12.082 -0.9169  2.6858  0.2110
11407TIP3    H255713   5.722   3.420  12.007  1.1726  0.1555  1.9294
11408TIP3   OH255714   4.557   6.726   4.731 -0.3555 -0.2644 -0.4504
11408TIP3    H155715   4.521   6.699   4.646  0.1253 -1.9212 -0.1740
11408TIP3    H255716   4.605   6.649   4.761  0.4337  0.6925  0.8133
11409TIP3   OH255717   2.103   6.436   2.571  0.3192  1.0897 -0.3090
11409TIP3    H155718   2.051   6.456   2.649  1.7024 -0.1539  0.9910
11409TIP3    H255719   2.193   6.433   2.603  0.7212 -1.6406 -1.4795
11410TIP3   OH255720   3.962   3.493  11.056 -0.4667 -0.1885 -0.1730
11410TIP3    H155721   3.975   3.421  10.994  0.1652  0.5460 -0.9226
11410TIP3    H255722   4.003   3.463  11.137  0.2065 -0.4935 -0.6154
11411TIP3   OH255723   5.284   1.124   1.880 -0.8803 -0.1205 -0.1668
11411TIP3    H155724   5.234   1.058   1.927 -2.2775  0.0191 -1.3880
11411TIP3    H255725   5.321   1.180   1.949 -1.7594 -0.6955  0.7970
11412TIP3   OH255726   3.118   1.160   0.689 -0.2004  0.2182  0.4292
11412TIP3    H155727   3.136   1.253   0.705 -0.0046  0.0227  1.4000
11412TIP3    H255728   3.196   1.128   0.645 -0.0050  0.3770  0.6557
11413TIP3   OH255729   2.449   3.262   0.205 -0.2974  0.6986  0.6063
11413TIP3    H155730   2.513   3.193   0.191 -0.3003  0.7375  0.4086
11413TIP3    H255731   2.471   3.298   0.291 -0.1617  0.5972  0.6126
11414TIP3   OH255732   4.106   4.233   3.940 -0.0954  0.5072 -0.6254
11414TIP3    H155733   4.177   4.236   3.875 -0.1957  0.1805 -0.7543
11414TIP3    H255734   4.039   4.179   3.899 -0.4382  0.8489 -0.5188
11415TIP3   OH255735   1.953   1.998  13.113 -0.6736 -0.2800 -0.0597
11415TIP3    H155736   1.932   2.053  13.188 -0.6188  0.3421 -0.4851
11415TIP3    H255737   1.923   2.049  13.037  0.8961 -0.0801 -0.5745
11416TIP3   OH255738   0.767   0.235   0.153 -0.8348  0.1773  0.0864
11416TIP3    H155739   0.819   0.241   0.233  0.3822  0.7107 -0.7124
11416TIP3    H255740   0.757   0.141   0.138  0.0656  0.0537  0.1742
11417TIP3   OH255741   6.317   1.605   1.707 -0.1245  0.4119  0.4864
11417TIP3    H155742   6.329   1.609   1.802  2.6796  1.0934  0.1734
11417TIP3    H255743   6.387   1.547   1.676  0.2094  1.7027 -1.3227
11418TIP3   OH255744   3.223   0.798   3.919 -0.1765 -0.1916  0.4672
11418TIP3    H155745   3.142   0.842   3.946 -0.6574  0.2496 -1.5024
11418TIP3    H255746   3.288   0.868   3.917 -1.3429  1.1823 -4.4703
11419TIP3   OH255747   5.043   5.201   2.089 -0.0450 -0.1853  0.3151
11419TIP3    H155748   5.127   5.159   2.070  0.9924  1.6912  0.5775
11419TIP3    H255749   5.065   5.290   2.113 -2.1302  0.3531  0.4402
11420TIP3   OH255750   2.820   5.514  16.622  0.3021  0.0703 -0.0439
11420TIP3    H155751   2.761   5.455  16.574  0.8240 -0.0695 -0.5263
11420TIP3    H255752   2.774   5.533  16.703  0.4182 -1.5813  0.4463
11421TIP3   OH255753   0.647   4.751   2.186  0.1549  0.0178 -0.9651
11421TIP3    H155754   0.563   4.789   2.211  0.2266  1.6424 -2.9389
11421TIP3    H255755   0.656   4.674   2.242 -1.7633  0.8347  0.5806
11422TIP3   OH255756   6.593   5.445  15.568  0.2405  0.2853 -0.0759
11422TIP3    H155757   6.599   5.352  15.546  1.6344  0.0822  1.0655
11422TIP3    H255758   6.578   5.488  15.484  2.2436 -0.7386 -1.0369
11423TIP3   OH255759   5.496   4.961   4.494  0.7372  0.0959 -0.0362
11423TIP3    H155760   5.411   4.948   4.453  0.4960  0.4857  0.3270
11423TIP3    H255761   5.477   4.961   4.588  0.9071  1.6385  0.0267
11424TIP3   OH255762   0.036   1.475   5.021 -0.3411 -0.0853  0.0985
11424TIP3    H155763   0.005   1.386   5.035  0.3102 -0.0362  2.2413
11424TIP3    H255764   0.050   1.509   5.109 -0.7736  2.2215 -0.6621
11425TIP3   OH255765   4.217   0.207  13.149 -1.0987  0.1145 -0.2226
11425TIP3    H155766   4.174   0.165  13.074  0.8811  0.0249 -1.3636
11425TIP3    H255767   4.235   0.135  13.209 -3.7957  0.3437  0.9961
11426TIP3   OH255768   3.906   4.194   1.308  0.1930 -0.3947  0.3521
11426TIP3    H155769   3.910   4.145   1.225 -0.6063  0.0558  0.0426
11426TIP3    H255770   3.824   4.243   1.303 -0.2096 -0.8936  1.7170
11427TIP3   OH255771   2.384   6.361  16.338 -0.5044 -0.2921 -0.0029
11427TIP3    H155772   2.457   6.302  16.356  0.3019  1.1838  2.0376
11427TIP3    H255773   2.424   6.436  16.294 -0.9071  0.1575  0.3786
11428TIP3   OH255774   6.837   3.021  12.243 -0.1127 -0.2905 -0.2561
11428TIP3    H155775   6.776   3.095  12.241 -0.9317 -0.9754 -0.7622
11428TIP3    H255776   6.788   2.950  12.283  0.4450 -0.7698 -0.4187
11429TIP3   OH255777   1.456   4.493  11.329 -0.0678 -0.1953 -0.5869
11429TIP3    H155778   1.387   4.511  11.394  1.2352 -1.2334  1.1893
11429TIP3    H255779   1.489   4.579  11.304 -1.2393  0.2679 -0.6010
11430TIP3   OH255780   4.259   0.263   2.217 -0.6157  0.2014  0.4942
11430TIP3    H155781   4.326   0.228   2.275 -1.2232  0.0816  1.1269
11430TIP3    H255782   4.275   0.357   2.217 -0.1182  0.1235  0.2177
11431TIP3   OH255783   1.386   1.140   6.459 -0.2156  0.0931  0.2657
11431TIP3    H155784   1.311   1.164   6.514 -2.1828 -2.6243 -1.0300
11431TIP3    H255785   1.412   1.223   6.418 -2.5763  1.1440  0.6815
11432TIP3   OH255786   5.158   5.332   5.517 -0.5546  0.1639  0.1278
11432TIP3    H155787   5.092   5.386   5.474  1.0064  0.8293 -1.5650
11432TIP3    H255788   5.143   5.345   5.611 -1.6724  1.6802 -0.2311
11433TIP3   OH255789   0.858   6.530  15.731 -0.0873  0.0279  0.3361
11433TIP3    H155790   0.803   6.471  15.679  0.8564  1.0799 -2.0316
11433TIP3    H255791   0.800   6.565  15.798 -2.1207  0.4415 -1.5182
11434TIP3   OH255792   5.617   5.077  14.197 -0.6722 -1.3581 -0.2400
11434TIP3    H155793   5.701   5.044  14.229 -1.0050 -2.0345 -0.0345
11434TIP3    H255794   5.572   5.109  14.276 -0.0259  0.4087 -0.5352
11435TIP3   OH255795   2.583   3.039   3.611  0.6022 -0.4788 -0.5547
11435TIP3    H155796   2.553   3.037   3.702 -1.6650  0.3327 -1.2275
11435TIP3    H255797   2.614   2.950   3.594 -1.4279 -1.3901  0.2587
11436TIP3   OH255798   0.817   5.120  12.906 -0.0213  0.5267 -0.5843
11436TIP3    H155799   0.758   5.140  12.833 -0.5155  0.6675 -0.1527
11436TIP3    H255800   0.761   5.124  12.984  0.4958  0.3566 -0.1990
11437TIP3   OH255801   6.083   1.790   2.853 -0.0202 -0.1299  0.6783
11437TIP3    H155802   6.048   1.792   2.764 -1.1885  2.0690  1.1161
11437TIP3    H255803   6.178   1.798   2.842 -0.2109  0.9816 -0.3733
11438TIP3   OH255804   4.417   1.059   2.976  0.1574 -0.1854  0.1896
11438TIP3    H155805   4.497   1.056   3.028  0.1729 -1.1393  0.1156
11438TIP3    H255806   4.390   0.968   2.968 -0.7609  0.1007 -0.0622
11439TIP3   OH255807   1.069   3.232  13.993 -0.4669  0.0614 -0.2671
11439TIP3    H155808   1.134   3.171  13.958  0.0009  0.4861 -0.1451
11439TIP3    H255809   1.064   3.211  14.086 -1.2196 -0.6162 -0.4441
11440TIP3   OH255810   0.754   1.775  16.619 -0.2763  0.5771  0.3988
11440TIP3    H155811   0.757   1.679  16.615  0.5979  0.6214 -2.4899
11440TIP3    H255812   0.744   1.795  16.712 -0.6071 -2.3029  1.0812
11441TIP3   OH255813   3.352   5.254  15.160 -0.8216  0.1235  0.5940
11441TIP3    H155814   3.401   5.246  15.078 -1.1032 -0.3465  0.4710
11441TIP3    H255815   3.417   5.287  15.222  0.0566 -1.8125  0.7772
11442TIP3   OH255816   0.575   6.045   4.502 -0.4007 -0.1575 -0.7745
11442TIP3    H155817   0.622   5.963   4.509  2.0822  1.2462  0.2070
11442TIP3    H255818   0.588   6.089   4.586 -1.4602  1.3452 -1.3323
11443TIP3   OH255819   1.658   3.912  15.826 -0.0595  0.2551 -0.1717
11443TIP3    H155820   1.729   3.977  15.823 -0.0686  0.2509 -1.8743
11443TIP3    H255821   1.647   3.886  15.734 -1.1002 -1.0243  0.2966
11444TIP3   OH255822   6.325   3.824   1.344 -0.5013 -0.1282 -0.3273
11444TIP3    H155823   6.263   3.896   1.356  0.3206  0.3651  1.1541
11444TIP3    H255824   6.400   3.863   1.299 -0.6017 -0.3723 -0.7137
11445TIP3   OH255825   1.329   2.061   4.035  0.1665 -0.4500  0.5874
11445TIP3    H155826   1.405   2.007   4.059  1.8575  0.1103 -2.8024
11445TIP3    H255827   1.346   2.145   4.076  0.3182 -0.9149  1.5034
11446TIP3   OH255828   0.825   4.375  13.711 -0.2564  0.4790  0.0835
11446TIP3    H155829   0.812   4.324  13.791 -1.6109 -0.5120 -0.7191
11446TIP3    H255830   0.917   4.400  13.712  0.2087 -1.1647  0.9958
11447TIP3   OH255831   6.483   1.581   2.334 -0.0556 -0.3279  0.1948
11447TIP3    H155832   6.466   1.660   2.386 -0.1294  0.2495 -0.6830
11447TIP3    H255833   6.438   1.597   2.251  1.5091 -0.4548 -0.7106
11448TIP3   OH255834   4.450   1.091  14.254 -0.0172  0.0773 -0.4399
11448TIP3    H155835   4.375   1.053  14.298 -0.3676 -0.0204 -1.1058
11448TIP3    H255836   4.526   1.060  14.304 -0.2650 -1.7014 -1.1066
11449TIP3   OH255837   2.757   0.278  16.184 -0.6117 -0.0810 -0.4167
11449TIP3    H155838   2.799   0.295  16.268 -2.5959  2.0348  0.2520
11449TIP3    H255839   2.802   0.334  16.121  0.6419 -1.4076 -0.7673
11450TIP3   OH255840   0.633   2.272  16.462  0.1799  0.6243 -0.5532
11450TIP3    H155841   0.584   2.277  16.544 -0.0641  3.1412 -0.7754
11450TIP3    H255842   0.693   2.199  16.475 -0.0731  0.7433  1.7513
11451TIP3   OH255843   6.456   4.767   3.316 -0.9301  0.3886  0.0226
11451TIP3    H155844   6.404   4.689   3.335 -1.4433  0.8985  0.7821
11451TIP3    H255845   6.470   4.764   3.221 -1.4406 -0.3163 -0.0392
11452TIP3   OH255846   6.489   2.500   0.854 -0.1708  0.2054 -0.2224
11452TIP3    H155847   6.553   2.478   0.786 -2.3585  0.4783 -2.5349
11452TIP3    H255848   6.426   2.428   0.851 -1.9435  1.7059 -0.7003
11453TIP3   OH255849   0.179   5.553  15.992  0.2118 -0.1131  0.1483
11453TIP3    H155850   0.162   5.462  15.968 -2.0940  0.2786  0.0465
11453TIP3    H255851   0.273   5.556  16.011  0.2216 -2.6535  0.8415
11454TIP3   OH255852   0.173   2.078  13.168  0.0956 -0.2315 -0.0227
11454TIP3    H155853   0.202   2.096  13.258 -1.4604  0.4269  0.3782
11454TIP3    H255854   0.215   1.995  13.145  0.0044 -0.7449  1.5519
11455TIP3   OH255855   3.535   0.991   0.913  0.2735 -0.4541 -0.0387
11455TIP3    H155856   3.540   1.007   1.007  0.3844 -0.1409 -0.0978
11455TIP3    H255857   3.619   1.020   0.878 -0.3272  0.8666 -0.4463
11456TIP3   OH255858   0.446   0.837  14.936 -0.4795  0.2635 -0.3087
11456TIP3    H155859   0.436   0.927  14.969 -1.1619  0.8529 -2.0540
11456TIP3    H255860   0.367   0.820  14.885 -1.2656 -2.0533  1.4913
11457TIP3   OH255861   4.500   5.313  14.019 -0.2828 -0.2051  0.5114
11457TIP3    H155862   4.422   5.296  13.966  1.1211 -1.0708 -1.3619
11457TIP3    H255863   4.558   5.239  14.002  0.9818  0.4089  1.8656
11458TIP3   OH255864   2.218   5.855   0.600 -0.0287  0.2824  0.4396
11458TIP3    H155865   2.150   5.923   0.603 -1.6160 -1.2264  0.2140
11458TIP3    H255866   2.265   5.872   0.519 -0.4791  1.0367  0.3230
11459TIP3   OH255867   1.382   3.971   3.178  0.1393  0.2149 -0.4653
11459TIP3    H155868   1.347   4.059   3.192  0.9725  0.5716 -0.5503
11459TIP3    H255869   1.466   3.971   3.224  0.2329 -0.4768 -0.6226
11460TIP3   OH255870   1.157   5.411  14.918 -0.2853 -0.1224  0.0754
11460TIP3    H155871   1.130   5.478  14.980  0.7796 -0.0296  0.4592
11460TIP3    H255872   1.140   5.449  14.832  1.5105  1.2127  0.2496
11461TIP3   OH255873   4.717   1.775   1.926  0.2534 -0.4406  0.4763
11461TIP3    H155874   4.694   1.774   2.019  3.2341 -0.9416  1.3354
11461TIP3    H255875   4.693   1.863   1.897  2.5463  1.0905  2.7789
11462TIP3   OH255876   2.889   0.553  14.224  0.2076 -0.2251 -0.4151
11462TIP3    H155877   2.826   0.568  14.294  0.5367  0.0130 -0.1662
11462TIP3    H255878   2.954   0.622  14.235  1.9281 -1.9271  0.9321
11463TIP3   OH255879   1.323   3.693  15.475 -0.6172  0.2795 -0.2656
11463TIP3    H155880   1.394   3.746  15.438  0.4009  0.0062  1.1983
11463TIP3    H255881   1.247   3.752  15.477 -0.0191  1.0723 -0.4404
11464TIP3   OH255882   6.607   3.941   0.002 -0.1540 -0.2525  0.2803
11464TIP3    H155883   6.700   3.925  -0.012 -0.2159 -0.2820 -0.0910
11464TIP3    H255884   6.562   3.882  -0.058 -0.3985  0.4605 -0.2552
11465TIP3   OH255885   6.713   1.789  11.875  0.8248 -0.7741 -0.6190
11465TIP3    H155886   6.720   1.708  11.824  1.4813 -1.1483  0.0515
11465TIP3    H255887   6.739   1.764  11.964 -0.0906 -0.0851 -0.1405
11466TIP3   OH255888   4.468   6.821  16.184 -0.1211  0.1941  0.6159
11466TIP3    H155889   4.474   6.828  16.279 -1.0944  0.2280  0.6813
11466TIP3    H255890   4.508   6.737  16.163 -0.0142  0.1318  1.0643
11467TIP3   OH255891   3.431   1.732  13.262  0.0436 -0.1437 -0.4925
11467TIP3    H155892   3.486   1.694  13.330 -1.3324 -0.8328  0.2680
11467TIP3    H255893   3.418   1.661  13.199 -1.2654 -0.4967  0.1464
11468TIP3   OH255894   5.960   5.465   3.558 -0.0621  0.2123 -0.1846
11468TIP3    H155895   5.954   5.392   3.497  1.5791 -1.6455  1.7443
11468TIP3    H255896   5.869   5.487   3.578 -0.6277  0.4444 -2.6949
11469TIP3   OH255897   2.551   3.099   5.249 -0.3348 -0.2862  0.6402
11469TIP3    H155898   2.535   3.193   5.251 -0.7593 -0.3488  0.2901
11469TIP3    H255899   2.478   3.062   5.299 -2.1376 -0.6773 -2.0926
11470TIP3   OH255900   2.868   3.528   4.566  0.4275 -0.0731  0.3781
11470TIP3    H155901   2.818   3.455   4.601  1.2872 -0.3509  1.0592
11470TIP3    H255902   2.831   3.542   4.478  0.0524 -1.1267  0.3486
11471TIP3   OH255903   3.951   5.458   4.921 -0.5746  0.2758 -0.0336
11471TIP3    H155904   4.021   5.485   4.981 -0.9558 -1.2104  1.1532
11471TIP3    H255905   3.940   5.364   4.938 -0.6372 -0.2363 -2.5479
11472TIP3   OH255906   5.720   2.218   3.937  0.3502 -0.5097 -0.4218
11472TIP3    H155907   5.730   2.234   3.843 -0.9469  0.9468 -0.3628
11472TIP3    H255908   5.673   2.135   3.942  0.5131 -0.6475 -1.0475
11473TIP3   OH255909   1.526   1.966  10.890  0.5983  0.2878 -0.4554
11473TIP3    H155910   1.513   2.048  10.936  1.3382  0.8739 -1.2562
11473TIP3    H255911   1.440   1.944  10.855 -0.1300 -0.4976  1.6557
11474TIP3   OH255912   1.354   0.996   5.317 -0.0146 -0.0030 -1.0282
11474TIP3    H155913   1.346   1.018   5.224  0.1112  0.9278 -0.8267
11474TIP3    H255914   1.391   0.907   5.317  2.4439  0.9271 -1.8874
11475TIP3   OH255915   4.070   1.818   0.642 -0.4502  0.4180 -0.2656
11475TIP3    H155916   4.101   1.796   0.730  0.0260  0.7384 -0.3497
11475TIP3    H255917   4.061   1.734   0.598 -2.0257  0.1370  0.5161
11476TIP3   OH255918   5.704   3.933  12.248 -0.2748 -0.1060 -0.7153
11476TIP3    H155919   5.668   4.010  12.292 -0.7199 -0.2855 -0.7619
11476TIP3    H255920   5.713   3.867  12.318 -1.2036 -0.4692 -0.9251
11477TIP3   OH255921   5.674   1.681  12.958  0.0758 -0.1203 -0.0860
11477TIP3    H155922   5.590   1.718  12.988  1.4494  1.9803  1.5104
11477TIP3    H255923   5.683   1.600  13.008 -0.6370  0.0854  0.4001
11478TIP3   OH255924   0.898   0.461   3.135 -0.2485  0.2398 -0.0105
11478TIP3    H155925   0.914   0.368   3.152 -0.3258  0.1369 -0.4915
11478TIP3    H255926   0.906   0.503   3.221  2.4771  0.1919 -0.1323
11479TIP3   OH255927   6.546   1.654   0.447  0.1937  0.6358 -0.1299
11479TIP3    H155928   6.528   1.743   0.477  1.8472  0.7602  0.5996
11479TIP3    H255929   6.572   1.607   0.526  0.1196 -0.2852 -0.6436
11480TIP3   OH255930   1.605   5.225   1.947 -0.1398 -0.1174 -0.0426
11480TIP3    H155931   1.638   5.145   1.905  2.0195  0.6558  0.0550
11480TIP3    H255932   1.532   5.195   2.001  0.3943 -1.9649 -0.2745
11481TIP3   OH255933   0.864   1.220   5.243 -0.1386 -0.2668 -0.4796
11481TIP3    H155934   0.941   1.169   5.270 -0.4640  0.8511  3.0620
11481TIP3    H255935   0.899   1.295   5.195  1.0530  0.3120  1.2344
11482TIP3   OH255936   6.085   2.718  12.180  0.3453 -0.1805  0.0299
11482TIP3    H155937   6.130   2.684  12.258  0.7375 -0.7389 -0.4285
11482TIP3    H255938   6.145   2.700  12.108  0.7127  1.8100 -0.2088
11483TIP3   OH255939   4.877   3.498   4.169 -0.2430 -0.1058 -0.0749
11483TIP3    H155940   4.940   3.478   4.239 -0.3813  1.0402  0.4001
11483TIP3    H255941   4.883   3.593   4.158 -1.8098  0.0159 -0.1032
11484TIP3   OH255942   6.116   3.638   2.286 -0.0807 -0.0506  0.0592
11484TIP3    H155943   6.149   3.631   2.376  1.8532 -2.3236 -0.7164
11484TIP3    H255944   6.157   3.564   2.240 -0.3108  1.5412 -2.9178
11485TIP3   OH255945   6.165   5.039   0.034 -0.9358 -0.1211  0.3137
11485TIP3    H155946   6.206   4.953   0.022  0.3871  0.5414 -0.1153
11485TIP3    H255947   6.071   5.022   0.022 -0.6011 -1.2873 -1.0595
11486TIP3   OH255948   0.410   2.816   4.276 -0.0239  0.1676 -0.4816
11486TIP3    H155949   0.496   2.777   4.256 -0.2609 -0.5462 -0.1502
11486TIP3    H255950   0.413   2.832   4.371 -0.0118  0.7671 -0.5810
11487TIP3   OH255951   2.032   0.925  12.350 -0.2564 -0.0010 -0.0006
11487TIP3    H155952   2.071   0.842  12.376  0.0232  0.4675  1.1208
11487TIP3    H255953   2.068   0.943  12.263  0.3267 -0.6407  0.1061
11488TIP3   OH255954   2.760   1.445   2.796  0.3560 -0.1649 -0.6353
11488TIP3    H155955   2.829   1.414   2.855 -0.8456 -0.8990  0.4686
11488TIP3    H255956   2.707   1.367   2.778  0.9221 -0.0589 -3.1055
11489TIP3   OH255957   1.393   0.742  15.908  0.5945  0.0001  0.3536
11489TIP3    H155958   1.403   0.813  15.971  0.9230  0.8653 -0.6422
11489TIP3    H255959   1.458   0.676  15.933  1.3165  0.7249  0.4004
11490TIP3   OH255960   4.832   0.944  11.945 -0.1050 -0.2668  0.0741
11490TIP3    H155961   4.842   0.862  11.897 -1.2372 -0.4660  0.1523
11490TIP3    H255962   4.757   0.987  11.904 -1.1589 -0.4845  1.7005
11491TIP3   OH255963   2.125   2.615   1.731  0.3948 -0.6887  0.6709
11491TIP3    H155964   2.211   2.648   1.703 -0.0410  1.3441  1.5052
11491TIP3    H255965   2.111   2.536   1.680  1.9270 -0.0014 -0.8982
11492TIP3   OH255966   1.342   1.956   2.813 -0.3129 -0.0725  0.3906
11492TIP3    H155967   1.387   2.014   2.752  1.4291 -1.2015  0.5327
11492TIP3    H255968   1.341   1.870   2.770  0.4026 -0.7522  1.6489
11493TIP3   OH255969   0.075   4.543  13.088 -0.4839 -0.1163 -0.1483
11493TIP3    H155970   0.146   4.588  13.135 -1.2405  0.0493  0.8626
11493TIP3    H255971   0.117   4.508  13.010  0.5386  0.7049  0.0101
11494TIP3   OH255972   1.474   0.883   4.118  0.5146 -0.0557  0.2641
11494TIP3    H155973   1.481   0.792   4.087  0.5503  0.1026 -0.2007
11494TIP3    H255974   1.521   0.884   4.201  0.4857 -0.4728  0.2881
11495TIP3   OH255975   1.162   3.796   4.736 -0.4375  0.1791 -0.0038
11495TIP3    H155976   1.119   3.759   4.659  0.6072 -2.1512  0.4388
11495TIP3    H255977   1.255   3.792   4.716 -0.0756 -1.4443  1.7009
11496TIP3   OH255978   1.998   5.403   1.580 -0.0920 -0.0997  0.4638
11496TIP3    H155979   2.044   5.477   1.619  1.0009 -0.6285  0.2063
11496TIP3    H255980   2.029   5.326   1.629 -1.7505 -0.3366  1.2140
11497TIP3   OH255981   2.474   4.172   0.803  0.3178 -0.2435  0.1200
11497TIP3    H155982   2.454   4.266   0.805  0.7166 -0.1775  2.1262
11497TIP3    H255983   2.426   4.140   0.726 -0.9342  1.3490  0.1747
11498TIP3   OH255984   5.135   6.635   6.444  0.4469 -0.3134  0.5629
11498TIP3    H155985   5.099   6.699   6.381  0.7180 -0.9281 -0.2332
11498TIP3    H255986   5.112   6.671   6.530 -0.4147  0.2695  0.1066
11499TIP3   OH255987   2.596   6.409   2.173  0.4660 -0.0675 -0.9838
11499TIP3    H155988   2.688   6.426   2.195  0.0012  0.2209  0.8929
11499TIP3    H255989   2.551   6.405   2.257 -1.5813  1.6891 -1.8962
11500TIP3   OH255990   2.828   4.305   4.121 -0.1317 -0.6307 -0.4141
11500TIP3    H155991   2.798   4.295   4.031 -0.6897 -0.6370 -0.2339
11500TIP3    H255992   2.883   4.228   4.138  1.0617  0.0248 -1.1627
11501TIP3   OH255993   5.296   3.847  11.498  0.7118 -0.4620  0.0962
11501TIP3    H155994   5.376   3.803  11.468  0.6953  0.0263 -0.6847
11501TIP3    H255995   5.252   3.873  11.418 -0.0456 -0.3813  0.5335
11502TIP3   OH255996   0.865   3.332  11.794 -0.3338  0.3224  0.0052
11502TIP3    H155997   0.786   3.288  11.823  0.6860 -3.2057 -2.0478
11502TIP3    H255998   0.852   3.347  11.700  1.1862  0.1516 -0.2613
11503TIP3   OH255999   0.768   4.444  11.596  0.3339  0.1758  0.3867
11503TIP3    H156000   0.828   4.452  11.521 -0.0747  0.1433  0.0539
11503TIP3    H256001   0.741   4.533  11.616 -0.7165  0.0686 -0.4609
11504TIP3   OH256002   1.271   0.501  15.061  0.4376  0.4319 -0.3819
11504TIP3    H156003   1.273   0.524  14.968  0.1555 -0.1991 -0.5512
11504TIP3    H256004   1.240   0.580  15.105  1.6838  1.1129 -0.6906
11505TIP3   OH256005   1.307   2.503  11.296 -0.4737 -0.2451  0.2619
11505TIP3    H156006   1.307   2.570  11.365 -0.7911  0.2388 -0.2028
11505TIP3    H256007   1.218   2.502  11.263  0.0672  0.7951 -1.3439
11506TIP3   OH256008   3.946   3.512   2.299 -0.2044  0.2049  0.0446
11506TIP3    H156009   3.992   3.494   2.381  0.7771  1.9274 -0.0643
11506TIP3    H256010   3.923   3.605   2.305  0.5738  0.5787 -1.9106
11507TIP3   OH256011   5.739   0.211   2.939 -0.0203 -0.2383  0.0296
11507TIP3    H156012   5.769   0.191   3.028  0.3706  1.8818  0.4135
11507TIP3    H256013   5.644   0.222   2.947  0.1538  1.1694  0.4749
11508TIP3   OH256014   3.255   3.633  14.165 -0.4516  0.2200  0.4112
11508TIP3    H156015   3.286   3.627  14.075 -1.3637 -0.1991  0.1129
11508TIP3    H256016   3.175   3.686  14.159 -1.3811 -1.1034  0.7299
11509TIP3   OH256017   6.170   3.763  13.557 -0.3707  0.0502 -0.0273
11509TIP3    H156018   6.095   3.705  13.563  0.2697 -1.2052 -2.6635
11509TIP3    H256019   6.217   3.750  13.639 -1.1861 -1.8243  0.1938
11510TIP3   OH256020   2.178   4.374   5.612  0.7645  0.0503  0.1320
11510TIP3    H156021   2.107   4.337   5.560  1.3023  0.8899 -1.2385
11510TIP3    H256022   2.239   4.301   5.625  0.4773 -0.2386 -0.1276
11511TIP3   OH256023   0.035   4.319  14.646  0.5321  0.3553 -0.0563
11511TIP3    H156024   0.085   4.317  14.728  0.6722  0.6507 -0.1339
11511TIP3    H256025  -0.020   4.397  14.654  0.6224  0.4419 -0.2893
11512TIP3   OH256026   5.592   0.883   2.989 -0.4303  0.4524  0.2936
11512TIP3    H156027   5.673   0.922   2.957 -0.3607  0.8826  0.9739
11512TIP3    H256028   5.574   0.928   3.072 -1.0101 -0.1015  0.4822
11513TIP3   OH256029   1.471   5.010  15.321 -0.3906  0.0360 -0.2084
11513TIP3    H156030   1.531   5.074  15.361 -0.9080 -0.2889  1.1387
11513TIP3    H256031   1.386   5.054  15.321 -0.8051 -0.7423  0.9870
11514TIP3   OH256032   4.552   1.119  16.721 -0.2234 -0.0729 -0.3989
11514TIP3    H156033   4.581   1.197  16.767 -1.3307 -0.6032  1.2919
11514TIP3    H256034   4.465   1.142  16.687 -0.3045 -0.3629 -0.3967
11515TIP3   OH256035   6.346   0.756   3.064  0.2620 -0.4206 -0.3813
11515TIP3    H156036   6.251   0.753   3.049  0.5351 -0.7085 -2.2932
11515TIP3    H256037   6.356   0.726   3.155 -1.4707 -0.2858 -0.0976
11516TIP3   OH256038   2.074   3.417   4.041  0.2560  0.2656  0.2645
11516TIP3    H156039   2.136   3.345   4.051 -0.1627 -0.4026 -1.4748
11516TIP3    H256040   2.018   3.411   4.118  1.0986 -0.3729  0.8571
11517TIP3   OH256041   5.248   6.611   5.694 -0.2451  0.0567 -0.4015
11517TIP3    H156042   5.179   6.618   5.760 -0.2594  1.8911 -0.5702
11517TIP3    H256043   5.210   6.651   5.615  1.0181  1.1953 -0.4588
11518TIP3   OH256044   4.606   2.806  11.558  0.0658  0.0670 -0.1203
11518TIP3    H156045   4.652   2.722  11.557 -0.0453  0.0056 -0.6803
11518TIP3    H256046   4.659   2.864  11.503  0.0957  0.3369  0.1916
11519TIP3   OH256047   5.624   3.342   0.769 -0.5806  0.5232  0.0001
11519TIP3    H156048   5.574   3.393   0.833 -0.2619  0.6697  0.1365
11519TIP3    H256049   5.715   3.362   0.789 -0.4458 -0.1917  0.1376
11520TIP3   OH256050   6.222   0.652  14.251 -0.1435  0.3196  0.3911
11520TIP3    H156051   6.198   0.607  14.332 -1.1660 -0.6998 -0.4410
11520TIP3    H256052   6.212   0.585  14.182  3.8913  0.1048 -0.2727
11521TIP3   OH256053   1.548   4.170   2.094  0.1482  0.1032  0.2032
11521TIP3    H156054   1.560   4.086   2.139  0.4706  0.8306  1.5477
11521TIP3    H256055   1.457   4.194   2.111 -0.2420 -0.4309 -1.0391
11522TIP3   OH256056   6.363   6.012   5.755 -0.1243  0.1356 -0.5805
11522TIP3    H156057   6.365   5.959   5.834  0.6664 -0.4900 -1.0077
11522TIP3    H256058   6.419   5.965   5.693  0.2847  1.2671 -1.0968
11523TIP3   OH256059   5.706   6.831   1.541 -0.6484 -1.0077  0.3243
11523TIP3    H156060   5.717   6.885   1.619  0.3035 -0.3269 -0.2590
11523TIP3    H256061   5.731   6.743   1.569  1.5141 -0.4377  0.3672
11524TIP3   OH256062   2.530   3.976   3.641 -0.0788  0.3251  0.4781
11524TIP3    H156063   2.575   4.017   3.567  0.4321 -0.4742  0.3273
11524TIP3    H256064   2.485   3.900   3.602  0.0270  0.0173  0.9469
11525TIP3   OH256065   0.798   5.254   3.152 -0.3674 -0.7575 -0.2784
11525TIP3    H156066   0.770   5.320   3.088  2.0167 -0.7023 -1.3741
11525TIP3    H256067   0.762   5.285   3.236  0.2382  1.7000 -0.8430
11526TIP3   OH256068   1.937   5.604  14.183  0.7672  0.4395  0.4203
11526TIP3    H156069   2.013   5.604  14.241  0.7823 -1.0522  0.4571
11526TIP3    H256070   1.951   5.678  14.124  1.6691  0.8679  1.1496
11527TIP3   OH256071   1.327   1.299  13.328  0.3401  0.4263  0.0466
11527TIP3    H156072   1.234   1.308  13.307  0.3297 -1.9134 -1.2697
11527TIP3    H256073   1.346   1.374  13.385 -2.4011  0.8083  0.6120
11528TIP3   OH256074   6.745   1.983   3.615 -0.3092 -0.1567 -0.0697
11528TIP3    H156075   6.796   2.001   3.694 -1.3620  0.3158  0.5281
11528TIP3    H256076   6.723   1.890   3.622  0.3625 -0.3343 -0.2735
11529TIP3   OH256077   5.985   3.848   0.987 -0.5074  0.7296  0.0986
11529TIP3    H156078   5.941   3.772   1.025 -0.8512  0.8579 -0.0438
11529TIP3    H256079   6.022   3.895   1.062 -0.3015  0.4294  0.1877
11530TIP3   OH256080   0.169   5.820   0.586  0.1906  0.4582  0.3136
11530TIP3    H156081   0.209   5.907   0.596 -0.1589  0.8718 -1.4908
11530TIP3    H256082   0.234   5.771   0.535  0.1141 -0.1475  0.7951
11531TIP3   OH256083   6.818   2.417   4.940 -0.0426 -0.1135  0.2400
11531TIP3    H156084   6.887   2.476   4.908 -0.0700 -0.1954  0.0295
11531TIP3    H256085   6.802   2.447   5.029  0.6426 -0.4313  0.4771
11532TIP3   OH256086   5.788   2.301   3.661  0.0019  0.0870 -0.1465
11532TIP3    H156087   5.710   2.270   3.615 -0.0170 -1.2957  0.7679
11532TIP3    H256088   5.859   2.245   3.629 -0.0257 -0.9592  1.4902
11533TIP3   OH256089   6.285   1.173  14.870  0.4831  0.3018  0.4473
11533TIP3    H156090   6.261   1.222  14.792 -0.5113 -0.0072  0.5472
11533TIP3    H256091   6.257   1.228  14.943 -0.4120 -0.2781  0.5591
11534TIP3   OH256092   0.200   0.914  13.177  0.6185 -0.0261 -0.2587
11534TIP3    H156093   0.178   0.822  13.161 -1.7858  0.5318 -0.5993
11534TIP3    H256094   0.223   0.918  13.270 -0.1034 -0.8373 -0.0359
11535TIP3   OH256095   3.235   6.763   2.600 -0.2142  0.5634  0.1587
11535TIP3    H156096   3.218   6.670   2.613 -2.2815  0.7619 -0.7286
11535TIP3    H256097   3.326   6.767   2.571 -0.4028 -1.2819 -0.8498
11536TIP3   OH256098   0.839   1.523   3.480  0.7390 -0.0475 -0.0500
11536TIP3    H156099   0.921   1.571   3.474  1.5232 -1.4657 -1.3236
11536TIP3    H256100   0.837   1.488   3.569  2.2871 -1.2851 -0.4714
11537TIP3   OH256101   4.930   3.752  11.285 -0.0361  0.6517  0.1224
11537TIP3    H156102   4.847   3.744  11.331 -0.4183  0.0984 -0.6272
11537TIP3    H256103   4.920   3.830  11.231  0.4242  1.3187  0.9840
11538TIP3   OH256104   6.322   1.352  13.126  0.8439 -0.2564  0.1479
11538TIP3    H156105   6.245   1.309  13.163  1.3565 -1.2071  0.1535
11538TIP3    H256106   6.393   1.289  13.141  1.3814  0.0762 -0.9467
11539TIP3   OH256107   1.504   1.362   2.898  0.1700 -0.2834 -0.9279
11539TIP3    H156108   1.537   1.359   2.808  1.2373  0.7544 -0.6065
11539TIP3    H256109   1.488   1.455   2.913 -2.5753 -0.6862 -0.9043
11540TIP3   OH256110   2.912   2.372   3.466  0.2993 -0.0415 -0.3857
11540TIP3    H156111   2.935   2.327   3.547  0.0331 -2.0653 -1.3569
11540TIP3    H256112   2.840   2.431   3.490 -0.5835 -1.4815  0.6543
11541TIP3   OH256113   5.315   0.457  15.303  0.4694 -0.1897 -0.1420
11541TIP3    H156114   5.241   0.510  15.331  1.0788 -1.0236  3.5646
11541TIP3    H256115   5.392   0.505  15.333  1.2269 -1.2693 -0.3115
11542TIP3   OH256116   1.717   4.167  10.228 -0.2540 -0.3332 -0.3020
11542TIP3    H156117   1.779   4.212  10.171  0.3266 -0.6172  0.0886
11542TIP3    H256118   1.759   4.083  10.247 -1.8132 -1.5937 -1.9771
11543TIP3   OH256119   4.186   3.979  12.557 -0.0472 -0.3478  0.0103
11543TIP3    H156120   4.222   3.895  12.584 -0.2582 -0.6664 -0.6850
11543TIP3    H256121   4.263   4.035  12.546 -0.0093  0.4989  3.4008
11544TIP3   OH256122   6.539   4.880  10.585  0.1053 -0.3612 -0.5778
11544TIP3    H156123   6.445   4.864  10.581  0.2925 -2.4124  1.2826
11544TIP3    H256124   6.555   4.949  10.521 -2.5336 -0.5081 -1.4891
11545TIP3   OH256125   5.525   0.142  14.263 -0.5832 -0.0963 -0.3859
11545TIP3    H156126   5.471   0.099  14.330  2.4035 -2.4763  0.7465
11545TIP3    H256127   5.559   0.220  14.306 -2.0007  0.6856 -0.6458
11546TIP3   OH256128   4.679   4.263   2.528  0.1683  0.2977  0.0853
11546TIP3    H156129   4.672   4.350   2.567  0.3410  0.7990 -0.9687
11546TIP3    H256130   4.610   4.261   2.461  1.1034  0.1884 -0.9119
11547TIP3   OH256131   6.603   5.399  16.178  0.1057  0.2350  0.0515
11547TIP3    H156132   6.573   5.373  16.266 -0.1830  1.7704  0.4347
11547TIP3    H256133   6.695   5.424  16.191 -0.1565  1.2177  0.0988
11548TIP3   OH256134   6.089   1.381  12.930 -0.2425  0.1304  0.3023
11548TIP3    H156135   6.173   1.345  12.957 -0.1945  0.3361  0.4230
11548TIP3    H256136   6.044   1.401  13.012 -1.0930 -1.5430  0.3058
11549TIP3   OH256137   1.741   6.382  12.878 -0.2057  0.0202 -0.5174
11549TIP3    H156138   1.746   6.327  12.956 -0.8385  0.8187  0.0878
11549TIP3    H256139   1.724   6.470  12.910  0.6360  0.5678 -1.4932
11550TIP3   OH256140   2.667   6.742   5.402 -0.4267  0.0087 -0.0694
11550TIP3    H156141   2.739   6.795   5.369  0.2591 -0.8957 -0.0815
11550TIP3    H256142   2.589   6.777   5.359 -0.2012  1.8234  0.8956
11551TIP3   OH256143   4.389   2.762  16.471 -0.0096  0.2437  0.3743
11551TIP3    H156144   4.384   2.844  16.423 -2.0109  0.8501  1.5171
11551TIP3    H256145   4.472   2.723  16.443  0.1580  1.8045 -1.4996
11552TIP3   OH256146   6.525   2.581   1.684 -0.2389 -0.5110 -0.1719
11552TIP3    H156147   6.503   2.536   1.765  1.4775 -1.9987 -0.4662
11552TIP3    H256148   6.441   2.609   1.648 -1.2594 -2.1352  0.8319
11553TIP3   OH256149   0.605   5.085  14.909 -0.0608 -0.6545 -0.6441
11553TIP3    H156150   0.621   5.002  14.954 -2.1371 -0.6562  0.2018
11553TIP3    H256151   0.593   5.149  14.980 -1.0436 -0.1818 -1.2083
11554TIP3   OH256152   5.094   5.644  16.711  0.1210 -0.4752 -0.3310
11554TIP3    H156153   5.112   5.731  16.745  1.1557 -0.9773  0.4792
11554TIP3    H256154   5.150   5.638  16.633  0.4333 -0.5870 -0.1006
11555TIP3   OH256155   0.112   1.078  16.460  0.6010 -0.0079  0.0344
11555TIP3    H156156   0.113   1.087  16.555  0.1548  0.6060 -0.0084
11555TIP3    H256157   0.043   1.138  16.432  2.1298  1.4245 -0.8307
11556TIP3   OH256158   3.605   0.117  15.581 -0.6721 -0.2741 -0.7365
11556TIP3    H156159   3.653   0.081  15.506  0.4292 -1.0433  0.2836
11556TIP3    H256160   3.609   0.048  15.647  0.7213  1.3147  0.9786
11557TIP3   OH256161   2.487   4.010  12.513  0.5142  0.2607 -0.4185
11557TIP3    H156162   2.562   4.029  12.458  0.9761  0.6529  0.3324
11557TIP3    H256163   2.481   4.085  12.573 -1.3506  0.9604 -1.3975
11558TIP3   OH256164   3.863   4.531   4.152 -0.1846 -0.0093 -0.0442
11558TIP3    H156165   3.808   4.456   4.131  0.7365 -0.4639 -0.9546
11558TIP3    H256166   3.855   4.542   4.246 -0.7617 -0.9096  0.0215
11559TIP3   OH256167   5.909   5.332  15.262 -0.1303 -0.4597  0.2635
11559TIP3    H156168   5.878   5.288  15.341  1.3306  1.3226  1.9444
11559TIP3    H256169   5.998   5.299  15.249 -0.5852 -1.2156 -1.0497
11560TIP3   OH256170   4.738   5.581  14.996  0.4409  0.0925 -0.1376
11560TIP3    H156171   4.713   5.659  15.046  4.7639  0.3965  1.9892
11560TIP3    H256172   4.744   5.612  14.906 -1.0070  1.3111  0.1375
11561TIP3   OH256173   1.937   1.382  13.661 -0.0806  0.3750  0.4484
11561TIP3    H156174   2.007   1.317  13.653 -0.6004 -0.0037 -1.4096
11561TIP3    H256175   1.885   1.351  13.735  1.8264  0.8369  2.0885
11562TIP3   OH256176   6.321   1.989   2.354 -0.5924  0.8760  0.0455
11562TIP3    H156177   6.278   2.000   2.439 -1.7354 -1.7806 -0.0821
11562TIP3    H256178   6.369   1.906   2.362 -0.2413  0.8679 -1.7205
11563TIP3   OH256179   5.877   3.564   3.635  0.2234  0.0725 -0.3741
11563TIP3    H156180   5.800   3.603   3.676  0.5189 -0.0024  0.2608
11563TIP3    H256181   5.949   3.622   3.659  0.4273 -0.0660 -0.6473
11564TIP3   OH256182   5.154   6.641   0.271  0.1491  0.2011 -0.0312
11564TIP3    H156183   5.155   6.617   0.363 -0.9373  0.1913 -0.0034
11564TIP3    H256184   5.236   6.606   0.236 -0.2612 -1.4254  0.5383
11565TIP3   OH256185   4.502   3.890  13.357  0.2921 -0.0134  0.3326
11565TIP3    H156186   4.479   3.810  13.310  1.1965 -0.7603  1.0942
11565TIP3    H256187   4.550   3.859  13.434  0.2555  1.2474  0.8933
11566TIP3   OH256188   6.271   6.598   5.597  0.3650  0.1677  0.4808
11566TIP3    H156189   6.193   6.650   5.614  1.7672  3.0660 -1.1409
11566TIP3    H256190   6.247   6.541   5.524  0.0605  1.9565 -0.8794
11567TIP3   OH256191   1.483   0.643   3.684 -0.0062  0.7082  0.3645
11567TIP3    H156192   1.538   0.720   3.697  1.5604 -0.5176  1.3557
11567TIP3    H256193   1.421   0.669   3.615  0.0951  3.0057  1.0630
11568TIP3   OH256194   2.230   4.719  11.626  0.2249  0.5925  0.3308
11568TIP3    H156195   2.303   4.666  11.593 -0.9326 -1.1123  0.3479
11568TIP3    H256196   2.269   4.777  11.691  1.3113 -1.6792  1.8541
11569TIP3   OH256197   0.269   0.708   3.989  0.0877 -0.2005  0.4854
11569TIP3    H156198   0.241   0.618   3.975 -0.2038 -0.1643  0.8114
11569TIP3    H256199   0.361   0.701   4.013  1.1409 -0.1444 -3.0743
11570TIP3   OH256200   4.437   5.377   0.544  0.5775  0.0991 -0.1731
11570TIP3    H156201   4.346   5.406   0.560  0.5521 -0.2433  0.3323
11570TIP3    H256202   4.484   5.458   0.523 -0.0055  0.1853 -1.2576
11571TIP3   OH256203   1.427   1.716  13.716  0.2624 -0.3559 -0.2583
11571TIP3    H156204   1.391   1.791  13.763  0.8389  1.0816 -1.9677
11571TIP3    H256205   1.355   1.653  13.712 -0.6351  0.6018  0.1927
11572TIP3   OH256206   3.228   6.787   3.931  0.3630 -0.3008  0.2157
11572TIP3    H156207   3.184   6.814   3.850  0.4247 -1.5420 -0.2440
11572TIP3    H256208   3.321   6.795   3.911  0.4320 -2.2472 -0.4626
11573TIP3   OH256209   4.923   4.720  16.715 -0.6580 -0.6566 -0.5742
11573TIP3    H156210   4.841   4.763  16.740 -0.3231 -0.4059  0.1050
11573TIP3    H256211   4.918   4.633  16.755 -1.2973 -1.2493 -1.8809
11574TIP3   OH256212   5.845   5.088  16.719  0.1688 -0.2987  0.7297
11574TIP3    H156213   5.804   5.139  16.650  1.6027  0.7639  0.6095
11574TIP3    H256214   5.866   5.152  16.787 -2.0989 -1.4450  2.6824
11575TIP3   OH256215   5.681   2.847  14.098 -0.3077 -0.2097  0.2531
11575TIP3    H156216   5.749   2.823  14.035  1.0928  0.7835  1.3139
11575TIP3    H256217   5.694   2.787  14.172 -1.9074 -1.3358 -0.3297
11576TIP3   OH256218   1.398   3.986   3.949  0.6182 -0.5227  0.0617
11576TIP3    H156219   1.356   4.039   3.881  0.2509 -0.6859  0.1591
11576TIP3    H256220   1.456   4.048   3.995 -1.4154  0.3732  1.5917
11577TIP3   OH256221   6.435   5.549  14.955 -0.5872 -0.5032  0.5581
11577TIP3    H156222   6.411   5.632  14.997 -0.0070  0.5975 -1.1576
11577TIP3    H256223   6.464   5.575  14.867 -0.2527 -2.5289  0.0309
11578TIP3   OH256224   3.362   0.504   6.044  0.7918 -0.3406  0.0604
11578TIP3    H156225   3.426   0.534   5.979 -0.0933 -0.6438 -0.9669
11578TIP3    H256226   3.307   0.442   5.997  0.0485 -0.4690  1.0697
11579TIP3   OH256227   3.787   4.710   3.469 -0.0350 -0.1521  0.3396
11579TIP3    H156228   3.805   4.803   3.486  0.2797 -0.0528 -0.5028
11579TIP3    H256229   3.711   4.711   3.411  0.6914 -0.3662 -0.6363
11580TIP3   OH256230   4.994   4.886  11.337 -0.0934 -0.2251 -0.0828
11580TIP3    H156231   5.042   4.833  11.273 -1.7820 -1.2103 -0.5943
11580TIP3    H256232   5.014   4.845  11.422 -1.6031 -1.9454 -0.4964
11581TIP3   OH256233   6.516   1.000   5.068  0.0381  0.3931 -0.7150
11581TIP3    H156234   6.439   0.976   5.018 -0.4517  0.3500  0.0460
11581TIP3    H256235   6.517   1.096   5.066 -0.6613  0.4394  0.1678
11582TIP3   OH256236   2.169   0.990   0.176 -0.3473 -0.0088 -0.1414
11582TIP3    H156237   2.154   1.072   0.128 -1.7805 -0.3821 -0.3882
11582TIP3    H256238   2.119   1.001   0.257 -0.0143 -0.3967  0.1204
11583TIP3   OH256239   2.322   2.295  15.947 -0.3073 -0.2619  1.0480
11583TIP3    H156240   2.294   2.287  15.855  2.1527 -1.2318  0.3155
11583TIP3    H256241   2.345   2.207  15.973  3.0077  0.5376  1.1881
11584TIP3   OH256242   5.208   2.422  15.527  0.0060  0.1941  0.6385
11584TIP3    H156243   5.245   2.384  15.607  1.3898 -0.7878 -0.4140
11584TIP3    H256244   5.216   2.352  15.462 -0.6424  1.1302 -0.4799
11585TIP3   OH256245   2.771   0.677  10.864  0.4145 -0.3032 -0.7398
11585TIP3    H156246   2.782   0.613  10.934 -2.0480 -0.9706 -0.8798
11585TIP3    H256247   2.798   0.631  10.785  0.0913 -0.6627 -0.6428
11586TIP3   OH256248   0.382   5.640  14.141 -0.0245 -0.9649 -0.8358
11586TIP3    H156249   0.424   5.638  14.227 -0.5875  1.2137 -0.4640
11586TIP3    H256250   0.453   5.662  14.080 -0.6381  5.3523  0.0717
11587TIP3   OH256251   6.634   4.625   5.933 -0.2572 -0.6525 -0.1404
11587TIP3    H156252   6.582   4.613   6.013 -0.7036 -0.5752 -0.4156
11587TIP3    H256253   6.723   4.638   5.965 -0.5364  0.0604  0.3826
11588TIP3   OH256254   4.116   3.016   3.811  0.2027 -0.1572 -0.2431
11588TIP3    H156255   4.055   2.945   3.830 -1.2600  0.8620 -0.8526
11588TIP3    H256256   4.065   3.076   3.756  0.9779  1.9073  1.1573
11589TIP3   OH256257   2.763   0.088  15.244 -0.4790  0.4117 -0.1028
11589TIP3    H156258   2.833   0.133  15.197  0.0201 -1.1399 -0.9001
11589TIP3    H256259   2.799   0.069  15.330 -0.6578  1.4158  0.2029
11590TIP3   OH256260   1.604   6.802  10.872  0.2396 -0.4417 -0.1213
11590TIP3    H156261   1.522   6.851  10.867  0.9779  0.7688 -0.8824
11590TIP3    H256262   1.622   6.795  10.966 -0.0841  0.4064  0.0137
11591TIP3   OH256263   1.450   0.880  12.710  0.2013  0.0933  0.4261
11591TIP3    H156264   1.409   0.793  12.719  1.4982 -0.8513 -1.9433
11591TIP3    H256265   1.380   0.935  12.674 -0.2206 -0.3374  0.5663
11592TIP3   OH256266   0.260   3.763  14.121 -0.0138 -0.0832 -0.2527
11592TIP3    H156267   0.348   3.800  14.120 -0.0837  0.1278 -2.0518
11592TIP3    H256268   0.203   3.837  14.101 -0.2052 -0.9098 -3.2582
11593TIP3   OH256269   5.448   3.001   0.471 -0.2123  0.2130  0.2573
11593TIP3    H156270   5.439   2.970   0.381 -0.6306  0.6784  0.1368
11593TIP3    H256271   5.486   3.088   0.463  1.4496 -0.4364  0.6191
11594TIP3   OH256272   3.648   0.001   1.962  0.0905  0.0277 -0.2341
11594TIP3    H156273   3.735  -0.033   1.937  0.3130  1.3885 -1.4377
11594TIP3    H256274   3.590  -0.074   1.951  0.8844 -0.5187 -0.8881
11595TIP3   OH256275   0.599   1.677   1.521  0.2609 -0.0064  0.0885
11595TIP3    H156276   0.649   1.601   1.549 -0.0933  0.2813  1.5462
11595TIP3    H256277   0.534   1.691   1.590  0.5620  1.8546  0.0642
11596TIP3   OH256278   3.650   1.604  15.937 -0.4250 -0.2881 -0.4566
11596TIP3    H156279   3.715   1.548  15.980  1.5129  0.9701 -1.5636
11596TIP3    H256280   3.663   1.690  15.977  0.1766  0.4815 -2.1889
11597TIP3   OH256281   2.826   1.090   2.088  0.4819  0.0775  0.6790
11597TIP3    H156282   2.811   1.167   2.034  1.0857  0.0819  0.5118
11597TIP3    H256283   2.770   1.103   2.164 -1.0702 -0.3577 -0.3525
11598TIP3   OH256284   5.433   4.648   3.459 -0.0662  0.5047  0.0370
11598TIP3    H156285   5.357   4.705   3.448  0.2332  1.0522  0.7080
11598TIP3    H256286   5.396   4.559   3.460 -0.8298  0.8065  1.2587
11599TIP3   OH256287   0.725   3.141  13.641  0.1498  0.2782 -0.2020
11599TIP3    H156288   0.760   3.052  13.645 -3.4043 -1.2948  0.7934
11599TIP3    H256289   0.744   3.178  13.727  2.6487  1.0507 -0.9954
11600TIP3   OH256290   6.622   5.008   1.809 -0.1440 -0.0197 -0.0507
11600TIP3    H156291   6.544   4.986   1.758 -0.7782  0.4050  0.7123
11600TIP3    H256292   6.588   5.046   1.890  0.8521 -0.0757  0.4140
11601TIP3   OH256293   6.492   2.146   3.582  0.8667 -0.0325  0.3780
11601TIP3    H156294   6.495   2.170   3.489 -0.1923 -1.0041  0.0693
11601TIP3    H256295   6.569   2.091   3.596  0.7051 -0.3821 -0.0805
11602TIP3   OH256296   1.849   5.752   5.649 -0.0339 -0.0796  0.3969
11602TIP3    H156297   1.852   5.659   5.624  0.2967 -1.0713  3.6571
11602TIP3    H256298   1.756   5.771   5.660 -0.0433 -0.3469  0.7799
11603TIP3   OH256299   5.628   1.892  12.733  0.0051 -0.5975  0.0226
11603TIP3    H156300   5.648   1.935  12.816 -1.0033 -0.1092  0.0276
11603TIP3    H256301   5.632   1.962  12.668 -0.2780 -0.7670 -0.1798
11604TIP3   OH256302   4.472   1.651   2.500  0.4040 -0.3148  0.5996
11604TIP3    H156303   4.412   1.658   2.574  0.0276  2.1960  0.1277
11604TIP3    H256304   4.543   1.712   2.521  0.4513  0.1928 -0.9350
11605TIP3   OH256305   6.403   6.823   2.750  0.8354 -0.2755  0.6346
11605TIP3    H156306   6.476   6.823   2.689  0.0689 -1.3416 -0.3250
11605TIP3    H256307   6.420   6.897   2.809  1.7164  0.6229 -0.7032
11606TIP3   OH256308   2.598   2.008  14.715  0.1149  0.5840 -0.4120
11606TIP3    H156309   2.692   2.008  14.728 -0.0713  1.0785  1.0055
11606TIP3    H256310   2.566   1.933  14.765 -0.1437 -0.3253 -1.8656
11607TIP3   OH256311   1.822   4.036   3.226  0.1804 -0.1621  0.1417
11607TIP3    H156312   1.872   4.014   3.304  0.7434 -2.1955 -0.7256
11607TIP3    H256313   1.824   4.132   3.222 -0.8970  0.0746  3.2242
11608TIP3   OH256314   6.607   4.188   3.671 -0.5862 -0.1497  0.0191
11608TIP3    H156315   6.683   4.133   3.652 -0.9414 -2.0180  3.1878
11608TIP3    H256316   6.538   4.155   3.614 -0.2031 -1.6267  0.3685
11609TIP3   OH256317   6.584   0.387  12.927  0.1894  0.4285 -0.4065
11609TIP3    H156318   6.572   0.420  12.838  1.0105  0.8761 -0.3677
11609TIP3    H256319   6.496   0.381  12.963 -0.1117  0.7340 -1.0789
11610TIP3   OH256320   5.083   6.682   5.487  0.3744 -0.3755  0.2000
11610TIP3    H156321   5.024   6.758   5.484 -1.5649 -1.8274 -1.0402
11610TIP3    H256322   5.031   6.613   5.527  1.1676 -1.7596 -1.0622
11611TIP3   OH256323   1.420   5.213   2.542 -0.4091 -0.5955  0.3026
11611TIP3    H156324   1.492   5.256   2.588 -1.1449 -0.6024  1.5025
11611TIP3    H256325   1.383   5.153   2.607  0.1295 -2.5417 -1.0997
11612TIP3   OH256326   0.227   3.143  11.017 -0.2727  0.5316  0.0742
11612TIP3    H156327   0.300   3.204  11.024  0.5032 -0.4822  1.0858
11612TIP3    H256328   0.267   3.056  11.015 -1.4621 -0.1110  1.7787
11613TIP3   OH256329   1.389   2.524   2.907 -0.4964  0.3768  0.0294
11613TIP3    H156330   1.422   2.474   2.832  3.6867  0.4847  1.5466
11613TIP3    H256331   1.363   2.608   2.869  0.3652 -0.0065 -1.5027
11614TIP3   OH256332   4.117   2.156   0.494  0.3647  0.8561 -0.5932
11614TIP3    H156333   4.174   2.174   0.569  1.5857  1.3310 -1.5939
11614TIP3    H256334   4.048   2.222   0.500  0.6367  1.0941 -0.0554
11615TIP3   OH256335   2.859   6.529   3.253 -0.1276 -0.3401  0.7389
11615TIP3    H156336   2.891   6.565   3.171  1.5143  0.0317  1.4897
11615TIP3    H256337   2.771   6.497   3.233 -1.5719  3.5949 -0.1259
11616TIP3   OH256338   2.828   2.340  13.288  0.3095 -0.3803  0.3757
11616TIP3    H156339   2.831   2.291  13.205  2.0107 -1.0876  0.8029
11616TIP3    H256340   2.739   2.373  13.293  0.4940  0.7852 -2.3607
11617TIP3   OH256341   2.113   2.146   5.095  0.5003  0.0757 -0.7252
11617TIP3    H156342   2.195   2.168   5.051  0.3746 -0.3123 -1.1629
11617TIP3    H256343   2.061   2.226   5.090  0.3233 -0.0900 -1.6646
11618TIP3   OH256344   1.671   2.418   5.092  0.3663  0.2317  0.3227
11618TIP3    H156345   1.620   2.470   5.030  0.4744 -0.0138  0.0271
11618TIP3    H256346   1.666   2.328   5.059 -2.1871 -0.4815  2.3303
11619TIP3   OH256347   6.287   6.485   0.406 -0.0526  0.3207 -0.5151
11619TIP3    H156348   6.380   6.506   0.400  0.1612  0.6316  2.3049
11619TIP3    H256349   6.285   6.390   0.415  0.0869  0.3825  0.2463
11620TIP3   OH256350   4.192   1.293   2.077 -0.1657 -0.0528  0.2225
11620TIP3    H156351   4.258   1.223   2.080  1.6813  1.6202  2.0482
11620TIP3    H256352   4.226   1.355   2.012 -0.0626  0.7092  0.9979
11621TIP3   OH256353   1.690   3.874  13.899  0.2525 -0.3327 -0.4262
11621TIP3    H156354   1.756   3.856  13.967  0.4018  0.1849 -0.4320
11621TIP3    H256355   1.627   3.802  13.908 -0.0233  0.0187  0.6215
11622TIP3   OH256356   1.152   5.158   4.444 -0.1321  0.0450  0.3429
11622TIP3    H156357   1.159   5.177   4.538  0.5569 -0.0488  0.3161
11622TIP3    H256358   1.059   5.169   4.424 -0.2706  0.1484  1.0195
11623TIP3   OH256359   5.014   1.104  15.307 -0.2242  0.5212 -0.5848
11623TIP3    H156360   5.086   1.150  15.263 -1.3933  1.8595 -1.1695
11623TIP3    H256361   4.997   1.156  15.386 -0.2974 -0.0208 -0.2377
11624TIP3   OH256362   5.403   1.426   0.404  0.1479 -0.1137 -0.0301
11624TIP3    H156363   5.497   1.432   0.420  0.5575  0.6082 -2.3359
11624TIP3    H256364   5.381   1.335   0.423  1.5165 -0.5352 -0.3191
11625TIP3   OH256365   2.367   1.100  14.865 -0.3631  0.0665  0.3532
11625TIP3    H156366   2.440   1.112  14.803 -0.2575  0.2276  0.5074
11625TIP3    H256367   2.294   1.074  14.810  0.0481 -1.0266  0.2971
11626TIP3   OH256368   4.681   6.249  14.602 -0.1483  0.5603  0.6965
11626TIP3    H156369   4.733   6.234  14.522  1.6690  1.0110  1.7244
11626TIP3    H256370   4.644   6.336  14.590 -0.7518  0.2050 -0.0914
11627TIP3   OH256371   5.998   2.061  12.642  0.1192 -0.5831 -0.5383
11627TIP3    H156372   6.092   2.072  12.627  0.2079  0.8325  0.7815
11627TIP3    H256373   5.956   2.100  12.565  0.6214  1.4630  0.1480
11628TIP3   OH256374   1.075   5.471  13.851  0.4189  0.6581 -0.2573
11628TIP3    H156375   1.141   5.414  13.889 -0.5995 -0.9348 -0.8043
11628TIP3    H256376   1.013   5.488  13.922  0.5717  0.8576 -0.1714
11629TIP3   OH256377   6.224   4.125   1.706 -0.0719 -0.2371 -0.0629
11629TIP3    H156378   6.207   4.190   1.774 -0.4568 -2.9479  2.6639
11629TIP3    H256379   6.138   4.104   1.670  0.0525  0.6603 -0.9434
11630TIP3   OH256380   4.936   0.526   5.378 -0.1834  0.0232  0.3552
11630TIP3    H156381   5.019   0.564   5.349 -1.1715  1.0524 -1.2625
11630TIP3    H256382   4.883   0.601   5.404 -1.7072 -0.2593 -1.6732
11631TIP3   OH256383   0.972   2.784  16.291 -0.0788 -0.3507  0.0149
11631TIP3    H156384   1.008   2.823  16.370 -0.8715  0.0371  0.1914
11631TIP3    H256385   0.945   2.858  16.237 -0.3318 -0.6325 -0.2496
11632TIP3   OH256386   1.295   4.232   1.391  0.2484  0.3230 -0.0904
11632TIP3    H156387   1.358   4.160   1.395  0.1784  0.2674  0.0239
11632TIP3    H256388   1.300   4.264   1.301  0.7519  0.5970  0.0287
11633TIP3   OH256389   4.335   5.194  16.203  0.9174  0.6708  0.3143
11633TIP3    H156390   4.399   5.152  16.146  1.2132  0.5584  0.7218
11633TIP3    H256391   4.356   5.161  16.290 -1.0690 -1.0747  0.1805
11634TIP3   OH256392   6.050   5.926   2.286  0.2696  0.0579  0.3707
11634TIP3    H156393   6.034   5.950   2.377  0.3381  1.2275  0.1000
11634TIP3    H256394   5.973   5.876   2.260  0.7768 -1.3045  1.3970
11635TIP3   OH256395   6.304   2.932  10.457  0.3665  0.1895 -0.0334
11635TIP3    H156396   6.282   2.858  10.400  0.2428 -0.8616  1.3285
11635TIP3    H256397   6.325   3.003  10.396 -0.4914 -0.6547 -1.3875
11636TIP3   OH256398   0.937   3.430   1.753 -0.3686 -0.6333 -0.5122
11636TIP3    H156399   0.955   3.337   1.768 -1.9879 -0.8969  0.0172
11636TIP3    H256400   0.866   3.430   1.689 -1.0601  0.2070  0.2326
11637TIP3   OH256401   5.311   5.163   1.718  0.1763 -0.1615 -0.5470
11637TIP3    H156402   5.295   5.120   1.803 -1.9308  0.1248 -0.7502
11637TIP3    H256403   5.406   5.165   1.711  0.3969 -2.0009  0.8903
11638TIP3   OH256404   1.723   6.023  12.272  0.2366 -0.0237  0.2411
11638TIP3    H156405   1.774   6.103  12.279 -0.3593  0.4494 -0.6727
11638TIP3    H256406   1.727   5.999  12.180 -0.7818 -0.2453  0.2358
11639TIP3   OH256407   4.224   3.949  15.304 -0.4872 -0.3307  0.1303
11639TIP3    H156408   4.270   3.882  15.254 -1.4038  0.4296 -1.8339
11639TIP3    H256409   4.292   4.010  15.332 -0.2051  0.8467 -2.8422
11640TIP3   OH256410   4.100   0.509   3.519  0.3708  0.5077 -0.3525
11640TIP3    H156411   4.081   0.585   3.464 -1.8700  1.5011  1.6422
11640TIP3    H256412   4.075   0.434   3.466  1.2316  1.1934 -1.8043
11641TIP3   OH256413   0.830   3.724  11.889 -0.2936 -0.5202 -0.1490
11641TIP3    H156414   0.753   3.730  11.832 -1.0474 -1.6569  0.7076
11641TIP3    H256415   0.897   3.683  11.835 -0.3618  0.2195 -0.8175
11642TIP3   OH256416   2.184   4.878   1.681 -0.4768 -0.3643  0.3919
11642TIP3    H156417   2.236   4.925   1.745  2.8425 -0.5012 -1.9794
11642TIP3    H256418   2.200   4.922   1.598 -1.2954 -2.6003 -1.0749
11643TIP3   OH256419   3.444   0.443   2.954 -0.1402 -0.3064 -0.6844
11643TIP3    H156420   3.504   0.370   2.970 -1.4278 -1.0753  1.0243
11643TIP3    H256421   3.438   0.449   2.859  3.4198  0.5314 -0.9914
11644TIP3   OH256422   3.259   5.634   5.478 -0.6381 -0.0105 -0.1145
11644TIP3    H156423   3.259   5.679   5.393 -0.5492 -1.9958 -1.2277
11644TIP3    H256424   3.330   5.570   5.471 -0.9354 -0.5265  1.2859
11645TIP3   OH256425   3.816   1.147   1.108  0.2442  0.1357 -0.0335
11645TIP3    H156426   3.762   1.150   1.187 -0.2918 -1.2794 -0.3148
11645TIP3    H256427   3.793   1.065   1.066  0.9929  0.5588 -1.3458
11646TIP3   OH256428   5.743   2.732   2.012  0.3708 -0.6754 -0.5063
11646TIP3    H156429   5.717   2.640   2.011  1.1314 -0.9239  0.4829
11646TIP3    H256430   5.812   2.738   1.945 -0.3659 -0.5940 -1.2693
11647TIP3   OH256431   2.347   0.046   1.757  0.7313  0.4282 -0.2334
11647TIP3    H156432   2.385   0.002   1.833  1.0156 -1.1408 -1.2389
11647TIP3    H256433   2.411   0.114   1.734 -0.7278  3.0428  2.6687
11648TIP3   OH256434   3.365   4.938  10.776  0.3169 -0.0561  0.0070
11648TIP3    H156435   3.329   4.851  10.759 -1.1740  0.5314  0.0243
11648TIP3    H256436   3.396   4.969  10.691  0.5841 -0.4761 -0.0514
11649TIP3   OH256437   1.642   3.659  11.691  0.3609  0.9008 -0.1452
11649TIP3    H156438   1.558   3.693  11.723 -1.0082 -1.7616 -0.6193
11649TIP3    H256439   1.694   3.646  11.770  0.5639  2.9938  0.1228
11650TIP3   OH256440   3.076   0.899   5.320  0.0937  0.0604  0.0891
11650TIP3    H156441   3.089   0.929   5.230  0.6307  2.2950  0.8319
11650TIP3    H256442   3.002   0.838   5.316  0.8251 -0.7643 -1.9938
11651TIP3   OH256443   4.313   4.371   6.477  0.2358  0.4490  0.4060
11651TIP3    H156444   4.346   4.450   6.519 -0.7090  0.8534  0.4182
11651TIP3    H256445   4.268   4.324   6.547  0.0574  0.3234  0.2072
11652TIP3   OH256446   5.448   4.433   4.997 -0.7504  0.0490 -0.2199
11652TIP3    H156447   5.491   4.494   5.057 -0.2063 -0.6041  0.0758
11652TIP3    H256448   5.518   4.402   4.940 -0.8168 -0.9918  0.2305
11653TIP3   OH256449   6.556   0.726  14.856 -0.3801  0.2773  0.0346
11653TIP3    H156450   6.482   0.776  14.821 -0.0019  0.6903 -0.2014
11653TIP3    H256451   6.633   0.781  14.836  0.1537 -0.8200 -1.0693
11654TIP3   OH256452   2.132   4.017  15.235  0.7559  0.0780  0.0114
11654TIP3    H156453   2.141   4.036  15.328 -0.7438 -1.0736  0.4288
11654TIP3    H256454   2.041   4.041  15.215  0.9016 -0.1986 -1.0256
11655TIP3   OH256455   0.227   5.603   0.717  0.2498 -0.1109 -0.1621
11655TIP3    H156456   0.226   5.552   0.635 -1.2225 -1.4720  0.6588
11655TIP3    H256457   0.180   5.684   0.695 -0.9948 -0.8801 -0.4401
11656TIP3   OH256458   0.394   1.666   2.120 -0.0329  0.3186 -0.1318
11656TIP3    H156459   0.441   1.745   2.093 -1.3835  1.3790  0.4881
11656TIP3    H256460   0.458   1.615   2.170  0.8913  0.9632 -0.6320
11657TIP3   OH256461   1.591   0.077   3.632 -0.4029 -0.4747 -0.1492
11657TIP3    H156462   1.582   0.170   3.613 -0.2058 -0.3434  0.3796
11657TIP3    H256463   1.530   0.061   3.705 -0.4834 -0.7744 -0.2774
11658TIP3   OH256464   5.484   5.346  16.398 -0.1735 -0.4439  0.7197
11658TIP3    H156465   5.424   5.298  16.340 -1.9946  1.7448  0.6864
11658TIP3    H256466   5.431   5.415  16.436  2.4750  2.0898  0.1596
11659TIP3   OH256467   4.569   0.764   3.526  0.3385 -0.1523 -0.2395
11659TIP3    H156468   4.605   0.849   3.503  0.3501  0.7325  2.7058
11659TIP3    H256469   4.474   0.776   3.526  0.2997 -0.4074 -0.6314
11660TIP3   OH256470   4.426   6.130  16.155  0.0739 -0.0940  0.0577
11660TIP3    H156471   4.378   6.047  16.159 -1.7086  0.8749 -0.6662
11660TIP3    H256472   4.515   6.106  16.182 -0.9309 -1.8059  2.1849
11661TIP3   OH256473   0.296   2.711  15.412 -0.2695  0.3416 -0.3198
11661TIP3    H156474   0.210   2.746  15.434 -0.7800 -0.8198 -0.3775
11661TIP3    H256475   0.282   2.617  15.404  0.6861  0.2907 -1.8417
11662TIP3   OH256476   5.321   3.841  17.061 -0.2428 -0.8553  0.1571
11662TIP3    H156477   5.315   3.789  16.981 -0.5487 -0.9231  0.2209
11662TIP3    H256478   5.279   3.924  17.039 -1.5244 -1.3384  0.6122
11663TIP3   OH256479   5.860   6.404   2.831  0.2444 -0.4331  0.2590
11663TIP3    H156480   5.818   6.487   2.853  2.5819  1.0935 -0.7103
11663TIP3    H256481   5.865   6.357   2.915 -1.2399  0.2983  0.7985
11664TIP3   OH256482   5.421   1.937   3.011  0.1424 -0.0252  0.4350
11664TIP3    H156483   5.443   1.887   3.089 -0.2172 -0.6158  0.1639
11664TIP3    H256484   5.463   1.890   2.939  0.7166  0.6807  0.2997
11665TIP3   OH256485   0.717   0.926  15.302 -0.1549  0.0743  0.0966
11665TIP3    H156486   0.623   0.915  15.286 -0.0352  3.1613 -4.9565
11665TIP3    H256487   0.754   0.839  15.290 -2.1428 -0.7144 -0.7852
11666TIP3   OH256488   2.915   5.208   4.258  0.3376 -0.3166 -0.4632
11666TIP3    H156489   2.828   5.242   4.282  0.9837  1.1718 -0.1133
11666TIP3    H256490   2.922   5.125   4.305  0.1670  0.8454  1.7570
11667TIP3   OH256491   6.580   1.704   1.523  0.1243  0.0360  0.2228
11667TIP3    H156492   6.624   1.684   1.605 -0.3725 -3.1968 -0.1660
11667TIP3    H256493   6.510   1.765   1.547  2.4868  2.5173  1.3880
11668TIP3   OH256494   4.985   3.164   5.947 -0.4210 -0.2193  0.4786
11668TIP3    H156495   4.930   3.087   5.964 -0.8103 -0.2419 -0.7982
11668TIP3    H256496   5.070   3.140   5.983 -0.4399 -1.4176 -0.2040
11669TIP3   OH256497   4.338   5.750  15.588 -0.8482  0.3607  0.1739
11669TIP3    H156498   4.414   5.762  15.531  0.3666 -1.2121  1.3445
11669TIP3    H256499   4.271   5.713  15.531 -0.3899  0.7958 -0.6673
11670TIP3   OH256500   5.676   0.382   3.151 -0.1845  0.0434 -0.0821
11670TIP3    H156501   5.620   0.456   3.128  0.1748 -0.2118 -1.9292
11670TIP3    H256502   5.722   0.410   3.230 -1.5459  0.9694  0.4134
11671TIP3   OH256503   1.104   1.085   5.189 -0.1495  0.4498  0.3930
11671TIP3    H156504   1.160   1.161   5.207  0.6470 -0.4924  2.0906
11671TIP3    H256505   1.135   1.051   5.105 -2.0206  3.2580 -1.6442
11672TIP3   OH256506   0.945   4.406  13.403 -0.3699 -0.2828  0.3670
11672TIP3    H156507   0.953   4.325  13.452 -0.6338 -1.0668 -0.8319
11672TIP3    H256508   1.034   4.426  13.374 -0.2649  0.0067  0.8747
11673TIP3   OH256509   0.658   2.983  12.337 -0.3524  0.1536 -0.5492
11673TIP3    H156510   0.725   2.949  12.277 -0.9673 -2.1512 -0.0275
11673TIP3    H256511   0.703   2.993  12.420 -0.4461 -0.6735 -0.3874
11674TIP3   OH256512   1.614   6.756  16.840  0.3080 -0.1941  0.7419
11674TIP3    H156513   1.626   6.759  16.746 -1.2252  1.2597  0.5396
11674TIP3    H256514   1.657   6.836  16.872  2.1133 -1.4047  1.4905
11675TIP3   OH256515   2.800   2.223  12.065  0.3015 -0.4582  0.1614
11675TIP3    H156516   2.770   2.247  12.153 -0.3842  0.4615 -0.2987
11675TIP3    H256517   2.848   2.301  12.034  0.5359 -0.7711 -0.2790
11676TIP3   OH256518   5.834   3.685   3.989 -0.0988 -0.7374  0.3940
11676TIP3    H156519   5.890   3.747   3.942 -0.9521  0.4394  0.8579
11676TIP3    H256520   5.773   3.653   3.922  1.8385 -3.0317 -0.4249
11677TIP3   OH256521   0.416   0.509  11.059 -0.5912  0.1666 -0.7681
11677TIP3    H156522   0.435   0.603  11.056  1.5366 -0.1369  0.7719
11677TIP3    H256523   0.342   0.502  11.118 -1.5686  0.9314 -1.8497
11678TIP3   OH256524   2.753   6.131   2.184  0.0234 -0.2115  0.7800
11678TIP3    H156525   2.798   6.046   2.184 -2.3553 -1.5710 -0.8871
11678TIP3    H256526   2.799   6.183   2.118  0.9975 -0.4509  1.2491
11679TIP3   OH256527   2.110   6.143  10.759 -0.7372 -0.5174  0.5316
11679TIP3    H156528   2.107   6.139  10.664  1.5688  2.1834  0.2262
11679TIP3    H256529   2.189   6.095  10.783 -0.1265  0.6238  0.8671
11680TIP3   OH256530   0.131   2.755  11.084 -0.1070  0.4413 -0.2198
11680TIP3    H156531   0.185   2.712  11.151 -0.1733  2.4369  1.2175
11680TIP3    H256532   0.192   2.772  11.012  0.0134 -1.5620 -0.6430
11681TIP3   OH256533   6.728   1.008  11.703  0.5508 -0.2742 -0.0600
11681TIP3    H156534   6.673   1.047  11.635  0.3979 -2.0281 -0.9951
11681TIP3    H256535   6.818   1.032  11.679  0.3990  0.2502 -0.1049
11682TIP3   OH256536   1.988   6.529  12.702 -0.2357  0.3314 -0.1445
11682TIP3    H156537   2.013   6.556  12.614  2.3153 -0.7061  0.1835
11682TIP3    H256538   1.932   6.452  12.687 -1.2725  1.1941 -0.8632
11683TIP3   OH256539   6.738   4.474   0.955 -0.0255 -0.0202  0.4539
11683TIP3    H156540   6.697   4.483   0.868 -0.1821  3.2254  0.7692
11683TIP3    H256541   6.673   4.426   1.006 -0.6932 -0.4249 -0.7137
11684TIP3   OH256542   4.517   6.298  14.192  0.5384  0.1383 -0.0626
11684TIP3    H156543   4.608   6.295  14.160  0.4782  2.1547 -0.5947
11684TIP3    H256544   4.464   6.273  14.116  0.5523  1.9386 -0.7317
11685TIP3   OH256545   3.765   0.840  16.192  0.3812 -0.4239 -0.2100
11685TIP3    H156546   3.721   0.807  16.113  0.6562  0.4354 -0.7308
11685TIP3    H256547   3.711   0.807  16.264 -0.9865  0.3667 -0.8219
11686TIP3   OH256548   3.433   4.787  11.989  0.4754 -0.0789  0.0089
11686TIP3    H156549   3.516   4.776  11.943  0.0110  0.7149 -1.0835
11686TIP3    H256550   3.428   4.881  12.008 -1.5154  0.5172 -2.7522
11687TIP3   OH256551   5.499   5.280   0.871  0.3101  0.1365 -0.3810
11687TIP3    H156552   5.515   5.365   0.831 -0.7504  1.0059  0.9506
11687TIP3    H256553   5.507   5.296   0.965 -0.9761 -0.9801 -0.0563
11688TIP3   OH256554   5.473   5.301  15.882  0.1369  0.0058 -0.2049
11688TIP3    H156555   5.394   5.354  15.872  0.0497 -0.1457 -0.3262
11688TIP3    H256556   5.502   5.283  15.793 -0.5627 -1.2219 -0.2091
11689TIP3   OH256557   3.265   0.590   4.130 -0.5155  0.3959 -0.0426
11689TIP3    H156558   3.275   0.499   4.100 -0.2345  0.5534 -0.4333
11689TIP3    H256559   3.245   0.639   4.050 -1.0079  0.6254  0.2212
11690TIP3   OH256560   4.260   4.767  16.929 -0.6736  0.7499  0.0501
11690TIP3    H156561   4.251   4.706  16.855  0.4518 -1.8163  1.8712
11690TIP3    H256562   4.175   4.763  16.972 -0.1340 -0.8760  1.0526
11691TIP3   OH256563   0.393   0.504   2.520 -0.3191  0.1595  0.3696
11691TIP3    H156564   0.410   0.410   2.527 -0.8620  0.0001 -0.2984
11691TIP3    H256565   0.356   0.515   2.432 -1.1539  0.8631  0.7949
11692TIP3   OH256566   3.376   2.805   2.500 -0.1695 -0.0749  0.0743
11692TIP3    H156567   3.352   2.757   2.420 -1.6098  0.2568  0.2927
11692TIP3    H256568   3.352   2.896   2.482 -0.1998  0.0581  0.7650
11693TIP3   OH256569   0.569   5.100  12.715  0.2569  0.1015 -0.7599
11693TIP3    H156570   0.612   5.078  12.632  1.4120  0.6081 -0.3146
11693TIP3    H256571   0.491   5.045  12.717  2.3543 -3.0889 -0.2501
11694TIP3   OH256572   6.353   4.170   4.928 -0.0499 -0.4356  0.3639
11694TIP3    H156573   6.322   4.090   4.971 -1.4806 -1.2091 -1.8830
11694TIP3    H256574   6.438   4.188   4.968  0.5041 -3.3291  0.7018
11695TIP3   OH256575   6.402   0.147  15.559 -0.0400 -0.7211 -0.3132
11695TIP3    H156576   6.483   0.096  15.557  0.1617 -0.5003  1.4130
11695TIP3    H256577   6.428   0.234  15.526  0.8946 -0.0664  1.9928
11696TIP3   OH256578   5.039   3.123   4.849  0.3147 -0.1957 -0.2292
11696TIP3    H156579   5.133   3.131   4.835  0.3732  0.8033  0.6503
11696TIP3    H256580   5.000   3.152   4.766  0.7721 -0.3812 -0.5109
11697TIP3   OH256581   0.226   4.336   1.001  0.3788 -0.4648 -0.2157
11697TIP3    H156582   0.293   4.278   0.965  0.2957 -0.5905 -0.1686
11697TIP3    H256583   0.157   4.338   0.934 -0.3525 -1.6996  0.4578
11698TIP3   OH256584   6.678   4.942  13.702  0.3006  0.7471 -0.6987
11698TIP3    H156585   6.750   4.903  13.653  2.1962  2.5973  0.4167
11698TIP3    H256586   6.703   5.034  13.710 -2.2773  1.4711 -0.3396
11699TIP3   OH256587   1.796   0.245  10.404 -0.1550 -0.2524  0.7070
11699TIP3    H156588   1.776   0.151  10.406  2.4225 -0.9782 -1.7153
11699TIP3    H256589   1.837   0.263  10.488  0.8264 -1.7145  0.5684
11700TIP3   OH256590   3.426   6.221  11.477  0.5369 -0.0993 -0.2507
11700TIP3    H156591   3.355   6.173  11.433  1.8776  0.2414 -2.9944
11700TIP3    H256592   3.411   6.313  11.452  0.8860  0.2414  0.7450
11701TIP3   OH256593   5.782   4.109  12.052 -0.3284 -0.6187  0.1265
11701TIP3    H156594   5.759   4.038  12.111 -0.0961 -2.3142 -1.7193
11701TIP3    H256595   5.723   4.180  12.076 -0.5957 -1.4185  2.0039
11702TIP3   OH256596   5.631   3.881   3.437  0.1398 -0.0645  0.2523
11702TIP3    H156597   5.590   3.876   3.523  1.6385 -0.1845  0.9758
11702TIP3    H256598   5.718   3.918   3.452  1.0425 -1.5296 -0.9703
11703TIP3   OH256599   6.167   1.617   0.497  0.7345  0.3232  0.5644
11703TIP3    H156600   6.200   1.620   0.407 -0.4904  0.3259  0.0942
11703TIP3    H256601   6.213   1.543   0.537  0.3084 -0.5360 -0.4789
11704TIP3   OH256602   4.010   5.175   0.606  0.5463  0.0455  0.3988
11704TIP3    H156603   4.039   5.185   0.696 -0.3697  0.4302  0.6606
11704TIP3    H256604   4.084   5.133   0.561  0.9562 -0.2661  1.3467
11705TIP3   OH256605   0.480   3.021  11.789  0.0464 -0.6334  0.0212
11705TIP3    H156606   0.523   2.936  11.776  0.2529 -0.4926 -0.2071
11705TIP3    H256607   0.388   2.998  11.808  0.2263 -0.9318  0.5519
11706TIP3   OH256608   4.362   2.268  14.995 -0.0185 -0.1553 -0.3887
11706TIP3    H156609   4.268   2.277  15.011 -0.1942  0.4896 -1.6597
11706TIP3    H256610   4.398   2.353  15.018  0.0879 -0.0438 -0.9621
11707TIP3   OH256611   5.548   4.040  11.375  0.7646  0.3987  0.0487
11707TIP3    H156612   5.566   4.134  11.380 -0.1818  0.5741  0.2799
11707TIP3    H256613   5.456   4.034  11.349  1.1354 -0.4734 -1.1422
11708TIP3   OH256614   6.412   3.525  16.810 -0.3869  0.2608  0.1875
11708TIP3    H156615   6.353   3.497  16.879  1.1516 -1.6297  0.7997
11708TIP3    H256616   6.380   3.480  16.731 -0.3579  0.0407  0.3012
11709TIP3   OH256617   2.530   5.208   2.662  0.1648 -0.0968  1.0052
11709TIP3    H156618   2.443   5.194   2.624 -0.0192 -0.2362  1.4688
11709TIP3    H256619   2.516   5.199   2.756  0.8755 -1.1327  1.0193
11710TIP3   OH256620   3.683   1.224   5.509 -0.4009  0.0465  0.1516
11710TIP3    H156621   3.777   1.234   5.519 -0.2723  1.5531 -1.9065
11710TIP3    H256622   3.649   1.228   5.598  1.4903 -1.1178  0.9895
11711TIP3   OH256623   3.669   2.229  15.329  0.5078 -0.4880  0.2770
11711TIP3    H156624   3.667   2.165  15.400 -0.0725 -0.8274 -0.0347
11711TIP3    H256625   3.742   2.202  15.274 -0.9285 -2.1509 -0.9637
11712TIP3   OH256626   3.061   0.284   1.487 -0.2195  0.0139  0.2869
11712TIP3    H156627   3.028   0.302   1.399 -1.2486  0.1863  0.7042
11712TIP3    H256628   3.117   0.207   1.475  0.9849  0.9920 -0.7939
11713TIP3   OH256629   3.369   3.520   2.454  0.0210  0.4897 -0.4590
11713TIP3    H156630   3.362   3.438   2.503  0.5142 -0.4444 -1.8856
11713TIP3    H256631   3.458   3.520   2.419 -0.9037  0.0309 -3.0862
11714TIP3   OH256632   4.174   2.243  12.702  0.2065  0.0449 -0.6144
11714TIP3    H156633   4.106   2.176  12.705 -0.6794  0.9007 -0.8850
11714TIP3    H256634   4.236   2.218  12.770 -1.1073 -0.0131  0.6055
11715TIP3   OH256635   2.002   1.403  11.542  0.5457  0.0458  0.1850
11715TIP3    H156636   2.024   1.393  11.635  1.4598 -0.3277 -0.0710
11715TIP3    H256637   2.010   1.316  11.505  0.1328  0.1847 -0.2486
11716TIP3   OH256638   6.516   2.215   0.144  0.0362 -0.1108  0.1840
11716TIP3    H156639   6.580   2.155   0.181  0.1228 -0.1302  0.0023
11716TIP3    H256640   6.567   2.292   0.120 -0.3950  1.0876  2.6789
11717TIP3   OH256641   2.452   6.498  11.888  0.1231 -0.0630  0.2549
11717TIP3    H156642   2.516   6.520  11.956 -0.1923  0.6971  0.3139
11717TIP3    H256643   2.459   6.568  11.824 -0.0392 -0.4383 -0.1811
11718TIP3   OH256644   4.087   2.332   5.669  0.0823 -0.6663  0.3662
11718TIP3    H156645   4.055   2.380   5.593 -0.5588  0.1098  1.1131
11718TIP3    H256646   4.045   2.373   5.744  1.5628 -0.6810  1.2592
11719TIP3   OH256647   4.268   4.135  11.903 -0.7329  0.0246  0.0473
11719TIP3    H156648   4.273   4.051  11.857  0.1756  0.8296 -1.4244
11719TIP3    H256649   4.299   4.199  11.838 -1.2468  1.4725  1.1844
11720TIP3   OH256650   4.838   0.700   0.099 -0.1094  0.0539  0.6995
11720TIP3    H156651   4.832   0.765   0.169 -1.4160  0.4942  0.2030
11720TIP3    H256652   4.764   0.641   0.115 -1.1408  0.8428 -0.9625
11721TIP3   OH256653   5.003   5.690  14.243  1.3365 -0.0155 -0.2355
11721TIP3    H156654   4.927   5.746  14.261  1.0803 -0.7683  1.2269
11721TIP3    H256655   5.024   5.707  14.152 -0.1382  0.7708 -0.4686
11722TIP3   OH256656   0.021   6.503   2.468 -0.1682  0.0274 -0.1521
11722TIP3    H156657  -0.009   6.459   2.388  0.8509 -1.3244  0.1646
11722TIP3    H256658  -0.043   6.479   2.534 -0.2615 -0.0015 -0.2526
11723TIP3   OH256659   6.668   3.749   4.516  0.6600  0.0858  0.2011
11723TIP3    H156660   6.587   3.794   4.537  0.3396 -0.2069 -0.3900
11723TIP3    H256661   6.719   3.752   4.597 -0.4625 -0.8293  0.9750
11724TIP3   OH256662   1.937   4.790   1.737  0.0087  0.1520  0.2225
11724TIP3    H156663   2.023   4.827   1.720 -0.1997  1.9721  2.6231
11724TIP3    H256664   1.876   4.854   1.701 -0.3935 -0.8829 -1.0080
11725TIP3   OH256665   0.471   1.396  15.248 -0.3037 -0.5551 -0.0558
11725TIP3    H156666   0.548   1.339  15.241 -0.3653 -0.9550  2.0317
11725TIP3    H256667   0.493   1.458  15.317 -1.4041  0.1048 -0.2758
11726TIP3   OH256668   6.720   1.408   3.832 -0.7586 -0.2176 -0.2440
11726TIP3    H156669   6.790   1.416   3.766 -1.7383  2.7019 -1.0694
11726TIP3    H256670   6.755   1.453   3.909 -1.4544  0.7088 -0.4551
11727TIP3   OH256671   4.271   6.239   1.782  0.1749 -0.5285  0.1683
11727TIP3    H156672   4.252   6.333   1.778 -2.2992 -1.0166 -1.7834
11727TIP3    H256673   4.236   6.211   1.867 -0.9204 -0.0261 -0.1127
11728TIP3   OH256674   3.185   4.263  11.319 -0.1719  0.0454 -0.1312
11728TIP3    H156675   3.245   4.329  11.353  0.9496 -0.9538 -0.0771
11728TIP3    H256676   3.156   4.297  11.235 -2.0982  2.0342  1.2242
11729TIP3   OH256677   0.187   3.493   5.177 -0.1360 -0.2969 -0.5088
11729TIP3    H156678   0.149   3.573   5.142 -1.2094 -0.9449 -0.8489
11729TIP3    H256679   0.281   3.511   5.179 -0.2424  0.5344 -1.7192
11730TIP3   OH256680   4.584   6.581  15.401  1.0365  0.4135  0.0494
11730TIP3    H156681   4.511   6.588  15.462  1.5501 -1.0058  0.8817
11730TIP3    H256682   4.543   6.561  15.317  0.4198  0.5293  0.3184
11731TIP3   OH256683   1.884   1.359  12.105  0.4529  0.4648 -0.1647
11731TIP3    H156684   1.796   1.324  12.090  0.5937  0.5840 -1.4037
11731TIP3    H256685   1.884   1.385  12.197 -0.9737  0.9232 -0.2632
11732TIP3   OH256686   0.999   5.031   1.851 -0.1525  0.0481  0.4444
11732TIP3    H156687   1.058   5.069   1.785  0.1305  0.3016  0.8379
11732TIP3    H256688   0.972   5.106   1.904 -0.4190 -0.1465  0.5844
11733TIP3   OH256689   3.766   2.356  14.940  0.0230 -0.1470  0.1593
11733TIP3    H156690   3.686   2.390  14.901  0.4989  0.1673 -0.5616
11733TIP3    H256691   3.796   2.426  14.997  0.8696  0.5809 -1.1356
11734TIP3   OH256692   5.609   0.999  15.417  0.2978 -0.8398  0.1756
11734TIP3    H156693   5.659   1.068  15.373  0.0686 -1.7736 -1.6448
11734TIP3    H256694   5.676   0.940  15.452  0.4909 -0.7071  0.0319
11735TIP3   OH256695   1.512   4.568  14.116 -0.2009 -0.3941 -0.3867
11735TIP3    H156696   1.418   4.573  14.135  0.0417 -0.0108  0.7687
11735TIP3    H256697   1.517   4.571  14.020 -1.3949 -1.0328 -0.4859
11736TIP3   OH256698   5.645   4.913   3.280 -0.1047 -0.4699  0.3273
11736TIP3    H156699   5.704   4.981   3.246 -2.2604  1.6186  0.5290
11736TIP3    H256700   5.704   4.844   3.310  2.2780  1.6197  0.8531
11737TIP3   OH256701   3.021   1.940   4.912 -0.2277 -0.1439 -0.0157
11737TIP3    H156702   3.028   1.864   4.969  1.3014 -0.7944 -0.9981
11737TIP3    H256703   3.016   2.014   4.971 -0.6010 -0.9288  0.9595
11738TIP3   OH256704   3.061   0.627   2.869 -0.0471 -0.2118 -0.5263
11738TIP3    H156705   2.968   0.639   2.889 -0.0314 -0.6831 -0.1493
11738TIP3    H256706   3.071   0.533   2.859  0.7511 -0.3739  1.3293
11739TIP3   OH256707   0.685   1.954  12.576 -0.1991 -0.1623  0.2866
11739TIP3    H156708   0.636   2.035  12.581 -1.4183 -0.8812  0.2755
11739TIP3    H256709   0.717   1.951  12.485  0.2436  0.5066  0.4135
11740TIP3   OH256710   0.446   3.379   2.264 -0.2783  0.0644 -0.0347
11740TIP3    H156711   0.501   3.454   2.242  0.2279  0.3174  1.9155
11740TIP3    H256712   0.437   3.383   2.360 -0.5115 -2.1700  0.0837
11741TIP3   OH256713   3.337   4.852   4.024 -1.0233 -0.6296  0.6459
11741TIP3    H156714   3.407   4.917   4.013 -0.0875 -1.5823  0.7259
11741TIP3    H256715   3.381   4.768   4.011 -1.5850 -1.4180  3.2097
11742TIP3   OH256716   4.604   4.467   4.527  0.1466  0.1386  0.2937
11742TIP3    H156717   4.647   4.460   4.612  0.3078  1.7157  0.3775
11742TIP3    H256718   4.555   4.549   4.531  1.0732  0.8542 -1.5082
11743TIP3   OH256719   0.172   4.336   3.308 -0.6285 -0.1302  0.7795
11743TIP3    H156720   0.206   4.349   3.397  0.6406 -1.0672  0.4625
11743TIP3    H256721   0.106   4.267   3.318 -0.0390 -0.6864  0.9175
11744TIP3   OH256722   0.379   5.631  15.016  0.4413  0.0263  0.3443
11744TIP3    H156723   0.297   5.591  14.987  1.0317 -0.0761 -1.2729
11744TIP3    H256724   0.398   5.697  14.950  1.3939  0.4191  0.9927
11745TIP3   OH256725   1.114   3.231  15.181 -0.5454  0.0974  0.0439
11745TIP3    H156726   1.113   3.310  15.234 -2.5194  0.3946 -0.3729
11745TIP3    H256727   1.112   3.159  15.244  3.8795  0.1593  0.5599
11746TIP3   OH256728   0.351   5.177  16.157  0.0544  1.1897 -0.1882
11746TIP3    H156729   0.298   5.148  16.231 -0.2847  0.2370 -0.7796
11746TIP3    H256730   0.297   5.242  16.113 -0.8324 -0.0592 -1.0094
11747TIP3   OH256731   3.501   1.578   2.559  0.0052  0.0328 -0.0745
11747TIP3    H156732   3.451   1.578   2.477  0.5040  1.5274 -0.4006
11747TIP3    H256733   3.583   1.535   2.536 -0.7464 -1.6830  0.2602
11748TIP3   OH256734   3.946   3.365   2.895  0.0602 -0.0435  0.3944
11748TIP3    H156735   3.858   3.367   2.931 -0.4454  1.3224 -0.7921
11748TIP3    H256736   3.988   3.443   2.931  0.0810  0.4439 -0.6582
11749TIP3   OH256737   4.590   5.724  10.961  0.0354 -0.5766  0.2092
11749TIP3    H156738   4.580   5.797  11.022  0.4548 -0.3088 -0.0328
11749TIP3    H256739   4.580   5.646  11.015  1.1375 -0.3527  0.7686
11750TIP3   OH256740   0.704   1.733   4.845 -0.1302 -0.6818 -0.2937
11750TIP3    H156741   0.609   1.721   4.838 -0.3749  0.6440  0.4471
11750TIP3    H256742   0.716   1.828   4.847  1.1160 -0.8340  0.8807
11751TIP3   OH256743   4.132   0.294   0.332  0.1277 -0.2330  0.3654
11751TIP3    H156744   4.186   0.317   0.257  1.5423  0.2066  1.4708
11751TIP3    H256745   4.092   0.376   0.359  0.7211 -0.1098  0.9054
11752TIP3   OH256746   3.507   1.670   0.702 -0.4083  0.5308  0.2438
11752TIP3    H156747   3.459   1.731   0.759 -2.0083  0.5133 -1.0282
11752TIP3    H256748   3.490   1.702   0.614 -1.1426 -1.6166 -0.4497
11753TIP3   OH256749   4.751   3.949  14.274  0.1804  0.5428 -0.5741
11753TIP3    H156750   4.672   3.929  14.224 -0.1151  0.4541 -0.0797
11753TIP3    H256751   4.790   3.864  14.292  0.0536  0.5411 -0.2895
11754TIP3   OH256752   4.830   0.454   6.230 -0.6974  0.3461  0.0231
11754TIP3    H156753   4.758   0.403   6.194 -1.6723  1.8514 -0.2319
11754TIP3    H256754   4.825   0.439   6.324 -0.4069 -0.7139 -0.1148
11755TIP3   OH256755   2.274   0.702  14.033  0.1449 -0.0772 -0.1411
11755TIP3    H156756   2.289   0.608  14.041 -0.0078 -0.1398 -0.5724
11755TIP3    H256757   2.203   0.710  13.969  1.3908  0.4018 -1.5125
11756TIP3   OH256758   5.660   1.200   0.948  0.2717 -0.4350 -0.0317
11756TIP3    H156759   5.576   1.232   0.981  0.4433 -0.0629  0.0509
11756TIP3    H256760   5.721   1.215   1.021  0.2458 -1.4448  0.2077
11757TIP3   OH256761   2.672   4.343  10.745 -0.0075 -0.2147  0.5055
11757TIP3    H156762   2.713   4.266  10.705  0.7499 -0.0251  0.8872
11757TIP3    H256763   2.580   4.336  10.722  0.3724 -0.1667 -1.1650
11758TIP3   OH256764   6.188   5.715  11.990  0.0051  0.2952 -0.2949
11758TIP3    H156765   6.128   5.770  12.041  1.2379  1.4084  0.0082
11758TIP3    H256766   6.169   5.626  12.020 -1.2115  0.6592  0.0792
11759TIP3   OH256767   1.406   3.044  13.807  0.8174  0.0702 -0.1252
11759TIP3    H156768   1.397   3.134  13.839 -0.8256  0.3181 -1.2190
11759TIP3    H256769   1.344   2.994  13.859  2.7383 -0.7867  1.5100
11760TIP3   OH256770   3.890   6.107  12.008 -0.2607  0.1552  0.1945
11760TIP3    H156771   3.812   6.080  12.057 -1.4264  1.4894 -0.8161
11760TIP3    H256772   3.957   6.120  12.075 -0.9478 -0.8573  1.1158
11761TIP3   OH256773   2.112   1.212  12.028 -0.5654  0.2025  0.0724
11761TIP3    H156774   2.023   1.236  12.052 -0.6150  0.9990 -0.8736
11761TIP3    H256775   2.119   1.119  12.051 -1.3289  0.3610  0.9978
11762TIP3   OH256776   2.049   3.517   1.401  0.0564 -0.3002  0.1817
11762TIP3    H156777   1.967   3.497   1.447 -0.4522  0.4421 -0.3882
11762TIP3    H256778   2.111   3.452   1.435 -0.9131 -1.2649  0.1759
11763TIP3   OH256779   0.303   2.806  12.985 -0.3008  0.0966 -0.3658
11763TIP3    H156780   0.387   2.842  12.958 -0.3390  0.4338 -0.0490
11763TIP3    H256781   0.242   2.879  12.974 -0.1754  0.5234  1.4104
11764TIP3   OH256782   0.405   6.105  10.615  0.4273 -0.2799  0.1385
11764TIP3    H156783   0.402   6.144  10.527 -0.2646  0.6636  0.5746
11764TIP3    H256784   0.357   6.166  10.671 -1.9636 -2.4101  0.6072
11765TIP3   OH256785   5.041   2.125  11.121 -0.3899  0.2457  0.0208
11765TIP3    H156786   5.058   2.205  11.072 -0.6660  1.3536  1.6393
11765TIP3    H256787   4.975   2.078  11.069 -2.2764  2.3858  0.2987
11766TIP3   OH256788   4.216   6.332   1.402 -0.5088 -0.1521  0.2682
11766TIP3    H156789   4.285   6.366   1.346  0.5122 -1.4151  0.7246
11766TIP3    H256790   4.211   6.394   1.475  0.5952 -0.3722  0.5500
11767TIP3   OH256791   2.255   1.343   1.777  0.3198  1.1395  0.4217
11767TIP3    H156792   2.228   1.407   1.710 -0.7683  0.7270  0.4378
11767TIP3    H256793   2.189   1.351   1.846  0.0005 -0.1753  0.3003
11768TIP3   OH256794   4.333   2.329   4.395  0.3299  0.0799  0.1022
11768TIP3    H156795   4.361   2.238   4.404  1.6348  0.6406  2.4544
11768TIP3    H256796   4.409   2.381   4.420 -1.2794  1.7517  1.8791
11769TIP3   OH256797   2.097   1.660  13.879  0.1259  0.1612 -0.1615
11769TIP3    H156798   2.184   1.697  13.864  0.1392  1.0676  1.8291
11769TIP3    H256799   2.037   1.734  13.865  0.0995  0.9146  3.1770
11770TIP3   OH256800   2.321   4.142   5.669 -0.6290  0.0455 -0.0283
11770TIP3    H156801   2.266   4.067   5.646 -1.8486  0.9037  0.0076
11770TIP3    H256802   2.378   4.109   5.738  0.4012 -1.4633 -1.4958
11771TIP3   OH256803   6.784   2.569  13.321 -0.1334 -0.3006  0.0602
11771TIP3    H156804   6.780   2.664  13.309 -1.0916 -0.0901  1.7823
11771TIP3    H256805   6.874   2.551  13.348  0.3867 -0.0685 -1.4085
11772TIP3   OH256806   1.126   4.648   5.950 -0.6491  0.2509 -0.4421
11772TIP3    H156807   1.073   4.573   5.926 -0.9010  0.4534 -0.5213
11772TIP3    H256808   1.100   4.668   6.040  2.6435 -2.5816  1.3733
11773TIP3   OH256809   2.841   1.232  12.129 -0.1005  0.3965 -0.3963
11773TIP3    H156810   2.808   1.320  12.112 -3.6569 -0.6685  0.1945
11773TIP3    H256811   2.775   1.192  12.186  1.9213 -2.3312  0.2435
11774TIP3   OH256812   4.924   3.364   0.036  1.3401 -0.3280  0.7629
11774TIP3    H156813   5.013   3.350   0.004  0.8233  0.9379 -1.3737
11774TIP3    H256814   4.888   3.432  -0.021 -2.0402 -2.9014 -0.4506
11775TIP3   OH256815   3.310   2.055  14.504 -0.0024 -0.3648  0.0298
11775TIP3    H156816   3.335   1.973  14.547 -1.6115 -0.4435  0.8695
11775TIP3    H256817   3.217   2.065  14.522  0.0878  1.5092 -0.2915
11776TIP3   OH256818   3.167   3.405   1.661 -0.5764  0.4060 -0.0881
11776TIP3    H156819   3.219   3.397   1.741 -0.5546  0.2733 -0.1149
11776TIP3    H256820   3.077   3.394   1.691 -0.5363 -0.0735 -0.1433
11777TIP3   OH256821   2.002   3.661   1.174  0.2866 -0.2665 -0.6417
11777TIP3    H156822   2.090   3.696   1.178  0.1922 -0.0833 -0.1794
11777TIP3    H256823   1.988   3.618   1.258 -0.2564  0.1693 -0.5011
11778TIP3   OH256824   6.727   1.393   1.613  0.4172 -0.3403  0.1682
11778TIP3    H156825   6.633   1.415   1.613  0.3500 -0.5373  1.3698
11778TIP3    H256826   6.771   1.476   1.631  0.3518 -0.5670  1.4560
11779TIP3   OH256827   2.687   1.052   5.274 -0.3666  0.3524 -0.7870
11779TIP3    H156828   2.622   1.037   5.204  0.6087 -0.6396 -1.5097
11779TIP3    H256829   2.758   1.099   5.231  0.7090 -1.1623 -0.7515
11780TIP3   OH256830   0.886   5.536   2.629  0.7451  0.2120  0.2293
11780TIP3    H156831   0.915   5.448   2.654  0.6939 -0.1165 -0.7954
11780TIP3    H256832   0.793   5.537   2.653  1.2927  0.8937  2.5351
11781TIP3   OH256833   1.760   6.033  11.981 -0.4572  0.1608  0.5582
11781TIP3    H156834   1.679   6.082  11.965 -0.7408 -0.7710 -1.0861
11781TIP3    H256835   1.828   6.086  11.940 -0.3212  0.5607  1.2742
11782TIP3   OH256836   3.815   3.360  12.661 -0.1152 -0.0865 -0.1635
11782TIP3    H156837   3.748   3.296  12.640 -0.1661 -0.4759  1.1347
11782TIP3    H256838   3.767   3.443  12.671 -0.2968 -0.2063 -0.0426
11783TIP3   OH256839   3.441   6.659   1.968 -0.3840 -0.5362 -0.1493
11783TIP3    H156840   3.445   6.571   1.930  0.2666 -0.8236  0.5632
11783TIP3    H256841   3.366   6.699   1.926 -1.1186 -1.6791  0.0161
11784TIP3   OH256842   2.467   6.371  15.885  0.0609  0.1880 -0.0485
11784TIP3    H156843   2.471   6.287  15.931 -3.0191 -1.0530 -1.7568
11784TIP3    H256844   2.538   6.367  15.821  1.2244 -0.1747  1.2151
11785TIP3   OH256845   6.759   0.405  16.381 -0.1660  0.1550  0.5950
11785TIP3    H156846   6.680   0.383  16.330 -0.4034  0.0430  1.0051
11785TIP3    H256847   6.773   0.498  16.364  0.6397 -0.2093 -0.8784
11786TIP3   OH256848   4.238   2.244   3.554 -0.5437  0.2294  0.8151
11786TIP3    H156849   4.148   2.273   3.568 -0.5633  0.3126  0.5161
11786TIP3    H256850   4.231   2.175   3.488 -0.4245 -0.0029  1.0401
11787TIP3   OH256851   4.073   5.617   2.405 -0.4422 -0.1475  0.1331
11787TIP3    H156852   4.094   5.630   2.313 -0.4555 -0.3545  0.0983
11787TIP3    H256853   4.050   5.524   2.411 -1.2761  0.0546  0.1801
11788TIP3   OH256854   0.161   1.922   0.289 -0.2859  0.1871  0.2909
11788TIP3    H156855   0.158   1.891   0.199 -0.9779 -1.7336  0.9263
11788TIP3    H256856   0.082   1.888   0.330  0.1515  0.7688  1.7119
11789TIP3   OH256857   5.048   3.547   6.033 -0.6699  0.2637 -0.6822
11789TIP3    H156858   5.069   3.634   6.067 -1.9601 -0.2103  1.5411
11789TIP3    H256859   5.110   3.488   6.075 -1.0772 -0.1144 -0.5928
11790TIP3   OH256860   6.616   2.853  16.765 -0.1517 -0.0667 -0.4522
11790TIP3    H156861   6.554   2.914  16.724  0.1148  0.9467  0.5793
11790TIP3    H256862   6.690   2.849  16.705 -0.9315 -0.7984 -1.3954
11791TIP3   OH256863   0.045   6.077   1.313  0.1761 -0.2827 -0.1112
11791TIP3    H156864  -0.037   6.057   1.268 -1.5544  2.7454  1.3872
11791TIP3    H256865   0.055   6.005   1.376 -2.1084 -0.0680  0.6070
11792TIP3   OH256866   0.754   5.714   4.185 -0.0455 -0.0308 -0.3420
11792TIP3    H156867   0.678   5.726   4.128 -0.3957 -1.3827 -0.1854
11792TIP3    H256868   0.764   5.620   4.194 -0.6174  0.0952  2.6489
11793TIP3   OH256869   2.727   4.896   2.673 -0.3687  0.0502  0.0732
11793TIP3    H156870   2.668   4.826   2.645  1.7093 -0.8412 -2.3936
11793TIP3    H256871   2.798   4.851   2.719  1.2793  0.3543 -2.0279
11794TIP3   OH256872   5.899   2.104  15.009  0.4848  0.1158 -0.2114
11794TIP3    H156873   5.926   2.046  14.938  3.0361  1.3682 -0.3672
11794TIP3    H256874   5.857   2.046  15.073 -0.6865 -1.2290 -2.0927
11795TIP3   OH256875   2.083   0.252  13.068  0.7572 -0.6628  0.2181
11795TIP3    H156876   2.114   0.332  13.025  1.4230 -0.9002  0.2597
11795TIP3    H256877   2.098   0.183  13.005  0.6321 -0.8355  0.3754
11796TIP3   OH256878   1.520   2.277  14.773 -0.7245 -0.5770  0.1680
11796TIP3    H156879   1.427   2.296  14.756 -0.8757 -0.8068  0.7258
11796TIP3    H256880   1.525   2.182  14.777 -0.0442 -0.7178 -2.1476
11797TIP3   OH256881   0.840   5.172  15.320 -0.4682 -0.0496  0.0403
11797TIP3    H156882   0.894   5.231  15.267 -0.4210  0.6532  0.8472
11797TIP3    H256883   0.902   5.131  15.380 -0.4969 -0.9676 -0.5326
11798TIP3   OH256884   5.667   4.199   5.060  0.2771  0.7133 -0.1186
11798TIP3    H156885   5.622   4.239   5.135 -1.0335 -0.7555 -0.0621
11798TIP3    H256886   5.749   4.248   5.053 -1.0936  3.2350  0.0625
11799TIP3   OH256887   2.378   4.679   3.509 -0.0512  0.1763  0.0025
11799TIP3    H156888   2.454   4.657   3.455 -0.7893  0.3122 -1.1410
11799TIP3    H256889   2.309   4.698   3.445 -0.6749  1.3794  0.9957
11800TIP3   OH256890   2.438   2.234   1.923 -0.1513  0.5991 -0.0939
11800TIP3    H156891   2.506   2.170   1.942 -0.0992  0.3931 -0.9074
11800TIP3    H256892   2.356   2.188   1.943 -0.1072  0.3245 -0.5269
11801TIP3   OH256893   3.379   5.764   0.733  0.0079  0.4389 -0.0767
11801TIP3    H156894   3.442   5.805   0.792 -0.7084  1.8843 -0.2689
11801TIP3    H256895   3.423   5.685   0.702  0.6591 -0.0201  1.8662
11802TIP3   OH256896   2.455   3.148   1.761  0.2008 -0.0337 -0.5527
11802TIP3    H156897   2.360   3.156   1.763  0.1901  0.3305 -1.9462
11802TIP3    H256898   2.477   3.105   1.844 -0.9585  1.9663  0.8800
11803TIP3   OH256899   4.716   1.005   3.566  0.5732 -0.2289  0.3760
11803TIP3    H156900   4.760   1.000   3.651 -0.3059 -0.5383  0.8227
11803TIP3    H256901   4.787   1.008   3.503  1.2404 -0.4562  1.0989
11804TIP3   OH256902   0.653   1.553   3.867  0.1396 -0.1706 -0.2370
11804TIP3    H156903   0.592   1.518   3.802 -0.2448  2.2929 -1.3449
11804TIP3    H256904   0.618   1.524   3.951 -1.2691 -0.7116 -0.9730
11805TIP3   OH256905   2.574   1.152   4.660 -0.1716  0.0573  0.3907
11805TIP3    H156906   2.630   1.205   4.718 -1.4568  3.2117 -1.0113
11805TIP3    H256907   2.636   1.111   4.600  0.9244 -0.3454  1.7342
11806TIP3   OH256908   1.452   5.080   1.414  0.6393 -0.3673  0.3722
11806TIP3    H156909   1.545   5.104   1.414  0.1100  1.9375  0.4881
11806TIP3    H256910   1.406   5.163   1.428 -1.5337 -1.1082 -1.6510
11807TIP3   OH256911   1.260   5.181  15.277  0.1661  0.1017  0.2728
11807TIP3    H156912   1.187   5.201  15.335 -0.3974 -1.0070 -0.0315
11807TIP3    H256913   1.286   5.266  15.241 -1.6124  0.4120 -0.3785
11808TIP3   OH256914   1.062   1.468  15.061  0.1872  0.4235  0.0588
11808TIP3    H156915   0.980   1.470  15.109  0.4050 -0.2587  0.4656
11808TIP3    H256916   1.040   1.433  14.975 -0.1631  1.4344 -0.2781
11809TIP3   OH256917   3.956   6.214  13.931 -0.0628 -0.7997 -0.0969
11809TIP3    H156918   3.879   6.207  13.986 -0.0578 -0.6456 -0.0705
11809TIP3    H256919   4.015   6.272  13.978 -0.5431  0.2979 -0.8084
11810TIP3   OH256920   5.992   1.798   5.113 -0.2608  0.0349 -0.6968
11810TIP3    H156921   5.925   1.834   5.172  1.5134  1.9729  0.2847
11810TIP3    H256922   6.075   1.829   5.150  1.0828 -0.8106 -2.8356
11811TIP3   OH256923   5.444   3.642   1.024  0.2123 -0.3949 -0.8272
11811TIP3    H156924   5.489   3.699   0.962 -0.5792 -0.1303 -1.1804
11811TIP3    H256925   5.510   3.580   1.053  1.4306  1.3902  0.4544
11812TIP3   OH256926   4.283   3.660  13.811  0.0208  0.1082  0.5917
11812TIP3    H156927   4.191   3.683  13.799 -0.5533 -1.3424  1.8639
11812TIP3    H256928   4.290   3.570  13.780  1.8938  1.3103 -2.9975
11813TIP3   OH256929   0.576   6.017  11.838  0.5628  0.5652 -0.2447
11813TIP3    H156930   0.511   6.034  11.770  1.1366  3.5409 -0.1596
11813TIP3    H256931   0.660   6.034  11.796  1.6598 -4.3336 -0.7084
11814TIP3   OH256932   3.025   5.030  13.966 -0.1085  0.4085 -0.1882
11814TIP3    H156933   2.971   5.105  13.993  0.4992  0.7198  0.1856
11814TIP3    H256934   3.110   5.069  13.943  1.3684 -0.4512  3.2110
11815TIP3   OH256935   2.975   4.603   0.876 -0.2556 -0.4990 -0.0540
11815TIP3    H156936   2.891   4.627   0.837 -0.3665 -1.6881 -0.5926
11815TIP3    H256937   3.038   4.611   0.805 -0.2034 -1.1903 -0.0983
11816TIP3   OH256938   0.344   4.384  15.731 -0.0251 -0.2389  0.2385
11816TIP3    H156939   0.439   4.383  15.718 -0.1439 -0.6207 -0.6655
11816TIP3    H256940   0.318   4.291  15.727 -0.1797 -0.3644  2.6008
11817TIP3   OH256941   3.435   1.482  12.539  0.4889 -0.0808 -0.4472
11817TIP3    H156942   3.379   1.529  12.478  0.0241 -2.2488 -1.7969
11817TIP3    H256943   3.492   1.428  12.484  0.9673 -1.1338  0.9995
11818TIP3   OH256944   4.574   5.302  13.256  0.0579  0.2711  0.1096
11818TIP3    H156945   4.651   5.257  13.220 -0.5004 -0.8750  0.3061
11818TIP3    H256946   4.586   5.394  13.231  1.7195  0.1959  0.5355
11819TIP3   OH256947   2.422   5.267  16.283 -0.5022 -0.0959 -0.4589
11819TIP3    H156948   2.465   5.198  16.233  2.2762  0.5644  0.8046
11819TIP3    H256949   2.486   5.339  16.285 -2.0393  1.3388  0.8425
11820TIP3   OH256950   5.206   6.797  17.080 -0.0393  0.2815 -0.2614
11820TIP3    H156951   5.129   6.849  17.104 -1.7753 -2.1898 -0.1160
11820TIP3    H256952   5.170   6.712  17.053  2.6079 -0.7091 -0.9716
11821TIP3   OH256953   2.742   2.915   3.218 -0.2303  0.0608 -0.0150
11821TIP3    H156954   2.828   2.942   3.249 -0.3500  1.1315 -0.5713
11821TIP3    H256955   2.749   2.820   3.207  1.4626  0.3459 -1.8378
11822TIP3   OH256956   4.829   5.364  14.205  0.2430  0.0281  0.3494
11822TIP3    H156957   4.871   5.278  14.196 -0.6770 -0.3363 -0.5743
11822TIP3    H256958   4.899   5.426  14.184  1.2104 -0.4163  2.0404
11823TIP3   OH256959   4.199   5.468   0.644 -0.2130  0.1147 -0.1323
11823TIP3    H156960   4.203   5.544   0.702  0.1507 -0.0955  0.1226
11823TIP3    H256961   4.181   5.394   0.702 -1.2874  0.0997 -0.4647
11824TIP3   OH256962   6.423   4.922   3.797 -0.1612 -0.7765  0.3793
11824TIP3    H156963   6.469   4.902   3.716  1.0094  2.9834 -0.0349
11824TIP3    H256964   6.332   4.894   3.780  0.3684 -1.4461 -1.6023
11825TIP3   OH256965   4.076   1.381  11.829  0.8021  0.2069 -0.6100
11825TIP3    H156966   4.058   1.469  11.861  2.0302  0.3256 -0.2181
11825TIP3    H256967   4.005   1.327  11.865  1.0740  0.6918  0.6729
11826TIP3   OH256968   4.429   3.712   5.958 -0.1468 -0.4466 -0.3066
11826TIP3    H156969   4.417   3.617   5.952 -1.8734 -0.2930  0.3507
11826TIP3    H256970   4.379   3.738   6.035  1.3187  0.8569  0.2569
11827TIP3   OH256971   5.480   3.473   2.674 -0.4431 -0.0542 -0.1518
11827TIP3    H156972   5.447   3.471   2.584  1.0436  0.5366 -0.7414
11827TIP3    H256973   5.403   3.495   2.727 -1.4561 -0.9156 -1.1946
11828TIP3   OH256974   3.724   5.860   3.517  0.1438  0.1005 -0.3660
11828TIP3    H156975   3.746   5.783   3.570 -0.8907 -0.2236 -0.3816
11828TIP3    H256976   3.746   5.835   3.428  1.1548  0.3598 -0.2011
11829TIP3   OH256977   2.875   0.012  16.822 -0.0071  0.2335 -0.6102
11829TIP3    H156978   2.793   0.060  16.829  0.7480  1.5479 -0.4223
11829TIP3    H256979   2.867  -0.037  16.740 -1.4881 -0.6982  0.0632
11830TIP3   OH256980   6.740   4.557  16.235  0.2511  0.6371 -0.1705
11830TIP3    H156981   6.659   4.586  16.277 -0.6740 -2.2340  0.2237
11830TIP3    H256982   6.809   4.588  16.293 -0.9382 -2.6393  3.4262
11831TIP3   OH256983   1.339   3.565   1.217  0.5746 -0.5379  0.9943
11831TIP3    H156984   1.359   3.563   1.311 -0.7969  1.7293  1.4073
11831TIP3    H256985   1.248   3.536   1.211 -0.8474  3.3113  1.0035
11832TIP3   OH256986   6.417   5.771   5.371 -0.0680  0.3212 -0.1945
11832TIP3    H156987   6.479   5.704   5.343 -0.5541 -0.9491  1.6204
11832TIP3    H256988   6.338   5.755   5.319  0.8010  1.4698 -1.9654
11833TIP3   OH256989   0.337   1.134   1.540  0.5135  0.1079  0.0801
11833TIP3    H156990   0.358   1.223   1.569 -0.6271  1.1070 -1.8835
11833TIP3    H256991   0.242   1.129   1.547  0.6864 -2.0356  2.7954
11834TIP3   OH256992   4.563   2.619   3.061  0.0194  0.1872 -0.2062
11834TIP3    H156993   4.531   2.688   3.003 -2.0324 -0.8473 -0.4061
11834TIP3    H256994   4.526   2.641   3.147  1.4637  0.6701  0.3263
11835TIP3   OH256995   3.658   4.716  11.821 -0.3896  0.3562  0.0758
11835TIP3    H156996   3.663   4.740  11.728 -0.7822  0.3419  0.0465
11835TIP3    H256997   3.585   4.654  11.825 -0.8103  0.8651  0.4890
11836TIP3   OH256998   6.550   2.930   3.927  0.3480 -0.2869 -0.2800
11836TIP3    H156999   6.502   2.995   3.875 -0.6602 -0.4325  0.4448
11836TIP3    H257000   6.636   2.925   3.885  0.8925  2.3823  0.3251
11837TIP3   OH257001   5.679   2.012  16.047  0.3271 -0.3750 -0.0257
11837TIP3    H157002   5.762   2.055  16.026  0.0207  0.0130 -0.4499
11837TIP3    H257003   5.612   2.067  16.006 -0.2117 -0.1311  1.1372
11838TIP3   OH257004   0.894   5.472  12.887 -0.0269 -0.6147  0.0136
11838TIP3    H157005   0.935   5.539  12.832  0.4117  0.1770  1.2699
11838TIP3    H257006   0.812   5.451  12.842 -0.7265  1.5763  0.1444
11839TIP3   OH257007   1.165   4.961  13.702  0.1466  0.0289  0.1246
11839TIP3    H157008   1.175   4.989  13.611  0.2494 -0.0942  0.0978
11839TIP3    H257009   1.111   5.029  13.742  2.3842  1.5892  0.6892
11840TIP3   OH257010   2.424   3.334   2.987  0.3763 -0.0006  0.1420
11840TIP3    H157011   2.349   3.354   3.042 -2.5856 -2.9534 -2.4350
11840TIP3    H257012   2.473   3.267   3.035 -1.0543 -1.1055  0.1154
11841TIP3   OH257013   4.280   0.322  14.218  0.5613 -0.5567  0.5005
11841TIP3    H157014   4.253   0.376  14.144 -1.3115  0.3073  1.7199
11841TIP3    H257015   4.371   0.348  14.235  0.6198  0.0999 -0.7098
11842TIP3   OH257016   3.384   2.280  12.388 -0.4150  0.4510  0.6359
11842TIP3    H157017   3.294   2.249  12.400  0.0608 -1.4032 -0.2534
11842TIP3    H257018   3.437   2.200  12.391  0.9984  1.2976 -0.7337
11843TIP3   OH257019   1.949   1.927   4.504 -0.3055 -0.5725 -0.1831
11843TIP3    H157020   1.981   1.994   4.564  2.1460  0.2514 -2.2082
11843TIP3    H257021   1.956   1.845   4.553 -1.1432  0.3444  1.5597
11844TIP3   OH257022   4.000   4.768  17.065  0.2405 -0.2968 -0.2685
11844TIP3    H157023   3.941   4.714  17.011  0.1842 -0.0134 -0.4946
11844TIP3    H257024   4.001   4.724  17.150 -0.0194 -0.5034 -0.3699
11845TIP3   OH257025   3.670   1.932  13.591 -0.4503  0.2210 -0.3306
11845TIP3    H157026   3.659   1.966  13.680 -0.1131 -0.4150 -0.0355
11845TIP3    H257027   3.612   1.986  13.537 -1.4876 -0.0830  0.4464
11846TIP3   OH257028   4.348   1.367   5.433  0.7405 -0.4345  0.1826
11846TIP3    H157029   4.364   1.362   5.339 -3.1752 -2.1383 -0.6054
11846TIP3    H257030   4.281   1.435   5.442 -0.1360 -1.4266  1.4822
11847TIP3   OH257031   6.807   3.320  14.706 -0.5038 -0.2284 -0.1053
11847TIP3    H157032   6.887   3.294  14.660 -1.0091 -2.6345  0.2396
11847TIP3    H257033   6.765   3.382  14.646  1.5243  1.0531 -0.3258
11848TIP3   OH257034   5.646   2.079  15.323  0.3470 -0.1830  0.1594
11848TIP3    H157035   5.633   2.174  15.314  2.2843 -0.0554 -2.5902
11848TIP3    H257036   5.735   2.070  15.355 -0.1551 -1.1191  1.3598
11849TIP3   OH257037   0.989   5.638  11.389  0.4594 -0.2185  0.0875
11849TIP3    H157038   0.911   5.582  11.389 -0.2009  0.6893 -0.1271
11849TIP3    H257039   0.993   5.673  11.478 -0.3989  1.1142 -0.3755
11850TIP3   OH257040   5.792   6.221   4.580 -0.6226 -0.5652 -0.2034
11850TIP3    H157041   5.827   6.154   4.639 -0.3641  1.1577  1.6720
11850TIP3    H257042   5.697   6.208   4.583 -0.7216  0.3323  1.7014
11851TIP3   OH257043   2.895   6.160  15.704  0.5314  0.6115 -0.0767
11851TIP3    H157044   2.924   6.130  15.790 -0.6237 -2.4886 -0.6642
11851TIP3    H257045   2.828   6.225  15.723 -3.0665 -3.1703  1.6898
11852TIP3   OH257046   3.309   4.617  12.870  0.1782  0.2865 -0.3749
11852TIP3    H157047   3.332   4.645  12.781  1.0212 -2.0920 -0.9800
11852TIP3    H257048   3.238   4.555  12.857 -0.1808  0.4691  0.6905
11853TIP3   OH257049   6.069   3.253   1.259  0.0470  0.1852 -0.1644
11853TIP3    H157050   6.107   3.341   1.255  0.1807  0.1263 -0.1940
11853TIP3    H257051   6.145   3.194   1.265 -0.0388  0.0646 -0.2554
11854TIP3   OH257052   2.252   3.048   2.134 -0.1776 -0.3116 -0.2779
11854TIP3    H157053   2.181   3.024   2.193  1.8763  0.1887  2.6027
11854TIP3    H257054   2.299   2.966   2.119  0.1609 -0.1776  0.0316
11855TIP3   OH257055   6.781   1.751   4.306  0.4843  0.3836  0.0624
11855TIP3    H157056   6.694   1.792   4.300 -0.9337 -2.5962 -2.3671
11855TIP3    H257057   6.794   1.737   4.399 -2.0168  0.2966  0.4842
11856TIP3   OH257058   6.772   6.379  13.730 -0.9861 -0.3427  0.5137
11856TIP3    H157059   6.789   6.416  13.643 -0.5882  0.1798  0.8102
11856TIP3    H257060   6.852   6.394  13.779 -0.1292 -3.0990  0.1659
11857TIP3   OH257061   5.126   0.665   3.358  0.3672 -0.2035  0.0785
11857TIP3    H157062   5.158   0.585   3.317 -0.4865 -0.6408  0.2365
11857TIP3    H257063   5.031   0.659   3.352  0.2308  0.0539  1.4771
11858TIP3   OH257064   0.212   1.698   5.709  0.6036  0.3889 -0.5074
11858TIP3    H157065   0.136   1.646   5.683  0.6243  0.1003 -0.0037
11858TIP3    H257066   0.200   1.713   5.803  2.2098 -1.4707  0.0649
11859TIP3   OH257067   5.438   2.818  11.876 -0.2657  0.4983  0.4057
11859TIP3    H157068   5.423   2.860  11.791 -0.3041 -0.6095 -0.1574
11859TIP3    H257069   5.518   2.859  11.909  0.3062  0.2625 -0.6362
11860TIP3   OH257070   2.834   2.316  16.083 -0.7276 -0.3719  0.4948
11860TIP3    H157071   2.921   2.347  16.055  0.5182 -1.2468  3.1556
11860TIP3    H257072   2.796   2.279  16.003  0.8852  0.9186 -0.9823
11861TIP3   OH257073   4.831   5.659  15.936 -0.2035  0.2302 -0.4514
11861TIP3    H157074   4.751   5.610  15.918  0.2946 -0.2551 -1.4144
11861TIP3    H257075   4.802   5.750  15.944 -0.7131  0.2381 -2.0330
11862TIP3   OH257076   3.648   3.482   2.350  0.2824 -0.5648  0.4622
11862TIP3    H157077   3.669   3.392   2.373 -0.1284 -0.4105  1.5273
11862TIP3    H257078   3.684   3.534   2.422 -2.0509 -0.1491  1.4318
11863TIP3   OH257079   4.637   5.529   0.277  0.3350  0.0109  0.2668
11863TIP3    H157080   4.707   5.582   0.315  0.8569  0.9883 -1.9226
11863TIP3    H257081   4.557   5.566   0.313  0.8298 -0.3528  1.8624
11864TIP3   OH257082   3.790   5.395  12.326 -0.0619 -0.2714 -0.7057
11864TIP3    H157083   3.858   5.402  12.393  0.7366  0.0822 -1.5206
11864TIP3    H257084   3.710   5.427  12.368  0.3611 -0.3351  0.1545
11865TIP3   OH257085   6.464   3.540  15.633  0.1035  0.1015  0.1692
11865TIP3    H157086   6.425   3.469  15.684  0.1303  0.4205  0.6432
11865TIP3    H257087   6.516   3.496  15.566  1.9111 -0.3608  1.8074
11866TIP3   OH257088   1.078   2.387   3.524  0.2248 -0.2473  0.2065
11866TIP3    H157089   1.083   2.294   3.502  0.8234 -0.3393  0.6826
11866TIP3    H257090   1.059   2.388   3.618  0.2541  0.1090  0.2091
11867TIP3   OH257091   5.401   3.225   4.321 -0.3074 -0.3643  0.1017
11867TIP3    H157092   5.421   3.298   4.380 -0.6865  0.2230 -0.4809
11867TIP3    H257093   5.321   3.186   4.356 -2.0256  1.5890 -1.4214
11868TIP3   OH257094   0.121   0.570  11.882  1.0079  0.1227  0.1351
11868TIP3    H157095   0.160   0.515  11.950  0.2482  0.2460  0.6740
11868TIP3    H257096   0.167   0.654  11.890 -0.8963  1.0598  2.3355
11869TIP3   OH257097   3.744   0.515  15.056 -0.1887 -0.6831  0.6768
11869TIP3    H157098   3.681   0.549  14.991  0.3906 -1.0213 -0.0699
11869TIP3    H257099   3.763   0.591  15.111  0.2359 -0.0531 -0.2952
11870TIP3   OH257100   2.260   3.208   0.677 -0.7524  0.4660 -0.1532
11870TIP3    H157101   2.271   3.303   0.674 -1.1088  0.5991  1.7575
11870TIP3    H257102   2.308   3.175   0.600  1.0170  2.0246  0.2373
11871TIP3   OH257103   4.674   6.357  16.625 -0.1369  0.1422  0.3400
11871TIP3    H157104   4.760   6.389  16.599  0.0304 -2.3008 -2.7261
11871TIP3    H257105   4.613   6.411  16.576 -0.2672  0.5089  0.8951
11872TIP3   OH257106   1.517   3.419   0.303 -0.3810 -0.2250 -0.1001
11872TIP3    H157107   1.609   3.399   0.286 -0.2365  1.5055 -1.5904
11872TIP3    H257108   1.486   3.462   0.224 -2.8045 -1.6640 -0.0358
11873TIP3   OH257109   4.854   4.544  14.677  0.3241  0.5779  0.2267
11873TIP3    H157110   4.800   4.518  14.751  2.1988 -0.8721  1.1921
11873TIP3    H257111   4.925   4.480  14.675  1.5253  1.8414 -1.5001
11874TIP3   OH257112   1.203   0.770  15.685  0.1278  0.3553 -0.0526
11874TIP3    H157113   1.271   0.742  15.746 -0.2506 -0.6261 -0.0596
11874TIP3    H257114   1.124   0.774  15.738 -0.2731 -0.8442 -0.5235
11875TIP3   OH257115   5.471   5.314   0.198 -0.0829 -0.0194 -0.2455
11875TIP3    H157116   5.542   5.378   0.196 -0.2769  0.1985 -0.1487
11875TIP3    H257117   5.452   5.302   0.291  1.8775 -2.3469 -0.0343
11876TIP3   OH257118   3.935   2.064  12.777 -0.1582 -0.3397  0.0014
11876TIP3    H157119   3.881   2.088  12.853  0.9063  0.7471  0.4634
11876TIP3    H257120   3.992   1.995  12.810  1.0852  0.8989  0.5956
11877TIP3   OH257121   2.675   2.314  12.317  0.9276 -0.1699  0.1275
11877TIP3    H157122   2.589   2.279  12.338  0.2843 -0.2024 -2.3100
11877TIP3    H257123   2.711   2.342  12.402 -0.0372 -3.2259  1.7238
11878TIP3   OH257124   6.318   2.070  14.002 -0.0480  0.6719  0.5332
11878TIP3    H157125   6.285   2.095  13.916  1.2733 -2.1254 -0.9292
11878TIP3    H257126   6.256   2.004  14.034  0.7551 -0.0941  0.5677
11879TIP3   OH257127   6.792   2.683   3.528 -0.7646  0.0521  0.1980
11879TIP3    H157128   6.846   2.608   3.555 -1.3914 -0.4809 -0.0126
11879TIP3    H257129   6.702   2.651   3.532 -1.0085  0.6397 -0.3968
11880TIP3   OH257130   6.172   4.834   3.871 -0.5640  0.0879 -0.0089
11880TIP3    H157131   6.114   4.765   3.839  0.5736 -1.1059  0.3975
11880TIP3    H257132   6.126   4.869   3.948 -2.1672  1.3225 -1.4676
11881TIP3   OH257133   6.134   0.077   1.786 -0.3911  0.2310 -0.0402
11881TIP3    H157134   6.067   0.146   1.781 -1.1599 -0.5027 -0.0749
11881TIP3    H257135   6.206   0.116   1.835 -0.1106  1.6346 -1.4839
11882TIP3   OH257136   4.033   5.807  16.399 -0.1355  0.6999  0.7790
11882TIP3    H157137   4.072   5.720  16.409  0.0072  0.0416 -3.4320
11882TIP3    H257138   3.941   5.794  16.424  0.3680 -0.0323  2.3633
11883TIP3   OH257139   1.304   1.474  11.315  0.0229  0.0139 -0.1087
11883TIP3    H157140   1.329   1.399  11.368  1.4005  0.7914  0.3807
11883TIP3    H257141   1.330   1.450  11.226 -0.2389 -0.3861 -0.0803
11884TIP3   OH257142   1.926   2.516   6.426 -0.1491  0.0564 -0.2766
11884TIP3    H157143   1.871   2.594   6.429  0.1535  0.2982 -0.8381
11884TIP3    H257144   1.902   2.466   6.505 -2.0364 -0.4391 -1.1086
11885TIP3   OH257145   5.673   4.715  13.063 -0.1340 -0.0892  0.4792
11885TIP3    H157146   5.742   4.652  13.086 -0.9137 -0.2098  2.6430
11885TIP3    H257147   5.594   4.680  13.102 -1.2226  0.6917 -0.9268
11886TIP3   OH257148   3.512   1.589  10.641 -0.2241 -0.0272 -0.1505
11886TIP3    H157149   3.530   1.513  10.696 -1.6382  1.6086  2.8283
11886TIP3    H257150   3.422   1.575  10.610 -0.6864  0.6098  0.8462
11887TIP3   OH257151   6.268   6.664   1.653  0.2119  0.0405  0.0657
11887TIP3    H157152   6.189   6.704   1.617  0.5015  0.3788 -0.2041
11887TIP3    H257153   6.317   6.737   1.691  0.8845 -0.0034 -0.6937
11888TIP3   OH257154   5.738   4.943   1.312 -0.1719 -1.0370  0.5391
11888TIP3    H157155   5.660   4.897   1.280 -0.8717 -0.5204  1.4556
11888TIP3    H257156   5.793   4.954   1.234 -2.0634  0.7003 -0.6448
11889TIP3   OH257157   0.060   6.110   5.570  0.7663 -0.1838 -0.5502
11889TIP3    H157158  -0.028   6.097   5.605  0.6701 -0.1999 -0.7903
11889TIP3    H257159   0.108   6.156   5.638  0.1546  1.1277 -0.9865
11890TIP3   OH257160   1.817   5.223  14.226  0.3254  0.2502 -0.6160
11890TIP3    H157161   1.794   5.142  14.272  0.9481 -0.0417 -0.8068
11890TIP3    H257162   1.763   5.222  14.147 -1.6984  1.3682  0.6511
11891TIP3   OH257163   0.322   5.582   3.663 -0.0638 -0.7222 -0.0894
11891TIP3    H157164   0.236   5.592   3.705 -0.8678  0.6725 -1.8907
11891TIP3    H257165   0.302   5.585   3.569  2.0396  0.6221 -0.5540
11892TIP3   OH257166   4.166   1.298  16.125  0.2165  0.1215 -0.1836
11892TIP3    H157167   4.232   1.357  16.088  1.1682 -2.5005 -3.0124
11892TIP3    H257168   4.090   1.308  16.068 -1.1680  1.4718  1.7482
11893TIP3   OH257169   3.764   5.892   4.925 -0.3662 -0.0291  0.4211
11893TIP3    H157170   3.681   5.881   4.878  0.0520 -3.8251  0.2234
11893TIP3    H257171   3.822   5.936   4.862 -1.9338  2.0486  0.3181
11894TIP3   OH257172   4.413   2.009  15.056 -0.1177  0.1520 -0.0033
11894TIP3    H157173   4.367   2.091  15.038  1.3413  1.7471  2.8397
11894TIP3    H257174   4.413   2.002  15.152  0.6331 -2.7118 -0.1307
11895TIP3   OH257175   5.184   1.006  12.698  0.1465  0.1905 -0.1445
11895TIP3    H157176   5.205   0.948  12.771 -1.5285 -0.5982 -0.2616
11895TIP3    H257177   5.269   1.030  12.662  0.9551 -0.3982  1.2853
11896TIP3   OH257178   3.799   3.534   2.571 -0.6675 -0.6689  0.4945
11896TIP3    H157179   3.883   3.511   2.610 -0.2845 -0.1864 -0.0249
11896TIP3    H257180   3.742   3.553   2.646  0.3741  1.3662  0.8493
11897TIP3   OH257181   4.500   1.468  12.468 -0.3443 -0.1148 -0.8817
11897TIP3    H157182   4.528   1.494  12.556  0.1421  0.5582 -1.2275
11897TIP3    H257183   4.413   1.429  12.482  0.7422 -2.3233  0.2097
11898TIP3   OH257184   5.666   4.205   5.667 -0.3550  0.3020 -0.2543
11898TIP3    H157185   5.579   4.173   5.643 -0.6487  0.5934  0.3816
11898TIP3    H257186   5.701   4.138   5.726 -0.1638  0.2070 -0.4740
11899TIP3   OH257187   0.973   1.714   3.217  0.0098  0.5445  0.0749
11899TIP3    H157188   1.020   1.686   3.295 -0.1595 -2.6663 -0.8631
11899TIP3    H257189   0.880   1.702   3.239 -0.0432 -0.2825 -0.5685
11900TIP3   OH257190   5.313   2.651   5.341 -0.4279  0.4520  0.4668
11900TIP3    H157191   5.390   2.596   5.355  0.7123  2.0035  0.5512
11900TIP3    H257192   5.345   2.723   5.286 -1.7943  1.1827  0.5929
11901TIP3   OH257193   4.090   3.977   4.131  0.3238 -0.3154 -0.6840
11901TIP3    H157194   4.181   3.990   4.156  0.4797  0.4048 -1.5369
11901TIP3    H257195   4.044   4.054   4.166  0.4411  0.4019 -2.0022
11902TIP3   OH257196   1.637   1.607  14.619 -0.3899 -0.6159 -0.2672
11902TIP3    H157197   1.700   1.667  14.578  0.2146 -0.6664  0.5533
11902TIP3    H257198   1.672   1.593  14.707  0.1814 -3.1899 -0.8164
11903TIP3   OH257199   0.181   6.072  13.909  0.6020  0.3520 -0.5794
11903TIP3    H157200   0.239   6.023  13.851  1.4150 -0.3646  0.7681
11903TIP3    H257201   0.239   6.109  13.975 -0.2341  1.5626 -0.4996
11904TIP3   OH257202   4.876   3.569  15.635  0.1331  0.1440 -0.3317
11904TIP3    H157203   4.897   3.639  15.573  2.1980  1.2234  1.4737
11904TIP3    H257204   4.945   3.504  15.622 -0.3217 -0.3686 -0.2194
11905TIP3   OH257205   6.345   4.682   2.726 -0.2976 -0.1374 -0.6203
11905TIP3    H157206   6.285   4.657   2.655 -1.9268 -0.9688  0.9603
11905TIP3    H257207   6.360   4.600   2.774  0.8389  0.3893 -0.0485
11906TIP3   OH257208   1.284   1.865   5.159 -0.5305 -0.5587 -0.5504
11906TIP3    H157209   1.360   1.809   5.174  0.4692  0.8971 -0.0562
11906TIP3    H257210   1.318   1.941   5.111 -1.0133  1.5838  2.2546
11907TIP3   OH257211   0.266   3.238   2.728  0.4001 -0.2308  0.2293
11907TIP3    H157212   0.325   3.265   2.658  0.1911 -0.6334 -0.1068
11907TIP3    H257213   0.201   3.183   2.684 -0.5359  0.6279  0.4890
11908TIP3   OH257214   2.409   1.094   6.275 -0.6263  0.0533  0.1618
11908TIP3    H157215   2.386   1.076   6.367  0.1213 -0.0651  0.3334
11908TIP3    H257216   2.355   1.034   6.224 -0.9987  0.0729  0.5261
11909TIP3   OH257217   6.652   3.299   1.107 -0.3014 -0.3913  0.7156
11909TIP3    H157218   6.681   3.351   1.031  2.5316 -1.0450  1.2193
11909TIP3    H257219   6.598   3.359   1.158 -0.2868  0.8175 -0.6349
11910TIP3   OH257220   2.223   3.517   6.041  0.4955 -0.1805  0.2724
11910TIP3    H157221   2.219   3.456   6.115 -0.3565  0.8910  1.1471
11910TIP3    H257222   2.140   3.504   5.995  0.3181  0.2850  0.4531
11911TIP3   OH257223   6.413   6.297  15.558 -0.3106  0.1323 -0.2804
11911TIP3    H157224   6.499   6.335  15.578  1.3409 -3.2112 -0.3538
11911TIP3    H257225   6.405   6.305  15.463  1.3025 -1.9758 -0.6636
11912TIP3   OH257226   1.279   5.925  16.513  0.2005 -0.4747  0.7910
11912TIP3    H157227   1.325   5.861  16.567  0.7981 -1.5690 -0.9425
11912TIP3    H257228   1.199   5.881  16.486  0.2226 -0.1929  0.2569
11913TIP3   OH257229   6.115   4.683  11.352  0.3491 -0.3164 -0.2617
11913TIP3    H157230   6.026   4.718  11.344  0.7530  0.8114  0.1343
11913TIP3    H257231   6.172   4.754  11.324  1.1522 -0.9017 -0.1401
11914TIP3   OH257232   6.261   3.686  13.838 -0.1232  0.0174  0.7263
11914TIP3    H157233   6.346   3.679  13.882  0.4638  1.5894 -0.0786
11914TIP3    H257234   6.225   3.769  13.867  0.4379  1.3045 -1.9201
11915TIP3   OH257235   3.870   2.391   2.228  0.1676 -0.2028 -0.1733
11915TIP3    H157236   3.825   2.467   2.264  0.3586 -0.6829  1.1162
11915TIP3    H257237   3.886   2.414   2.136  1.3581  1.8628  0.4760
11916TIP3   OH257238   2.729   1.520   4.618  0.1003  0.2859  0.0069
11916TIP3    H157239   2.719   1.470   4.537  1.1217  0.0337  0.0194
11916TIP3    H257240   2.653   1.578   4.620  0.0686  0.3117 -1.1345
11917TIP3   OH257241   6.216   1.556   5.247  0.3062  0.5010  0.2192
11917TIP3    H157242   6.261   1.634   5.218 -1.8736  1.6731 -0.2556
11917TIP3    H257243   6.214   1.563   5.343 -1.5763  2.1606  0.1408
11918TIP3   OH257244   6.171   5.091   6.098  0.2581  0.1518 -0.1895
11918TIP3    H157245   6.123   5.031   6.040  2.2722 -1.4909 -0.2651
11918TIP3    H257246   6.241   5.126   6.043  1.2552 -0.2210  0.8155
11919TIP3   OH257247   4.576   0.661  13.781  0.2409  0.3788  0.0983
11919TIP3    H157248   4.512   0.733  13.779 -3.1131 -2.3148  1.4765
11919TIP3    H257249   4.535   0.591  13.730  0.5933 -2.4900  3.3856
11920TIP3   OH257250   4.542   4.328   3.897  0.1573  0.0880  0.2356
11920TIP3    H157251   4.535   4.406   3.843  0.6750 -0.5711 -0.8049
11920TIP3    H257252   4.630   4.332   3.934 -0.0106  0.2664  0.6285
11921TIP3   OH257253   6.770   0.689  15.354 -0.5820 -0.0014  0.0086
11921TIP3    H157254   6.685   0.645  15.356 -0.1479 -0.8206  0.7537
11921TIP3    H257255   6.829   0.632  15.403  0.3290  0.7213 -0.2057
11922TIP3   OH257256   4.447   2.017   3.181  0.9233  0.0913  0.4235
11922TIP3    H157257   4.459   1.984   3.092 -2.5461 -2.1073  0.5866
11922TIP3    H257258   4.504   1.962   3.235  0.1407 -1.2691 -0.0775
11923TIP3   OH257259   0.846   3.206  15.634  0.3439 -0.2484  0.3889
11923TIP3    H157260   0.771   3.253  15.596  0.7803  0.1983  0.0660
11923TIP3    H257261   0.815   3.116  15.645 -1.1892  0.4852  2.8735
11924TIP3   OH257262   2.502   2.549   4.125 -0.3989  0.1448  0.5846
11924TIP3    H157263   2.526   2.462   4.093  1.0474  0.5515  0.4898
11924TIP3    H257264   2.413   2.562   4.093  1.1158  0.7975 -4.0373
11925TIP3   OH257265   0.685   5.655  14.212  0.1998 -0.5265 -0.2574
11925TIP3    H157266   0.739   5.610  14.277 -0.3290 -2.1478 -0.8832
11925TIP3    H257267   0.609   5.685  14.260  0.0506 -1.2760 -0.0103
11926TIP3   OH257268   5.423   3.519  13.046 -0.6550 -0.2232  0.2893
11926TIP3    H157269   5.462   3.549  13.128  0.5600 -2.5895  0.6523
11926TIP3    H257270   5.369   3.444  13.070 -0.1254 -1.0821 -1.0636
11927TIP3   OH257271   3.052   6.232  16.361 -0.2219 -0.0438  0.1064
11927TIP3    H157272   2.973   6.279  16.333  1.6590  3.1546 -0.2766
11927TIP3    H257273   3.092   6.202  16.279 -1.7350 -3.2886  0.3535
11928TIP3   OH257274   0.851   0.676  12.549  0.0710  0.2764  0.4070
11928TIP3    H157275   0.825   0.604  12.608 -1.0979  1.1282  0.9911
11928TIP3    H257276   0.927   0.715  12.592  0.2420 -0.1353  0.4879
11929TIP3   OH257277   3.815   5.558   0.136  0.3214 -0.1478  0.5644
11929TIP3    H157278   3.884   5.622   0.155 -0.7042  1.4709 -0.9300
11929TIP3    H257279   3.736   5.610   0.125 -0.6489 -1.7311 -0.3410
11930TIP3   OH257280   6.226   2.593   2.553  0.1403  0.2524 -0.3952
11930TIP3    H157281   6.219   2.669   2.495 -1.1256  0.6775  0.2624
11930TIP3    H257282   6.136   2.562   2.562  0.4969 -0.6159  0.2846
11931TIP3   OH257283   3.936   1.898   1.572  0.3265 -0.1261  0.0949
11931TIP3    H157284   3.996   1.901   1.497  0.5485  1.4914  0.2970
11931TIP3    H257285   3.983   1.945   1.641 -1.3080  1.5341  0.1456
11932TIP3   OH257286   6.710   5.106  16.893 -0.3643  0.1713  0.2046
11932TIP3    H157287   6.629   5.145  16.861 -0.0886  1.0828  0.5781
11932TIP3    H257288   6.718   5.138  16.983  0.4567  0.1849  0.1354
11933TIP3   OH257289   5.271   0.895  11.797  0.0207 -0.3111  0.5488
11933TIP3    H157290   5.292   0.868  11.887  0.5792 -0.0055  0.5151
11933TIP3    H257291   5.346   0.948  11.770 -0.7427  0.7153  0.3730
11934TIP3   OH257292   1.175   4.051   2.733  0.4593 -1.2929  0.0417
11934TIP3    H157293   1.083   4.066   2.712  1.2358  2.5390 -1.5715
11934TIP3    H257294   1.214   4.019   2.651  0.8297 -1.3620  0.2430
11935TIP3   OH257295   3.813   5.449  17.009  0.9793  0.3306  0.1803
11935TIP3    H157296   3.835   5.450  17.102  1.7567  0.1304  0.0026
11935TIP3    H257297   3.720   5.471  17.006  0.8061 -0.2261  1.0472
11936TIP3   OH257298   0.685   5.082   2.129 -0.2261  0.0024 -0.0224
11936TIP3    H157299   0.622   5.089   2.058 -0.6413 -1.3235  0.1964
11936TIP3    H257300   0.736   5.003   2.109  0.5602  0.3695  0.4450
11937TIP3   OH257301   6.075   1.684  12.097 -0.0875 -0.3042  0.4831
11937TIP3    H157302   6.043   1.772  12.077 -0.2963 -0.7828 -1.5130
11937TIP3    H257303   6.148   1.698  12.157  1.0430  1.3977 -1.1730
11938TIP3   OH257304   0.459   0.234  14.771  0.1401  0.0068  0.1546
11938TIP3    H157305   0.417   0.157  14.809  0.2075  0.6834  1.6637
11938TIP3    H257306   0.551   0.227  14.799  0.6863 -0.5175 -1.6100
11939TIP3   OH257307   5.553   4.940  14.936 -0.1810 -0.3949  0.2763
11939TIP3    H157308   5.534   4.943  15.030 -0.3269 -0.8980  0.2688
11939TIP3    H257309   5.647   4.923  14.931  0.2603  1.7509  0.3151
11940TIP3   OH257310   1.817   5.250   2.714 -0.0559  0.2975  0.1825
11940TIP3    H157311   1.857   5.192   2.649 -0.9653 -0.1180 -0.0104
11940TIP3    H257312   1.818   5.200   2.795 -0.9116 -0.0213 -0.0010
11941TIP3   OH257313   1.512   3.101  16.535 -0.2499 -0.2866 -0.0669
11941TIP3    H157314   1.521   3.011  16.565 -1.5896 -0.3911  0.0757
11941TIP3    H257315   1.591   3.117  16.482  0.2009 -1.3916  0.2567
11942TIP3   OH257316   3.542   3.213   3.526 -0.0267  0.0801 -0.4037
11942TIP3    H157317   3.521   3.120   3.520  1.1657 -0.1724 -1.0720
11942TIP3    H257318   3.613   3.218   3.590  1.7943  0.1413 -2.3260
11943TIP3   OH257319   3.452   6.095  16.344  1.3295  0.2252  0.0985
11943TIP3    H157320   3.475   6.023  16.403  0.9758  0.0091 -0.0251
11943TIP3    H257321   3.404   6.157  16.400 -0.2933 -0.6545 -0.2654
11944TIP3   OH257322   5.013   5.322  11.981  0.4667  0.2417  0.5661
11944TIP3    H157323   5.027   5.381  11.906 -2.0495 -1.2670 -1.2753
11944TIP3    H257324   4.998   5.380  12.055  0.4509  1.8771 -0.6666
11945TIP3   OH257325   4.286   5.503  11.102 -0.4131 -0.0334  0.5420
11945TIP3    H157326   4.197   5.475  11.083 -1.1954  2.8377 -0.4339
11945TIP3    H257327   4.326   5.517  11.017  0.7961 -0.7073  0.9782
11946TIP3   OH257328   5.953   1.055  13.029 -0.0294  0.1719  0.0809
11946TIP3    H157329   6.043   1.043  12.996  0.5017 -0.3002  1.6294
11946TIP3    H257330   5.908   1.102  12.958  1.3325  0.1074 -0.8742
11947TIP3   OH257331   6.428   0.886  12.840  0.2950 -0.1714  0.3258
11947TIP3    H157332   6.389   0.952  12.783  0.9534 -1.0339 -1.1625
11947TIP3    H257333   6.425   0.805  12.789  0.5566 -1.0619  1.6696
11948TIP3   OH257334   6.281   1.737  13.303  0.1232  0.0332  0.5637
11948TIP3    H157335   6.365   1.708  13.340  0.6276  1.8603  0.9293
11948TIP3    H257336   6.285   1.832  13.306 -2.2400  0.1669  1.1626
11949TIP3   OH257337   4.249   3.419   4.486  0.1835  0.0176  0.3296
11949TIP3    H157338   4.290   3.334   4.501  0.8619  0.2900  0.0393
11949TIP3    H257339   4.299   3.458   4.415  0.8469  1.3031  1.4497
11950TIP3   OH257340   5.752   3.546  16.548  0.4420  0.2265  0.0175
11950TIP3    H157341   5.799   3.547  16.464 -0.0862  0.2269 -0.2841
11950TIP3    H257342   5.673   3.598  16.532  1.3707  2.1007  1.1432
11951TIP3   OH257343   3.730   4.140  14.810  0.2312 -0.3079  0.1698
11951TIP3    H157344   3.744   4.189  14.729  1.3781 -1.1351 -0.1628
11951TIP3    H257345   3.758   4.051  14.789 -0.4034 -0.7670  1.1937
11952TIP3   OH257346   6.017   6.023   0.134  0.1000 -0.6050  0.1829
11952TIP3    H157347   6.061   5.938   0.129 -0.9337 -1.0728 -2.7598
11952TIP3    H257348   6.018   6.056   0.045 -1.9434  1.2050  0.7396
11953TIP3   OH257349   2.637   4.259  13.485  0.0262 -0.1346 -0.3597
11953TIP3    H157350   2.581   4.291  13.415  0.5419  0.9353 -0.3002
11953TIP3    H257351   2.602   4.298  13.564  0.8469  0.5659 -0.3244
11954TIP3   OH257352   6.500   0.757   0.120  0.3078 -0.0351 -0.0366
11954TIP3    H157353   6.434   0.711   0.067  0.3175 -1.5330  1.1972
11954TIP3    H257354   6.542   0.816   0.058 -0.7224 -0.6169 -1.3581
11955TIP3   OH257355   1.203   6.393   2.192  0.1333 -0.5547 -0.3034
11955TIP3    H157356   1.118   6.436   2.181 -0.9213 -1.6995  2.5235
11955TIP3    H257357   1.233   6.377   2.102 -1.8689  1.2933 -1.3933
11956TIP3   OH257358   6.598   2.111  16.509  0.2418 -0.4326 -0.2047
11956TIP3    H157359   6.684   2.154  16.516  0.0190 -0.1334  0.8968
11956TIP3    H257360   6.537   2.183  16.490  0.1596 -0.5667 -0.4470
11957TIP3   OH257361   6.222   3.124  15.322 -0.6399  0.0519  0.4050
11957TIP3    H157362   6.151   3.132  15.384 -1.5889  0.7992 -0.7353
11957TIP3    H257363   6.187   3.159  15.240  0.9995  0.3342 -0.2196
11958TIP3   OH257364   2.058   4.031   3.490  0.3072 -0.1534 -0.0547
11958TIP3    H157365   2.081   4.088   3.564  0.1471 -1.2934  0.8968
11958TIP3    H257366   1.989   3.974   3.524  1.5695 -2.0083 -0.4781
11959TIP3   OH257367   0.504   5.445   5.673 -0.0976 -0.1917 -0.2588
11959TIP3    H157368   0.595   5.426   5.698  0.1326  0.7132 -0.3918
11959TIP3    H257369   0.452   5.410   5.746  0.4524  0.5982  0.5280
11960TIP3   OH257370   2.393   1.249  16.224 -0.6036 -0.2922  0.0969
11960TIP3    H157371   2.400   1.252  16.319  1.7652 -0.2288 -0.0158
11960TIP3    H257372   2.349   1.166  16.206 -0.1061 -0.8361  1.2428
11961TIP3   OH257373   4.223   2.108   0.969 -0.2477 -0.2569 -0.1828
11961TIP3    H157374   4.194   2.197   0.949 -0.9795 -0.2320  0.9406
11961TIP3    H257375   4.142   2.057   0.976  0.1962 -1.4218 -2.4756
11962TIP3   OH257376   4.432   2.634   0.375 -0.1401  0.3435  0.7380
11962TIP3    H157377   4.429   2.658   0.467  1.3928  0.3619  0.8150
11962TIP3    H257378   4.445   2.539   0.376  0.3942  0.4102  0.5656
11963TIP3   OH257379   0.713   1.424  13.488  0.2129 -0.0235 -0.4070
11963TIP3    H157380   0.751   1.348  13.533 -1.5600 -0.1418  0.9978
11963TIP3    H257381   0.618   1.409  13.493 -0.2203  2.6162  0.5686
11964TIP3   OH257382   0.049   5.984   2.193  0.0490  0.5433 -0.4356
11964TIP3    H157383  -0.040   6.010   2.169  0.4753  0.9512 -1.6551
11964TIP3    H257384   0.079   6.052   2.254  0.5446  2.0752 -2.2860
11965TIP3   OH257385   5.105   5.211   0.374  0.3848 -0.4758  0.3849
11965TIP3    H157386   5.185   5.263   0.384  0.9291 -1.2591  0.2480
11965TIP3    H257387   5.105   5.153   0.450 -1.4871  1.3127  1.8717
11966TIP3   OH257388   2.253   0.113  13.729  0.3568  0.2635 -0.2144
11966TIP3    H157389   2.279   0.203  13.746 -0.2881  0.3278  0.4945
11966TIP3    H257390   2.160   0.117  13.709  0.4546 -0.1774 -0.7894
11967TIP3   OH257391   1.057   1.375  11.171  0.6419  0.4772  0.4474
11967TIP3    H157392   1.018   1.453  11.209  1.1387  0.4054  1.1092
11967TIP3    H257393   1.145   1.401  11.146  0.4525  0.4160 -0.3133
11968TIP3   OH257394   5.108   4.535   1.335 -0.3055  0.1697  0.3638
11968TIP3    H157395   5.134   4.610   1.389  1.6161 -0.8404  0.9360
11968TIP3    H257396   5.167   4.465   1.361  0.2779 -0.5711 -2.5404
11969TIP3   OH257397   5.123   6.455  12.355  0.3001  0.1460 -0.1762
11969TIP3    H157398   5.200   6.417  12.396 -0.2266 -1.1529 -0.3389
11969TIP3    H257399   5.063   6.381  12.343 -0.9767  1.1159 -0.0391
11970TIP3   OH257400   5.483   5.313   1.404  0.0767  0.0285 -0.6666
11970TIP3    H157401   5.544   5.376   1.444  0.5881 -0.8480 -0.0237
11970TIP3    H257402   5.448   5.358   1.328  1.6647  0.4944 -1.1491
11971TIP3   OH257403   3.678   3.552  11.098  0.8562  0.5050  0.0484
11971TIP3    H157404   3.772   3.535  11.085  0.4480 -0.6908 -1.5491
11971TIP3    H257405   3.635   3.509  11.025 -1.0597  0.1204  1.3294
11972TIP3   OH257406   3.782   4.021   3.093  0.0641  0.7360 -0.3347
11972TIP3    H157407   3.758   4.058   3.008  1.8729  0.6119 -0.9529
11972TIP3    H257408   3.711   3.960   3.113 -0.9081  1.5162 -1.2556
11973TIP3   OH257409   3.630   1.841   4.465  0.5960  0.6779  0.0511
11973TIP3    H157410   3.546   1.817   4.428  0.7426  1.4560 -0.8421
11973TIP3    H257411   3.628   1.809   4.555  0.1589 -1.1229 -0.5680
11974TIP3   OH257412   5.842   3.735  15.634  0.0904 -0.0637  0.0237
11974TIP3    H157413   5.796   3.699  15.558  0.7937 -2.0954  0.5152
11974TIP3    H257414   5.912   3.673  15.652 -1.0634 -0.6002  3.3538
11975TIP3   OH257415   3.306   0.514   4.945  0.1274  0.6202 -0.4053
11975TIP3    H157416   3.212   0.511   4.964 -0.3099 -0.4668 -2.4334
11975TIP3    H257417   3.313   0.561   4.862  1.4057  0.8892 -0.1707
11976TIP3   OH257418   3.783   2.962   0.901  0.4698  0.1882  0.1291
11976TIP3    H157419   3.864   2.995   0.863  0.9561  0.8524  1.6822
11976TIP3    H257420   3.718   2.974   0.831  0.6106  4.4440  0.4692
11977TIP3   OH257421   5.841   1.811   5.673 -0.1350  0.2593 -0.2791
11977TIP3    H157422   5.904   1.794   5.743  0.8468 -0.2226 -1.2702
11977TIP3    H257423   5.893   1.850   5.603 -1.0417  0.3435 -0.9153
11978TIP3   OH257424   4.435   0.114  16.856  0.6908 -0.6021  0.1483
11978TIP3    H157425   4.523   0.080  16.874  1.7005  0.3682 -2.5145
11978TIP3    H257426   4.416   0.171  16.931  2.7407 -0.1246  0.3665
11979TIP3   OH257427   1.412   6.413   4.132  0.8381 -0.3104  0.0533
11979TIP3    H157428   1.397   6.346   4.066 -0.4789 -0.1716  0.1830
11979TIP3    H257429   1.503   6.400   4.159  1.3111 -0.5510 -1.5559
11980TIP3   OH257430   4.021   6.748  12.521  0.1355  0.0720 -0.1787
11980TIP3    H157431   3.939   6.718  12.560 -1.0047  2.3455 -0.6613
11980TIP3    H257432   4.063   6.669  12.489 -1.4749 -1.2409  0.8100
11981TIP3   OH257433   3.978   0.851   5.505 -0.3688  0.1481  0.3366
11981TIP3    H157434   3.966   0.870   5.412 -1.5300 -0.2262  0.3961
11981TIP3    H257435   4.073   0.839   5.515 -0.0891  1.4837 -0.5339
11982TIP3   OH257436   0.993   5.004   3.631 -0.1201 -0.3049 -0.2230
11982TIP3    H157437   1.021   4.912   3.633  1.2178  0.0844  1.3864
11982TIP3    H257438   0.960   5.021   3.719 -1.7258  0.3978 -0.9223
11983TIP3   OH257439   2.318   5.061  13.608 -0.0029  0.0045  0.3549
11983TIP3    H157440   2.410   5.088  13.610 -0.1992  0.6585  1.0424
11983TIP3    H257441   2.290   5.075  13.518  0.3138  0.6809  0.3625
11984TIP3   OH257442   3.203   4.663  14.298 -0.0064 -0.0068 -0.2733
11984TIP3    H157443   3.295   4.688  14.285  0.2614 -0.6413  0.3142
11984TIP3    H257444   3.155   4.745  14.290  0.6559  0.4034 -0.1993
11985TIP3   OH257445   1.655   6.413   1.671 -0.4609  0.6708 -0.6902
11985TIP3    H157446   1.738   6.369   1.693 -0.3502  1.2772  0.1212
11985TIP3    H257447   1.643   6.478   1.740 -1.3748  0.9201 -1.0739
11986TIP3   OH257448   3.158   0.255   5.300  0.1219 -0.1214  1.0730
11986TIP3    H157449   3.093   0.278   5.366 -0.8969 -0.6569  0.2994
11986TIP3    H257450   3.174   0.162   5.313 -0.5838 -0.3893  0.1882
11987TIP3   OH257451   0.432   5.793  14.799  0.0201 -0.0723  0.4110
11987TIP3    H157452   0.412   5.870  14.852  0.1576  0.3293 -0.1132
11987TIP3    H257453   0.524   5.804  14.775 -0.0293 -0.2776  0.1293
11988TIP3   OH257454   2.644   1.673  13.715 -0.0374  0.1147 -0.0621
11988TIP3    H157455   2.690   1.751  13.685  0.8917 -0.8589 -1.1971
11988TIP3    H257456   2.710   1.604  13.716  0.0438 -0.0435  4.1025
11989TIP3   OH257457   5.072   3.881  13.949  0.0020 -0.2010  0.6147
11989TIP3    H157458   4.985   3.896  13.912 -0.2337  0.1808  1.3057
11989TIP3    H257459   5.131   3.930  13.892  0.0022 -1.8772 -0.9083
11990TIP3   OH257460   3.483   3.469  11.289 -0.0363  0.0737  0.1995
11990TIP3    H157461   3.544   3.450  11.360  0.0371  0.2355  0.1802
11990TIP3    H257462   3.539   3.499  11.217 -0.2242  1.3711  0.5687
11991TIP3   OH257463   2.945   4.381  12.971  0.3848 -0.1356  0.0405
11991TIP3    H157464   2.931   4.467  13.011  0.8693  0.2272 -0.5432
11991TIP3    H257465   2.991   4.331  13.037  2.9781  1.0907 -0.7012
11992TIP3   OH257466   0.486   5.823   4.708 -0.3547 -0.1979  0.2403
11992TIP3    H157467   0.553   5.785   4.652  0.0289 -0.6367  0.9794
11992TIP3    H257468   0.452   5.749   4.759 -0.9455  0.1278  0.3359
11993TIP3   OH257469   4.559   1.569  13.378 -0.0100 -0.5426  0.0692
11993TIP3    H157470   4.518   1.567  13.465  1.1684 -1.5765  0.6422
11993TIP3    H257471   4.652   1.582  13.396  0.3427 -1.4552 -0.9784
11994TIP3   OH257472   4.055   3.383  14.886 -0.0655  0.4040 -0.0313
11994TIP3    H157473   4.085   3.408  14.799 -0.7635  0.4585 -0.2642
11994TIP3    H257474   3.963   3.408  14.888 -0.6116 -1.4427 -0.0126
11995TIP3   OH257475   1.303   6.692  13.694  0.0119  0.3220  0.0438
11995TIP3    H157476   1.350   6.609  13.700 -0.7439 -0.1646 -0.4822
11995TIP3    H257477   1.310   6.716  13.602 -1.3310 -0.1210 -0.2011
11996TIP3   OH257478   4.828   4.161  13.108 -0.3902 -0.8527  0.2431
11996TIP3    H157479   4.855   4.219  13.179 -1.3530 -0.6116  0.4270
11996TIP3    H257480   4.826   4.218  13.031 -1.8438 -0.4944  0.5213
11997TIP3   OH257481   2.491   6.418   2.936  0.8481  0.3088  0.3181
11997TIP3    H157482   2.414   6.473   2.949  1.8233  1.6578  0.5519
11997TIP3    H257483   2.464   6.332   2.968 -0.7182  0.6090 -0.0824
11998TIP3   OH257484   4.414   3.026   4.848 -0.0969  0.4097 -0.0808
11998TIP3    H157485   4.493   3.026   4.902 -0.1042 -0.7054 -0.0364
11998TIP3    H257486   4.380   3.115   4.853  2.0523  1.3883 -1.4346
11999TIP3   OH257487   6.407   6.476   4.608 -0.3313  0.0261 -0.0824
11999TIP3    H157488   6.372   6.424   4.680 -0.4154 -0.7383 -0.6603
11999TIP3    H257489   6.359   6.559   4.612  0.3928  0.4038  1.3603
12000TIP3   OH257490   4.965   0.354  12.078 -0.3481 -0.8598  0.8315
12000TIP3    H157491   4.915   0.423  12.033 -0.4267 -1.3386  0.1626
12000TIP3    H257492   4.901   0.312  12.136  0.1021  0.7087  2.5228
12001TIP3   OH257493   2.663   5.865  11.179  0.0510 -0.5966  0.8029
12001TIP3    H157494   2.700   5.906  11.258 -0.6711 -0.3868  1.0417
12001TIP3    H257495   2.585   5.917  11.159  0.9363  0.1755 -0.8308
12002TIP3   OH257496   3.781   0.291   5.741 -0.2996 -0.0116 -0.2100
12002TIP3    H157497   3.841   0.237   5.793 -0.3287  0.3905  0.2477
12002TIP3    H257498   3.772   0.244   5.658  0.1262 -0.4148 -0.0317
12003TIP3   OH257499   3.541   5.068   3.212 -0.0849 -0.0287 -0.0674
12003TIP3    H157500   3.625   5.111   3.233 -0.4687  0.4202  0.5986
12003TIP3    H257501   3.565   4.978   3.191  0.7125  0.4129 -1.1907
12004TIP3   OH257502   3.472   2.252  16.957  0.3489 -0.5084  0.3819
12004TIP3    H157503   3.515   2.202  16.888 -1.1417 -0.2027 -0.8097
12004TIP3    H257504   3.386   2.212  16.966 -0.5219  1.2060  0.0670
12005TIP3   OH257505   3.827   2.250   3.276 -0.5720  0.3933  0.1272
12005TIP3    H157506   3.874   2.172   3.248 -1.1718 -0.0508  0.3315
12005TIP3    H257507   3.851   2.317   3.212  1.0216  0.4321  0.7296
12006TIP3   OH257508   2.533   2.181   3.857 -0.3344  0.2609  0.0166
12006TIP3    H157509   2.454   2.151   3.901 -0.2697 -0.0998 -0.1154
12006TIP3    H257510   2.588   2.103   3.849  0.2776  0.6201  0.6194
12007TIP3   OH257511   1.766   4.967   1.581  0.0922 -0.3656 -0.0788
12007TIP3    H157512   1.748   5.057   1.554  1.7201  0.0947  0.2822
12007TIP3    H257513   1.802   4.925   1.503  1.3047 -0.0856  0.3083
12008TIP3   OH257514   5.053   5.890  12.788  0.0553 -0.1278  0.3504
12008TIP3    H157515   5.016   5.837  12.858 -1.3619 -1.4400 -1.3029
12008TIP3    H257516   5.148   5.887  12.804 -0.2139 -0.5818  2.0521
12009TIP3   OH257517   0.724   5.015  17.076 -0.2598 -0.7684 -0.2193
12009TIP3    H157518   0.718   5.039  16.984 -1.1693 -1.7451 -0.4357
12009TIP3    H257519   0.752   5.095  17.121 -1.5932  0.2132 -1.0940
12010TIP3   OH257520   5.501   4.181  13.808 -0.2442  0.1173 -0.0853
12010TIP3    H157521   5.469   4.271  13.824  0.1917  0.5337 -1.4509
12010TIP3    H257522   5.425   4.135  13.774 -0.0652  0.4377 -0.9594
12011TIP3   OH257523   3.839   6.460   5.910 -0.1228  0.3078  0.2300
12011TIP3    H157524   3.925   6.433   5.944 -0.2383 -1.0611 -0.5089
12011TIP3    H257525   3.781   6.457   5.987  0.3771  0.8200  0.6417
12012TIP3   OH257526   5.133   6.421   6.097  0.2901 -0.0197 -0.3041
12012TIP3    H157527   5.109   6.511   6.119  1.1320 -0.0620  0.9022
12012TIP3    H257528   5.066   6.368   6.139  0.4726 -0.0004  0.0143
12013TIP3   OH257529   4.589   4.965   0.332  0.0647 -0.2239  0.5276
12013TIP3    H157530   4.572   5.008   0.415 -0.6026  0.0242  0.2745
12013TIP3    H257531   4.572   5.032   0.266  1.0862 -0.2691  0.2099
12014TIP3   OH257532   6.000   5.322   5.499 -0.4309 -0.0599 -0.7010
12014TIP3    H157533   5.904   5.329   5.495 -0.4383  0.8716  0.4845
12014TIP3    H257534   6.026   5.306   5.409 -1.6219  0.8831 -1.2434
12015TIP3   OH257535   3.097   0.585   5.209  0.1725  0.2359  0.2706
12015TIP3    H157536   3.177   0.553   5.251 -0.5616  0.1539  1.6526
12015TIP3    H257537   3.036   0.512   5.216 -0.0842  0.3624 -0.6211
12016TIP3   OH257538   2.347   1.440  14.668  0.5213 -0.4693  0.3856
12016TIP3    H157539   2.335   1.387  14.590  2.4392  0.5931 -0.7025
12016TIP3    H257540   2.431   1.411  14.705 -0.5152 -1.2233  2.3281
12017TIP3   OH257541   5.823   2.966  14.839 -0.5932  0.2950 -0.5227
12017TIP3    H157542   5.838   2.872  14.825  1.3203  0.8425 -2.7276
12017TIP3    H257543   5.728   2.974  14.845 -0.8469 -1.6748 -1.1186
12018TIP3   OH257544   3.085   6.416  15.313 -0.4054 -0.4132 -0.0718
12018TIP3    H157545   3.043   6.362  15.380  0.7477  0.2048  1.1921
12018TIP3    H257546   3.117   6.354  15.248  1.5630 -1.3991  1.7148
12019TIP3   OH257547   4.782   0.299  14.326 -0.0209 -0.0494  0.3327
12019TIP3    H157548   4.824   0.346  14.254 -0.8264 -0.2688 -0.2887
12019TIP3    H257549   4.785   0.360  14.399 -1.1957  1.0559 -0.5035
12020TIP3   OH257550   3.356   6.508   0.244 -0.7634 -0.6436 -0.3547
12020TIP3    H157551   3.396   6.454   0.177 -0.6036 -1.2348  0.2114
12020TIP3    H257552   3.376   6.464   0.326  1.3447  1.4555  0.3501
12021TIP3   OH257553   0.766   1.664  17.094 -0.6318  0.1221 -0.2831
12021TIP3    H157554   0.705   1.591  17.088 -0.0151 -0.5908  1.4640
12021TIP3    H257555   0.727   1.723  17.159 -0.0534  0.2401 -0.0326
12022TIP3   OH257556   2.894   3.420   5.875 -0.0908 -0.5057  0.2693
12022TIP3    H157557   2.825   3.427   5.809 -1.4913 -2.0009  1.4808
12022TIP3    H257558   2.912   3.510   5.901 -1.8225 -0.0905  0.1254
12023TIP3   OH257559   1.265   4.764   0.526  0.3756 -0.4118 -0.4792
12023TIP3    H157560   1.223   4.709   0.592  0.5954 -0.8092 -0.6679
12023TIP3    H257561   1.234   4.728   0.442 -4.3198  3.2953 -0.7581
12024TIP3   OH257562   6.565   2.422  12.615 -0.5326 -0.1385 -0.4577
12024TIP3    H157563   6.655   2.403  12.587 -0.5434 -1.1079  0.1269
12024TIP3    H257564   6.574   2.458  12.703 -0.6780  0.2460 -0.6015
12025TIP3   OH257565   4.247   5.123   5.098  0.1054 -0.1064 -0.0316
12025TIP3    H157566   4.208   5.047   5.141 -0.3309  0.6269  0.8927
12025TIP3    H257567   4.327   5.089   5.057 -0.0678 -1.0530  0.3846
12026TIP3   OH257568   3.579   1.186  14.308 -0.7356  0.6851 -0.2208
12026TIP3    H157569   3.628   1.263  14.338 -0.5469  0.6267 -0.3751
12026TIP3    H257570   3.560   1.205  14.216 -0.0228  0.2108 -0.4709
12027TIP3   OH257571   0.828   4.688  15.596 -0.2616  0.4984 -0.1368
12027TIP3    H157572   0.837   4.722  15.685  0.9427 -0.0557 -0.0174
12027TIP3    H257573   0.893   4.736  15.545 -0.4611  0.3249 -0.5638
12028TIP3   OH257574   6.382   5.314   1.774  0.4678 -0.0299 -0.4506
12028TIP3    H157575   6.470   5.293   1.806 -0.2068  0.6191  2.1079
12028TIP3    H257576   6.361   5.399   1.815 -1.3561 -0.2018 -0.9230
12029TIP3   OH257577   4.187   5.123  12.382 -0.6040 -0.6045  0.2641
12029TIP3    H157578   4.140   5.168  12.312  0.0450 -0.0414  0.1753
12029TIP3    H257579   4.119   5.078  12.432 -1.3972  1.1680  0.8675
12030TIP3   OH257580   6.718   0.624  11.957 -0.3196 -0.4461 -0.8190
12030TIP3    H157581   6.805   0.589  11.938 -0.6989 -2.1015  0.2433
12030TIP3    H257582   6.698   0.681  11.883  1.4007 -0.5196 -1.3887
12031TIP3   OH257583   4.217   0.361   3.864 -0.5989 -0.2573  0.1968
12031TIP3    H157584   4.124   0.338   3.867 -0.7171  0.2343  0.4425
12031TIP3    H257585   4.254   0.305   3.795 -1.0592 -0.5141  0.1577
12032TIP3   OH257586   5.318   1.398  15.451  0.7342  0.3573  0.3549
12032TIP3    H157587   5.409   1.370  15.448  1.4018  1.8059  3.3824
12032TIP3    H257588   5.319   1.490  15.424 -0.2536 -0.2013 -1.8248
12033TIP3   OH257589   2.924   4.477   2.974  0.1692  0.2957 -0.4400
12033TIP3    H157590   2.844   4.435   3.005 -0.4188  0.0446 -2.1807
12033TIP3    H257591   2.993   4.412   2.991 -0.4754 -0.7329 -1.6068
12034TIP3   OH257592   6.420   5.557  13.046  0.0284  0.3255 -0.0043
12034TIP3    H157593   6.503   5.574  13.002  0.9856 -0.2269  1.5129
12034TIP3    H257594   6.360   5.534  12.975  1.6060 -0.9102 -1.0250
12035TIP3   OH257595   1.972   2.260   0.116  0.0670  0.2864  0.2153
12035TIP3    H157596   1.967   2.292   0.025  0.0009  1.6909  0.6885
12035TIP3    H257597   2.004   2.171   0.108  0.3265  0.4803 -1.1860
12036TIP3   OH257598   1.482   0.591   1.415 -0.0774  0.6939 -0.6164
12036TIP3    H157599   1.453   0.539   1.489 -0.6363  0.4672 -0.9851
12036TIP3    H257600   1.575   0.606   1.430 -0.0107 -0.0377 -0.2851
12037TIP3   OH257601   3.528   0.872   4.169 -0.1070  0.7232 -0.0784
12037TIP3    H157602   3.537   0.798   4.109 -0.8867  0.9525 -0.4910
12037TIP3    H257603   3.546   0.835   4.255 -0.5206  0.0430 -0.2769
12038TIP3   OH257604   0.345   1.157   5.913 -0.3586  0.5275 -0.6517
12038TIP3    H157605   0.366   1.223   5.847  0.5576  0.4387 -0.4577
12038TIP3    H257606   0.398   1.182   5.989 -0.6327  0.0366 -0.2929
12039TIP3   OH257607   0.917   6.726   5.777 -0.0159 -0.5380 -0.6293
12039TIP3    H157608   0.860   6.802   5.765  1.1302  0.4152 -0.2593
12039TIP3    H257609   0.979   6.753   5.844  1.2060 -1.3405 -1.3976
12040TIP3   OH257610   3.008   4.575   5.519 -0.1573 -0.4859 -0.1248
12040TIP3    H157611   3.075   4.589   5.586 -0.0180 -0.2658 -0.3111
12040TIP3    H257612   3.017   4.649   5.459  0.1051 -0.9921 -0.7129
12041TIP3   OH257613   3.795   3.765   4.682  0.4684  0.0785 -0.2663
12041TIP3    H157614   3.807   3.855   4.712  0.4481  0.0731 -0.2416
12041TIP3    H257615   3.804   3.771   4.586 -1.7227  0.4936 -0.5057
12042TIP3   OH257616   3.182   5.768   6.502  0.3188  0.0622  0.0911
12042TIP3    H157617   3.272   5.741   6.520 -0.1504 -0.6011  1.6019
12042TIP3    H257618   3.128   5.702   6.545 -0.8789  1.7243  1.2579
12043TIP3   OH257619   0.490   2.022  15.582 -0.0561 -0.1312 -0.4894
12043TIP3    H157620   0.491   2.108  15.625  1.3665  0.0436 -0.8174
12043TIP3    H257621   0.561   1.974  15.622 -0.2321 -0.8195 -0.9840
12044TIP3   OH257622   0.681   0.509  12.258 -0.1228  0.0218  0.3329
12044TIP3    H157623   0.593   0.512  12.296  0.7128  0.9343  2.3692
12044TIP3    H257624   0.689   0.420  12.223 -1.9928  0.0726 -0.3230
12045TIP3   OH257625   5.731   1.512   4.008  0.1923 -0.0042  0.7631
12045TIP3    H157626   5.745   1.418   4.019  0.9020 -0.0338 -0.3017
12045TIP3    H257627   5.672   1.520   3.933  1.1336  0.4378  0.0559
12046TIP3   OH257628   6.318   3.883  12.164  0.3098 -0.0343 -0.0289
12046TIP3    H157629   6.233   3.854  12.200 -0.1858  0.5611 -0.6928
12046TIP3    H257630   6.347   3.951  12.224  1.0718 -1.2800  1.0635
12047TIP3   OH257631   3.599   2.183  12.688  0.3761  0.4724  0.1671
12047TIP3    H157632   3.505   2.167  12.676  0.7629 -0.2982 -2.1775
12047TIP3    H257633   3.614   2.164  12.781 -1.7857  0.7446  0.6388
12048TIP3   OH257634   2.890   4.653  11.426 -0.2172  0.2350  0.1117
12048TIP3    H157635   2.882   4.561  11.450  0.1890  0.0896 -0.2905
12048TIP3    H257636   2.892   4.699  11.510 -0.6445 -0.0979  0.3083
12049TIP3   OH257637   4.836   6.643   5.863 -0.3593 -0.3274 -0.0004
12049TIP3    H157638   4.800   6.716   5.912  0.1635 -0.0814  0.0230
12049TIP3    H257639   4.818   6.566   5.918  0.3778 -0.0361  0.6718
12050TIP3   OH257640   0.030   0.202  14.655  0.2920  0.0734 -0.9652
12050TIP3    H157641   0.119   0.189  14.622 -0.0904  1.7621 -2.8416
12050TIP3    H257642  -0.026   0.190  14.579 -0.7938  2.3923 -0.6127
12051TIP3   OH257643   0.040   3.685   5.029 -0.2371  0.1866  0.4492
12051TIP3    H157644  -0.027   3.683   5.097 -0.0807 -1.0034  0.5862
12051TIP3    H257645   0.010   3.753   4.968 -1.4305 -0.1312  0.6583
12052TIP3   OH257646   3.268   5.664   1.861  0.1046 -0.2279  0.0313
12052TIP3    H157647   3.340   5.625   1.910  1.0849  1.6182  0.1463
12052TIP3    H257648   3.299   5.666   1.770 -1.2578 -2.6087 -0.5671
12053TIP3   OH257649   0.072   0.318   2.513  0.0985  0.3606  0.1503
12053TIP3    H157650   0.121   0.290   2.590 -0.5151  1.6683  1.0430
12053TIP3    H257651   0.082   0.413   2.510 -0.5514  0.4230 -0.9279
12054TIP3   OH257652   1.081   1.345   2.100 -0.0822 -0.3111  0.5222
12054TIP3    H157653   1.140   1.270   2.111 -0.1310 -0.4626 -0.2052
12054TIP3    H257654   1.056   1.343   2.008 -0.5879  0.2326  0.6388
12055TIP3   OH257655   0.062   1.849   0.986  0.4049 -0.3634 -0.1640
12055TIP3    H157656   0.026   1.884   0.905 -0.7237 -0.6900  0.1860
12055TIP3    H257657   0.027   1.760   0.992  2.7748 -1.4127 -0.7423
12056TIP3   OH257658   6.534   4.323  11.886  0.3283 -0.2697 -0.4023
12056TIP3    H157659   6.613   4.364  11.921  0.4803 -1.4060  0.6772
12056TIP3    H257660   6.471   4.394  11.879  1.1016  0.4470 -0.1979
12057TIP3   OH257661   1.322   0.451   2.248  1.0523  0.3533 -0.0528
12057TIP3    H157662   1.394   0.401   2.284  1.2641  0.3519 -0.4729
12057TIP3    H257663   1.304   0.411   2.163  0.6879  0.4777 -0.0391
12058TIP3   OH257664   0.529   3.787   5.550  0.2377  0.2853  0.4554
12058TIP3    H157665   0.565   3.743   5.627  2.5543  2.1885  0.5663
12058TIP3    H257666   0.589   3.764   5.479 -1.5705 -1.0157 -0.7535
12059TIP3   OH257667   6.200   0.211   0.581  0.5743  0.0115  0.6347
12059TIP3    H157668   6.126   0.187   0.637 -1.3183  1.7096 -0.9747
12059TIP3    H257669   6.206   0.140   0.517 -1.2455  0.8967 -0.6132
12060TIP3   OH257670   3.904   3.299   5.360 -0.5089  0.0692  0.5030
12060TIP3    H157671   3.979   3.274   5.307  0.4543  0.6847  1.5266
12060TIP3    H257672   3.844   3.225   5.355  0.7597 -1.0034  0.7290
12061TIP3   OH257673   0.793   1.221  12.395  0.2844 -0.8044 -0.2148
12061TIP3    H157674   0.727   1.222  12.465 -1.8022 -1.9754 -2.0110
12061TIP3    H257675   0.848   1.297  12.412 -1.2902  0.0076  1.6238
12062TIP3   OH257676   1.424   3.636   0.962  0.3174 -0.2114  0.5080
12062TIP3    H157677   1.372   3.716   0.954 -0.0184 -0.3126  1.5476
12062TIP3    H257678   1.393   3.595   1.043 -1.1433 -2.5612 -1.0962
12063TIP3   OH257679   4.781   0.247   2.898  0.0243  0.3302  0.4564
12063TIP3    H157680   4.775   0.328   2.847 -1.1925 -0.7144 -1.1421
12063TIP3    H257681   4.873   0.221   2.891  0.2636  1.1650  0.3629
12064TIP3   OH257682   2.351   4.439   0.723  0.0225  0.5270 -0.2344
12064TIP3    H157683   2.369   4.443   0.817  0.6437  1.1660 -0.3724
12064TIP3    H257684   2.266   4.396   0.717  0.0332  0.3668  0.6145
12065TIP3   OH257685   3.915   5.240   3.747 -0.5961 -0.1880 -0.2284
12065TIP3    H157686   3.918   5.293   3.827  1.1583  1.3040 -1.2073
12065TIP3    H257687   3.853   5.286   3.690 -0.2350 -0.0400 -0.5048
12066TIP3   OH257688   0.157   4.596   1.602 -0.2006  0.4444 -0.0618
12066TIP3    H157689   0.099   4.579   1.529 -0.7380  0.1635  0.4224
12066TIP3    H257690   0.243   4.608   1.562  0.1663 -2.7703 -0.5610
12067TIP3   OH257691   3.696   3.240   1.991  0.1306 -0.2562  0.3190
12067TIP3    H157692   3.758   3.304   2.027  0.1370 -0.1720  0.1555
12067TIP3    H257693   3.646   3.288   1.926 -0.4745 -0.1825  0.8246
12068TIP3   OH257694   0.550   3.958   0.984 -0.9427 -0.2822 -0.0374
12068TIP3    H157695   0.628   3.982   0.934 -0.4616  1.2630  1.3412
12068TIP3    H257696   0.517   3.879   0.942  0.9386 -0.5465 -1.1167
12069TIP3   OH257697   3.692   4.906   0.203 -0.1357 -0.6811 -0.2780
12069TIP3    H157698   3.630   4.893   0.131  0.6797  1.1752 -1.3928
12069TIP3    H257699   3.739   4.823   0.210 -1.5594 -1.5416 -0.5396
12070TIP3   OH257700   2.342   3.996   0.620  0.0940  0.7793  0.9999
12070TIP3    H157701   2.295   3.923   0.580  0.0605  1.1820  0.2922
12070TIP3    H257702   2.359   4.056   0.548 -0.5136  1.8154  1.6912
12071TIP3   OH257703   3.245   1.372   5.796  0.9591 -0.4083 -0.5915
12071TIP3    H157704   3.198   1.289   5.785 -0.4270  0.2171  0.3790
12071TIP3    H257705   3.266   1.375   5.889 -2.1031  1.8374  0.1942
12072TIP3   OH257706   3.619   1.960   2.330  0.3256 -0.5310  0.1897
12072TIP3    H157707   3.608   2.027   2.263 -0.0039 -0.9336 -0.1703
12072TIP3    H257708   3.591   1.879   2.287 -0.6004 -0.6850  1.0265
12073TIP3   OH257709   4.533   0.790   1.190 -0.0521 -0.1378 -0.5160
12073TIP3    H157710   4.486   0.765   1.111  1.4032  0.4148 -1.6125
12073TIP3    H257711   4.519   0.718   1.251 -1.9505 -0.1510 -0.9342
12074TIP3   OH257712   2.319   4.439   4.861 -0.0912  0.6020 -0.0785
12074TIP3    H157713   2.414   4.451   4.852 -0.2821  1.3370 -1.2575
12074TIP3    H257714   2.309   4.345   4.876  0.7591  0.3596 -0.9254
12075TIP3   OH257715   4.391   3.141  13.743 -0.1413  0.0626 -0.4937
12075TIP3    H157716   4.348   3.074  13.691 -0.1261 -0.6044  0.3289
12075TIP3    H257717   4.347   3.137  13.828  0.9330 -0.0328  0.0856
12076TIP3   OH257718   1.017   2.092  12.664  0.1272 -0.5628  0.1612
12076TIP3    H157719   1.022   2.062  12.754  0.2590 -3.1013 -0.6174
12076TIP3    H257720   1.101   2.136  12.648 -0.0173  0.1645  1.3201
12077TIP3   OH257721   2.071   2.958   5.641 -0.0343 -0.3456  0.3000
12077TIP3    H157722   2.163   2.969   5.663 -0.0656 -1.0163  0.8180
12077TIP3    H257723   2.062   2.994   5.553  0.5776  0.3406  0.5116
12078TIP3   OH257724   1.968   0.885  16.262  0.0829 -0.2889 -0.1704
12078TIP3    H157725   1.927   0.897  16.347  1.0675 -2.4336  0.6897
12078TIP3    H257726   1.962   0.791  16.245  0.5336 -0.0235 -2.1595
12079TIP3   OH257727   3.328   6.265   3.542  0.0969  0.0288  0.7163
12079TIP3    H157728   3.241   6.304   3.542 -0.4355 -1.0438 -1.3822
12079TIP3    H257729   3.312   6.171   3.546  1.0309 -0.2963 -1.8277
12080TIP3   OH257730   2.698   4.869  16.426  0.1324  0.1614  0.4817
12080TIP3    H157731   2.605   4.848  16.438  0.3089 -1.6409 -0.8588
12080TIP3    H257732   2.743   4.785  16.438  1.2504  0.3222 -1.9905
12081TIP3   OH257733   5.742   1.300  11.254  0.5656  0.9761 -0.3861
12081TIP3    H157734   5.826   1.345  11.244  1.6639 -0.8374  0.2633
12081TIP3    H257735   5.765   1.209  11.270 -1.4598  0.7219  1.5981
12082TIP3   OH257736   4.556   1.983  10.547  0.3109  0.1915  0.0674
12082TIP3    H157737   4.513   1.910  10.502 -1.4460  1.3210 -0.1341
12082TIP3    H257738   4.511   1.989  10.632  2.4537 -0.8230  1.3794
12083TIP3   OH257739   1.685   5.665  14.362 -0.1817 -0.2837  0.1441
12083TIP3    H157740   1.734   5.746  14.347 -0.8460 -0.0642 -0.9882
12083TIP3    H257741   1.602   5.695  14.399 -0.5877 -0.3888 -0.6509
12084TIP3   OH257742   3.380   5.297  13.486 -0.2262 -0.3014  0.4113
12084TIP3    H157743   3.360   5.321  13.395  0.4400  3.1048  1.0279
12084TIP3    H257744   3.354   5.374  13.537 -0.6438 -2.1341  3.1680
12085TIP3   OH257745   2.539   6.574   4.886  0.3027 -0.3220  0.0943
12085TIP3    H157746   2.611   6.529   4.843  0.2722  0.4587 -0.7885
12085TIP3    H257747   2.558   6.565   4.980  1.5943 -0.0344 -0.1236
12086TIP3   OH257748   5.884   5.771   3.669 -0.1731  0.0994 -0.0653
12086TIP3    H157749   5.952   5.793   3.605  0.7426  1.2165  1.2291
12086TIP3    H257750   5.884   5.845   3.730 -0.2471 -1.3840  1.8363
12087TIP3   OH257751   5.681   5.958   2.294 -0.6299 -0.6082 -0.1129
12087TIP3    H157752   5.740   5.968   2.368 -0.9573  1.3368 -0.0746
12087TIP3    H257753   5.614   5.896   2.324  0.0493 -0.9869  0.6624
12088TIP3   OH257754   3.950   4.259   4.653 -0.0742 -0.4531  0.1107
12088TIP3    H157755   3.960   4.352   4.633  1.5200 -0.6624 -0.2098
12088TIP3    H257756   3.971   4.215   4.571 -2.6578 -1.0854 -0.2966
12089TIP3   OH257757   4.285   1.063   6.514  0.0992 -0.4739 -0.0370
12089TIP3    H157758   4.354   1.061   6.448 -0.2159 -1.0969 -0.3504
12089TIP3    H257759   4.210   1.022   6.472 -0.6348  0.6462  0.1127
12090TIP3   OH257760   6.347   1.206  13.797 -0.1563 -0.3832 -0.5503
12090TIP3    H157761   6.280   1.215  13.729 -1.4747  1.2351  0.8727
12090TIP3    H257762   6.375   1.295  13.816 -0.9610 -0.6156  2.0834
12091TIP3   OH257763   3.724   6.233  14.606  0.6553 -0.3757 -0.5771
12091TIP3    H157764   3.777   6.312  14.615  1.7154 -1.1276 -0.0276
12091TIP3    H257765   3.778   6.173  14.554  1.5260 -2.1085  2.1102
12092TIP3   OH257766   5.467   1.230  13.641 -0.1716  0.3050  0.4095
12092TIP3    H157767   5.505   1.166  13.581  0.2298 -0.1141  1.0988
12092TIP3    H257768   5.467   1.312  13.592  0.1513 -0.0321 -0.1603
12093TIP3   OH257769   1.051   0.458  12.011  0.0953 -0.1444 -0.3956
12093TIP3    H157770   1.030   0.539  11.965 -1.5914 -0.3085  0.0086
12093TIP3    H257771   0.988   0.394  11.976 -1.1282 -0.3135  1.9095
12094TIP3   OH257772   0.784   1.386  15.758 -0.1350 -0.1239  0.2564
12094TIP3    H157773   0.853   1.349  15.703 -0.1929  1.1573 -0.7094
12094TIP3    H257774   0.814   1.474  15.780 -0.8395 -0.0457  0.9624
12095TIP3   OH257775   3.962   0.763   4.554 -0.1547 -0.0060 -0.3243
12095TIP3    H157776   3.922   0.736   4.637 -3.1516  1.4784 -1.1465
12095TIP3    H257777   3.985   0.855   4.567  2.5856 -0.6599 -0.1020
12096TIP3   OH257778   2.643   2.008   3.155 -0.1334 -0.0663 -0.1824
12096TIP3    H157779   2.702   2.054   3.096  2.4267  1.0882  3.0201
12096TIP3    H257780   2.632   2.066   3.230 -1.7008 -2.1742  1.3718
12097TIP3   OH257781   0.146   5.300  15.910 -0.3855  0.5091  0.1154
12097TIP3    H157782   0.102   5.263  15.987 -2.0181  0.4489 -0.8105
12097TIP3    H257783   0.185   5.224  15.866  1.3067  0.6345  1.2755
12098TIP3   OH257784   4.964   3.126  11.448 -0.4912 -0.2417  0.7248
12098TIP3    H157785   4.870   3.113  11.462 -0.4187 -1.4576  0.1720
12098TIP3    H257786   4.993   3.045  11.406  0.9333 -0.1460  1.4864
12099TIP3   OH257787   3.940   4.398  11.920  0.3225 -0.4227 -0.2077
12099TIP3    H157788   4.009   4.403  11.987  0.0726  1.4822 -0.0505
12099TIP3    H257789   3.938   4.305  11.896 -1.1441 -1.7247  4.0594
12100TIP3   OH257790   1.478   3.057   4.316 -0.6128 -0.3262 -0.0004
12100TIP3    H157791   1.395   3.060   4.269 -0.9244  0.3911  0.5761
12100TIP3    H257792   1.497   3.148   4.336  0.1707 -0.5117  0.1278
12101TIP3   OH257793   0.181   2.965   4.846  0.7656  0.1635 -0.0498
12101TIP3    H157794   0.175   3.011   4.930  0.0269  0.1511 -0.0826
12101TIP3    H257795   0.253   3.007   4.800  0.6054  0.7665  0.2396
12102TIP3   OH257796   6.681   0.112  11.430  0.2001  0.4073 -0.3014
12102TIP3    H157797   6.664   0.046  11.363  0.3499  0.0046  0.0520
12102TIP3    H257798   6.654   0.195  11.390 -0.0177  0.1289 -0.7356
12103TIP3   OH257799   4.452   0.147  14.921 -0.2394 -0.2756  0.3514
12103TIP3    H157800   4.513   0.149  14.994  1.5664  0.2857 -1.0971
12103TIP3    H257801   4.387   0.214  14.943  0.9299  0.7167  0.9351
12104TIP3   OH257802   4.843   5.208  12.957  0.0388  0.5704 -0.1607
12104TIP3    H157803   4.799   5.285  12.921  0.5579  0.9377 -0.0178
12104TIP3    H257804   4.863   5.154  12.881 -0.6974  0.3783 -0.2226
12105TIP3   OH257805   1.564   5.734  16.398  0.2415 -0.6472 -0.7174
12105TIP3    H157806   1.519   5.791  16.335  2.2262  0.1685 -1.4671
12105TIP3    H257807   1.502   5.726  16.471 -0.6828  1.3432 -1.2036
12106TIP3   OH257808   2.828   1.458  10.749  0.1588 -0.5237 -0.1714
12106TIP3    H157809   2.765   1.522  10.715  0.4240  1.3030  2.4883
12106TIP3    H257810   2.873   1.425  10.671 -0.4111  2.0929 -1.7350
12107TIP3   OH257811   3.671   3.473   6.110 -0.2320  0.4108 -0.2733
12107TIP3    H157812   3.709   3.511   6.189 -0.4716  1.1069 -0.4827
12107TIP3    H257813   3.624   3.396   6.140  0.9757 -0.2357  0.0518
12108TIP3   OH257814   0.535   4.806  10.585 -0.6927 -0.0074 -0.3673
12108TIP3    H157815   0.506   4.872  10.522  0.0351  0.6282 -0.0596
12108TIP3    H257816   0.513   4.844  10.670 -0.9230 -0.4875 -0.2133
12109TIP3   OH257817   6.790   2.718  12.659 -0.1818  0.5424 -0.1329
12109TIP3    H157818   6.835   2.684  12.582 -0.2918 -0.5166  0.2524
12109TIP3    H257819   6.787   2.644  12.720 -0.7479  1.1478  0.5988
12110TIP3   OH257820   0.867   0.781   0.239 -0.4331  0.3097  0.8256
12110TIP3    H157821   0.832   0.857   0.194 -1.7386 -0.5153  0.3859
12110TIP3    H257822   0.837   0.706   0.187  1.5588 -0.4858  0.7330
12111TIP3   OH257823   4.398   3.146   3.032  0.1873 -0.3659  0.4549
12111TIP3    H157824   4.309   3.168   3.004  0.3369  0.5003  0.6432
12111TIP3    H257825   4.454   3.171   2.959  0.4872  1.0850  1.1414
12112TIP3   OH257826   6.079   6.293  14.674  0.2713  0.1130  0.6294
12112TIP3    H157827   6.130   6.311  14.594 -0.9091 -1.8896 -0.6653
12112TIP3    H257828   6.121   6.346  14.741  1.0128  2.3201 -1.4159
12113TIP3   OH257829   6.783   5.598  12.266 -0.4106  0.1633 -0.1624
12113TIP3    H157830   6.715   5.665  12.260 -0.9886 -0.4115 -0.1609
12113TIP3    H257831   6.821   5.610  12.353 -1.9428 -0.8397  0.6902
12114TIP3   OH257832   1.293   3.946   2.485 -0.2081 -0.4263  0.1487
12114TIP3    H157833   1.235   4.012   2.446  1.3280  0.4952 -0.7037
12114TIP3    H257834   1.285   3.870   2.428 -1.1540 -0.5853  0.4864
12115TIP3   OH257835   2.577   5.957   0.227  0.4873  0.2696 -1.1083
12115TIP3    H157836   2.615   5.873   0.204  1.2306  1.0249 -2.7308
12115TIP3    H257837   2.592   6.013   0.151 -0.9050  1.5822 -0.4788
12116TIP3   OH257838   4.914   1.411   3.188 -0.4474 -0.9956  0.1962
12116TIP3    H157839   4.965   1.452   3.118  1.5566 -0.7862  1.7015
12116TIP3    H257840   4.839   1.469   3.199  0.4844  0.3229 -0.1257
12117TIP3   OH257841   0.963   0.754   2.902  0.0676  0.3302  0.3888
12117TIP3    H157842   0.893   0.701   2.864 -0.6864  1.0343  0.7604
12117TIP3    H257843   1.019   0.777   2.828 -0.3983  0.2217 -0.0036
12118TIP3   OH257844   4.683   2.194  16.943 -0.7229 -0.2023  0.4509
12118TIP3    H157845   4.597   2.154  16.926  0.8246 -3.0386 -1.6231
12118TIP3    H257846   4.720   2.140  17.013 -0.2495  0.4147  0.6802
12119TIP3   OH257847   5.118   6.506   4.383 -0.1613 -0.1207  0.0704
12119TIP3    H157848   5.080   6.418   4.380  0.0826 -0.2632  0.9237
12119TIP3    H257849   5.131   6.529   4.291  1.6752 -1.8444 -0.1849
12120TIP3   OH257850   5.627   3.934   5.597 -0.0928 -0.3805  0.3039
12120TIP3    H157851   5.695   3.871   5.575  0.5036  0.3491  0.0196
12120TIP3    H257852   5.641   4.007   5.536  1.5488  1.6879  2.9090
12121TIP3   OH257853   4.764   4.347  11.564 -0.3321  0.4134 -0.1917
12121TIP3    H157854   4.719   4.303  11.492  0.9222 -0.4649 -0.4792
12121TIP3    H257855   4.854   4.359  11.532  0.1206  0.4359  1.0335
12122TIP3   OH257856   6.028   4.103   2.729  0.6137  0.2662  0.3635
12122TIP3    H157857   5.965   4.169   2.755  0.0996  0.5366 -1.4003
12122TIP3    H257858   6.110   4.130   2.770 -0.1628  0.4761  1.8543
12123TIP3   OH257859   6.066   4.182  13.283 -0.2178 -0.7478  0.2449
12123TIP3    H157860   5.975   4.164  13.257 -0.5492 -1.2335  1.6737
12123TIP3    H257861   6.097   4.101  13.323  0.9520 -0.6725 -0.4621
12124TIP3   OH257862   4.006   3.767  16.157  0.3520  0.6436  0.0456
12124TIP3    H157863   4.016   3.709  16.082  1.2308 -0.2148  0.8056
12124TIP3    H257864   3.954   3.718  16.220  0.1468  1.1101  0.2477
12125TIP3   OH257865   6.583   1.201  16.106  0.3486 -0.0334  0.2938
12125TIP3    H157866   6.503   1.151  16.088  1.0512 -0.7184 -1.0722
12125TIP3    H257867   6.615   1.227  16.020  1.2888  0.7530  0.8592
12126TIP3   OH257868   3.738   5.046  12.398  0.1589 -0.7954 -0.0032
12126TIP3    H157869   3.714   5.138  12.411 -1.1475 -1.0419 -0.4831
12126TIP3    H257870   3.692   5.021  12.317  1.1772 -1.6379 -0.3424
12127TIP3   OH257871   3.495   5.536  16.500 -0.4477 -0.1096  0.1216
12127TIP3    H157872   3.560   5.482  16.455  0.2126 -0.8070  1.8221
12127TIP3    H257873   3.514   5.525  16.593 -2.5145  0.3013  0.6615
12128TIP3   OH257874   0.939   1.147  15.921  0.0146 -0.6276  0.3908
12128TIP3    H157875   0.882   1.087  15.873  0.5770  0.3864 -1.6493
12128TIP3    H257876   0.897   1.232  15.912  2.3875  0.4386 -2.4129
12129TIP3   OH257877   4.280   5.985   3.101  0.0618  1.0521  0.5378
12129TIP3    H157878   4.345   6.001   3.032 -0.3961 -0.0583 -0.1747
12129TIP3    H257879   4.231   5.909   3.071 -1.5730  1.8473  1.0769
12130TIP3   OH257880   1.306   4.996  12.010  1.1109  0.1231  1.3360
12130TIP3    H157881   1.262   4.988  12.095  3.3449 -0.3397  2.5194
12130TIP3    H257882   1.338   5.086  12.008 -0.7912  0.8273 -0.0419
12131TIP3   OH257883   5.881   4.532   0.687 -0.0859  0.0744  0.5096
12131TIP3    H157884   5.855   4.584   0.610  0.4370 -1.9256 -1.1054
12131TIP3    H257885   5.897   4.444   0.652  0.9944 -0.7066  2.7935
12132TIP3   OH257886   1.470   5.617   4.365 -0.4001 -0.2951  0.2675
12132TIP3    H157887   1.442   5.526   4.355  0.9414 -0.5409 -1.6645
12132TIP3    H257888   1.546   5.613   4.422 -1.1026 -0.1917  1.2530
12133TIP3   OH257889   4.342   2.772   3.631  0.4731  0.0301 -0.2690
12133TIP3    H157890   4.343   2.860   3.669 -1.0645  0.4259 -1.0539
12133TIP3    H257891   4.313   2.715   3.702  1.7839  0.0974  0.3330
12134TIP3   OH257892   0.407   5.886   2.309 -0.5810  0.0373 -0.7529
12134TIP3    H157893   0.478   5.893   2.373 -0.3297 -0.8941 -0.9062
12134TIP3    H257894   0.443   5.830   2.240 -1.2153  0.1614 -1.1955
12135TIP3   OH257895   3.281   0.821  14.025  0.0473 -0.1342 -0.2652
12135TIP3    H157896   3.292   0.914  14.046 -1.2210 -0.2613  1.1416
12135TIP3    H257897   3.367   0.783  14.042  0.7664  0.8692 -1.4863
12136TIP3   OH257898   2.834   4.301   0.648  0.1015  0.1216  0.6703
12136TIP3    H157899   2.805   4.306   0.557  0.3640  1.2214  0.6344
12136TIP3    H257900   2.881   4.218   0.653 -2.2595 -1.2828  0.5193
12137TIP3   OH257901   1.406   0.354  13.950  0.2117 -0.1049  0.0328
12137TIP3    H157902   1.444   0.274  13.913  0.3541  0.5795 -1.3690
12137TIP3    H257903   1.332   0.374  13.892  1.1789  1.6787 -0.6636
12138TIP3   OH257904   6.094   1.459  13.803 -0.0209 -0.1952 -0.2543
12138TIP3    H157905   6.072   1.435  13.893 -1.2322 -2.0274 -0.9885
12138TIP3    H257906   6.048   1.541  13.788 -0.8976 -0.5498  0.3949
12139TIP3   OH257907   1.937   5.614   3.840 -0.1295  0.0389 -0.2377
12139TIP3    H157908   1.903   5.525   3.854  2.6197 -1.2039 -0.9008
12139TIP3    H257909   1.978   5.638   3.923  0.8347 -0.1467 -0.6460
12140TIP3   OH257910   1.114   2.361   2.378 -0.7813  0.0133  0.4781
12140TIP3    H157911   1.174   2.354   2.304 -2.2174  0.3128 -0.7786
12140TIP3    H257912   1.035   2.314   2.349 -2.2862  2.1909  0.7990
12141TIP3   OH257913   0.040   2.505  10.208  0.0880  0.6075 -0.8669
12141TIP3    H157914   0.083   2.564  10.270  0.1021  0.1765 -0.4624
12141TIP3    H257915  -0.003   2.440  10.263  0.4200 -0.0050 -1.3227
12142TIP3   OH257916   1.140   5.567  12.306  0.6947  0.6457 -0.4298
12142TIP3    H157917   1.219   5.559  12.360 -0.6175 -0.6920  1.4541
12142TIP3    H257918   1.133   5.482  12.262 -0.7214 -0.0488  1.0287
12143TIP3   OH257919   5.854   0.428   1.330  0.4641 -0.1030  0.1631
12143TIP3    H157920   5.938   0.398   1.366  0.7267 -0.5193 -0.7598
12143TIP3    H257921   5.802   0.349   1.320  0.7340 -0.1382 -1.1929
12144TIP3   OH257922   5.441   3.806   4.198 -0.0731  0.0308  0.5397
12144TIP3    H157923   5.458   3.817   4.292 -0.2360 -1.4300  0.7697
12144TIP3    H257924   5.376   3.873   4.177 -3.4330 -2.2804  2.5094
12145TIP3   OH257925   5.551   5.336   5.127  0.0290 -0.3844  0.1813
12145TIP3    H157926   5.625   5.373   5.078 -1.0828  0.1909 -1.1261
12145TIP3    H257927   5.511   5.411   5.170 -0.4537 -0.5228 -0.0240
12146TIP3   OH257928   6.636   4.033   0.880 -0.6399 -0.4024  0.2901
12146TIP3    H157929   6.643   4.075   0.966 -0.3452 -1.9930  1.0706
12146TIP3    H257930   6.615   4.105   0.821  0.2413  0.9137  1.5005
12147TIP3   OH257931   4.738   5.247  11.980  0.5379  0.5972 -0.0638
12147TIP3    H157932   4.830   5.271  11.984  0.1020  2.2779  2.4213
12147TIP3    H257933   4.722   5.201  12.063 -0.0607 -3.2735 -2.1270
12148TIP3   OH257934   5.734   4.063   3.160  0.2190  0.3489 -0.5441
12148TIP3    H157935   5.696   4.004   3.094 -0.4213  1.6878 -1.4291
12148TIP3    H257936   5.824   4.077   3.130  0.5386 -0.5564 -0.0452
12149TIP3   OH257937   0.363   4.450   4.942  0.3894 -0.3811 -0.6384
12149TIP3    H157938   0.413   4.501   4.879  0.5919  0.0077 -0.1693
12149TIP3    H257939   0.293   4.509   4.970 -0.0310 -0.7434 -0.9072
12150TIP3   OH257940   0.758   5.448   4.729 -0.1941  0.0061  0.8080
12150TIP3    H157941   0.761   5.357   4.759  0.5767  0.6547  2.8821
12150TIP3    H257942   0.721   5.497   4.803  2.1354  1.7645  0.9297
12151TIP3   OH257943   5.876   6.495  10.977  0.3113  0.1627 -0.2529
12151TIP3    H157944   5.812   6.470  10.911  0.9213  0.9596 -1.1881
12151TIP3    H257945   5.939   6.423  10.977 -1.3334 -1.3935  1.7975
12152TIP3   OH257946   1.761   1.457  16.166  0.3683  0.0865 -0.2032
12152TIP3    H157947   1.747   1.476  16.073  3.1342  0.0965 -0.6833
12152TIP3    H257948   1.771   1.542  16.207 -0.7856  0.0789  0.1262
12153TIP3   OH257949   6.590   6.227   3.105 -0.1956  0.1839  0.8670
12153TIP3    H157950   6.494   6.225   3.107 -0.1821 -0.5553  1.3313
12153TIP3    H257951   6.612   6.303   3.052 -1.0361  1.2292  1.9741
12154TIP3   OH257952   3.231   3.704   2.155 -0.0476 -0.6802 -0.1369
12154TIP3    H157953   3.237   3.706   2.059  0.1526 -0.5943 -0.1220
12154TIP3    H257954   3.322   3.706   2.185 -0.0497 -2.1663  0.0364
12155TIP3   OH257955   2.478   0.219   1.581 -0.1071  0.0551 -0.4492
12155TIP3    H157956   2.523   0.224   1.497 -0.3396  1.7908 -0.5119
12155TIP3    H257957   2.388   0.247   1.561 -0.8331 -1.8342 -0.0429
12156TIP3   OH257958   3.504   3.682   2.242 -0.1880  0.3993  0.4276
12156TIP3    H157959   3.529   3.713   2.155  1.0842 -1.1059  0.2046
12156TIP3    H257960   3.562   3.607   2.257 -2.8406 -1.6420  1.0561
12157TIP3   OH257961   1.525   2.691  14.628 -0.0718  0.1406 -0.1927
12157TIP3    H157962   1.549   2.783  14.617  0.2628 -0.0065 -0.7426
12157TIP3    H257963   1.506   2.661  14.539  1.6323 -0.8083 -0.2874
12158TIP3   OH257964   1.558   1.256  15.541  0.1403 -0.1935  0.0150
12158TIP3    H157965   1.549   1.186  15.606  0.1020 -0.4966 -0.3192
12158TIP3    H257966   1.475   1.254  15.493  0.7551 -0.9578 -1.0365
12159TIP3   OH257967   4.259   2.828   2.404 -0.2741  0.5084 -0.0925
12159TIP3    H157968   4.197   2.756   2.410  1.1610 -0.7121  0.9339
12159TIP3    H257969   4.207   2.906   2.423 -1.5873 -0.3983  0.1801
12160TIP3   OH257970   6.069   5.472   4.193 -0.1350 -0.5199 -0.0155
12160TIP3    H157971   6.049   5.545   4.135 -1.6378 -0.7843  0.1362
12160TIP3    H257972   6.165   5.467   4.193  0.0010  1.2498 -0.2670
12161TIP3   OH257973   3.814   3.094   5.629  0.3245  0.6479 -0.3181
12161TIP3    H157974   3.728   3.057   5.648 -0.8048  2.9266 -0.5674
12161TIP3    H257975   3.842   3.051   5.549  0.2241 -1.3101  0.6263
12162TIP3   OH257976   6.621   1.100   1.186 -0.1264 -0.5850 -0.3610
12162TIP3    H157977   6.593   1.191   1.193 -0.3989 -0.5558 -1.5650
12162TIP3    H257978   6.658   1.079   1.271 -1.6743  0.1099  0.5250
12163TIP3   OH257979   0.494   5.505  16.998  0.6055 -0.2293 -0.5094
12163TIP3    H157980   0.407   5.481  16.966  0.2753  2.3468 -1.8544
12163TIP3    H257981   0.490   5.491  17.092 -1.9157  1.3358 -0.2878
12164TIP3   OH257982   3.354   2.090   5.417  0.9300  0.1181 -0.4005
12164TIP3    H157983   3.444   2.091   5.450  0.9275  1.2737 -0.3758
12164TIP3    H257984   3.323   2.179   5.431 -0.2198 -0.2650 -0.4241
12165TIP3   OH257985   0.881   3.824   3.126  0.3260  0.3793  0.1454
12165TIP3    H157986   0.905   3.733   3.111  0.0796  0.4657 -0.8266
12165TIP3    H257987   0.821   3.821   3.201  0.7215 -0.1899  0.4450
12166TIP3   OH257988   0.124   3.463   3.545 -1.1703  0.1352 -0.2439
12166TIP3    H157989   0.049   3.491   3.597 -0.2127  0.4374  1.0225
12166TIP3    H257990   0.151   3.380   3.584  0.0638  0.7687  0.3007
12167TIP3   OH257991   6.567   3.728  11.525 -0.4198 -0.5492 -0.1267
12167TIP3    H157992   6.478   3.751  11.498 -0.6431 -1.9005 -0.6378
12167TIP3    H257993   6.608   3.811  11.548 -1.5016  0.2034 -0.8416
12168TIP3   OH257994   5.463   6.048  14.975 -0.0519 -0.1622  0.4128
12168TIP3    H157995   5.430   6.073  14.888  0.8778 -0.4018 -0.0286
12168TIP3    H257996   5.514   6.123  15.004  0.8727 -0.6430  0.0806
12169TIP3   OH257997   1.328   1.266  14.614  0.0165 -0.2552 -0.0883
12169TIP3    H157998   1.357   1.196  14.673 -0.3144  0.2340  0.6867
12169TIP3    H257999   1.252   1.229  14.570  0.9619 -1.0513 -1.1111
12170TIP3   OH258000   2.104   0.122   2.428 -0.1516 -0.0123 -0.0335
12170TIP3    H158001   2.129   0.031   2.445 -1.6838 -0.2527  1.1868
12170TIP3    H258002   2.048   0.145   2.502  1.3858  2.4299  0.4986
12171TIP3   OH258003   4.579   1.651   5.162 -0.4244 -0.7718  0.7489
12171TIP3    H158004   4.622   1.678   5.080 -1.6246 -0.9459  0.0458
12171TIP3    H258005   4.559   1.558   5.148 -1.2981 -0.6145  0.9414
12172TIP3   OH258006   5.751   6.253   3.780 -0.3975 -0.2556 -0.0244
12172TIP3    H158007   5.797   6.336   3.796 -1.2264  0.2619 -0.2522
12172TIP3    H258008   5.679   6.253   3.844  0.4749 -1.5264  1.0229
12173TIP3   OH258009   4.095   1.541   2.886  0.0506 -0.4002 -1.1063
12173TIP3    H158010   4.045   1.461   2.905 -2.4095  0.7210 -2.4535
12173TIP3    H258011   4.029   1.610   2.879  2.0442  1.6916 -0.6155
12174TIP3   OH258012   2.618   5.856   4.517  0.4015 -0.1347  0.1634
12174TIP3    H158013   2.660   5.799   4.582  0.2143 -0.9542 -0.4113
12174TIP3    H258014   2.580   5.927   4.568  0.7384 -0.4633  0.8901
12175TIP3   OH258015   4.018   4.550   3.266 -0.8777 -0.2852 -0.0960
12175TIP3    H158016   3.983   4.551   3.177 -1.3032 -1.0297  0.0524
12175TIP3    H258017   4.068   4.631   3.273  0.6121 -0.9994 -1.5872
12176TIP3   OH258018   1.569   0.866  13.670  0.1300  0.5391 -0.5544
12176TIP3    H158019   1.602   0.954  13.655  1.4568 -0.0905 -1.5170
12176TIP3    H258020   1.476   0.878  13.689  0.7001  2.2893  1.4668
12177TIP3   OH258021   0.443   3.744   0.795 -0.5712 -0.2446  0.0430
12177TIP3    H158022   0.406   3.727   0.708 -0.7839  1.0194 -0.1369
12177TIP3    H258023   0.537   3.753   0.779 -0.6185  0.0592 -0.0702
12178TIP3   OH258024   5.265   4.028   4.184  0.5929  0.1596  0.3386
12178TIP3    H158025   5.193   4.080   4.219  1.5799  0.9450  1.2618
12178TIP3    H258026   5.340   4.087   4.184  1.0463 -0.3458 -1.5004
12179TIP3   OH258027   1.157   1.402  15.462  0.5197 -0.2660  0.0972
12179TIP3    H158028   1.171   1.489  15.500  1.4347 -0.6424  0.6550
12179TIP3    H258029   1.128   1.419  15.372  0.3527  0.6130  0.3085
12180TIP3   OH258030   6.002   4.502   3.691 -0.2826  0.2549  0.0781
12180TIP3    H158031   5.969   4.476   3.777 -3.2655  0.6940 -0.8207
12180TIP3    H258032   5.979   4.595   3.683 -0.0720  0.2218 -1.2027
12181TIP3   OH258033   1.006   0.291   5.368  0.3659  0.2681 -0.1933
12181TIP3    H158034   1.067   0.248   5.428 -0.6341  0.8474  1.3087
12181TIP3    H258035   0.919   0.264   5.400 -0.2246  1.7565 -0.4688
12182TIP3   OH258036   4.090   3.089  11.913 -0.2212  0.0866  0.1820
12182TIP3    H158037   3.999   3.075  11.888  0.1546  0.8565 -1.7612
12182TIP3    H258038   4.099   3.184  11.922  1.1280  0.4029 -3.0815
12183TIP3   OH258039   2.892   5.838  14.678 -0.0425  0.0155  0.1932
12183TIP3    H158040   2.830   5.772  14.647  0.7191 -0.7198  0.2215
12183TIP3    H258041   2.836   5.905  14.717 -0.8033 -1.4611  1.8261
12184TIP3   OH258042   3.096   0.359  13.066 -0.0488  0.1925  0.0532
12184TIP3    H158043   3.081   0.375  12.973 -1.9429  2.4896  0.6321
12184TIP3    H258044   3.116   0.445  13.102  2.9339 -0.9730  1.4881
12185TIP3   OH258045   3.091   3.347   2.700 -0.0270 -0.4654 -0.0601
12185TIP3    H158046   3.075   3.358   2.794  0.7604 -0.3439  0.0717
12185TIP3    H258047   3.024   3.285   2.671  0.9683 -2.1303  1.0110
12186TIP3   OH258048   1.127   5.174  13.169  0.1063 -0.0467  0.7469
12186TIP3    H158049   1.054   5.231  13.192  0.4913 -0.1738  2.4432
12186TIP3    H258050   1.190   5.231  13.126 -0.2344  0.4523  0.9023
12187TIP3   OH258051   2.293   4.656  13.133 -0.3843  0.6729 -0.4214
12187TIP3    H158052   2.389   4.649  13.140 -0.5518 -2.7989  0.4952
12187TIP3    H258053   2.276   4.645  13.039  0.0875  1.1359 -0.5703
12188TIP3   OH258054   5.749   4.295   3.320 -0.1432  0.0767  0.0911
12188TIP3    H158055   5.718   4.234   3.253  2.4113  0.8904 -1.9813
12188TIP3    H258056   5.685   4.366   3.320  0.2067  0.4398 -2.1033
12189TIP3   OH258057   4.428   4.013  17.087  0.4183  0.2077  0.2250
12189TIP3    H158058   4.342   4.015  17.127  0.8424 -0.2114  1.2009
12189TIP3    H258059   4.440   3.921  17.060  0.1371  0.4832 -0.8925
12190TIP3   OH258060   3.175   6.552   2.299  0.2104 -0.1273  0.6900
12190TIP3    H158061   3.125   6.569   2.218 -0.8690  1.4104  1.6238
12190TIP3    H258062   3.226   6.632   2.312 -1.8923  0.9394  3.0697
12191TIP3   OH258063   2.255   2.816   0.112 -0.5077 -0.2976 -0.2050
12191TIP3    H158064   2.179   2.759   0.128 -3.3231  3.0716 -0.2401
12191TIP3    H258065   2.263   2.868   0.192 -0.1103  1.3748 -1.2954
12192TIP3   OH258066   6.339   4.020  12.429 -0.0208  0.3237  0.0168
12192TIP3    H158067   6.302   4.013  12.517 -1.9072  0.6881 -0.6996
12192TIP3    H258068   6.381   4.106  12.428 -0.7489  0.6869  0.2940
12193TIP3   OH258069   0.709   2.602  13.037  0.2140  0.8296 -0.1791
12193TIP3    H158070   0.769   2.565  13.102 -0.4660  3.0069  1.8227
12193TIP3    H258071   0.685   2.527  12.982  1.0704 -1.0804  1.8669
12194TIP3   OH258072   0.055   1.318  12.899 -0.1218 -0.5313  0.2045
12194TIP3    H158073   0.139   1.352  12.868 -0.5143  2.2536  1.8741
12194TIP3    H258074   0.076   1.269  12.978 -0.0213 -0.3351  0.2982
12195TIP3   OH258075   4.229   2.630   6.193  0.1311 -0.7047  0.1415
12195TIP3    H158076   4.166   2.662   6.128 -0.6046 -1.3588  0.5189
12195TIP3    H258077   4.276   2.560   6.148 -0.9089 -1.6865  0.5350
12196TIP3   OH258078   3.956   2.238   6.023  0.7701  0.2611  0.0411
12196TIP3    H158079   4.039   2.211   5.984  0.2304 -1.1426 -0.1988
12196TIP3    H258080   3.956   2.200   6.110  0.6817  0.8571  0.3045
12197TIP3   OH258081   4.944   6.035  13.894 -0.2515 -0.7438  0.3059
12197TIP3    H158082   5.018   6.035  13.955  0.0704  1.0287 -0.0373
12197TIP3    H258083   4.872   5.998  13.944  0.1673  0.1122  1.5851
12198TIP3   OH258084   2.111   4.784   5.634  0.1124 -0.1303 -0.1103
12198TIP3    H158085   2.113   4.878   5.651 -0.4551 -0.0849 -0.2956
12198TIP3    H258086   2.053   4.748   5.701  0.2550 -0.3382 -0.0961
12199TIP3   OH258087   2.444   1.765   2.599 -0.2232  0.4734  0.0328
12199TIP3    H158088   2.515   1.828   2.585 -0.0459  0.9597  2.7315
12199TIP3    H258089   2.468   1.718   2.679 -1.8313 -0.9635 -0.2651
12200TIP3   OH258090   1.859   2.040  11.774 -0.1507  0.0262  0.2213
12200TIP3    H158091   1.868   2.126  11.733  1.0909  0.1604  0.7243
12200TIP3    H258092   1.891   1.978  11.709  0.0452  0.0526  0.2940
12201TIP3   OH258093   2.163   0.082  17.102 -0.1431  0.6404  0.4870
12201TIP3    H158094   2.139   0.102  17.193  0.4593  1.9352  0.3807
12201TIP3    H258095   2.145   0.163  17.054 -1.6487 -0.4131 -0.8144
12202TIP3   OH258096   1.328   3.639   6.222  0.4432 -0.1966 -0.3019
12202TIP3    H158097   1.406   3.586   6.203  2.5534  2.2910  0.7626
12202TIP3    H258098   1.335   3.659   6.315 -1.2760  0.4524 -0.2900
12203TIP3   OH258099   4.660   3.618  14.475  0.2150  0.2013  0.2762
12203TIP3    H158100   4.653   3.620  14.380  0.1240  0.1603  0.2809
12203TIP3    H258101   4.751   3.637  14.494  0.2453  0.1518  0.1777
12204TIP3   OH258102   6.471   5.207  10.855 -0.0192 -0.3539  0.0534
12204TIP3    H158103   6.418   5.128  10.856  0.4368 -0.6890 -0.8856
12204TIP3    H258104   6.553   5.181  10.812  0.5886  0.3473  0.7379
12205TIP3   OH258105   3.156   1.776   6.095  0.4357  0.1737 -0.2953
12205TIP3    H158106   3.126   1.690   6.125 -2.3482 -0.0188 -3.1427
12205TIP3    H258107   3.180   1.762   6.003 -1.4183  2.6141 -1.2780
12206TIP3   OH258108   5.272   3.172   4.728  0.6629 -0.1720  0.0677
12206TIP3    H158109   5.301   3.259   4.698  0.0892  0.2486  0.7164
12206TIP3    H258110   5.335   3.112   4.689  0.5991  0.4607 -1.0672
12207TIP3   OH258111   2.013   1.346  11.811  0.6917  0.2192 -0.3459
12207TIP3    H158112   1.980   1.371  11.897 -0.0225 -2.0629  0.1183
12207TIP3    H258113   2.094   1.299  11.828 -0.5295 -2.1733 -0.6184
12208TIP3   OH258114   4.188   1.575  11.685  0.7430 -0.0145 -0.0345
12208TIP3    H158115   4.133   1.547  11.612  1.8512 -0.5426 -0.6917
12208TIP3    H258116   4.201   1.497  11.738 -0.1658  0.3983  0.8134
12209TIP3   OH258117   1.854   2.831   0.829  0.6730 -0.4567 -0.4678
12209TIP3    H158118   1.778   2.773   0.833  1.4873 -1.5044  2.2281
12209TIP3    H258119   1.817   2.918   0.845 -0.2235 -0.6047 -1.6156
12210TIP3   OH258120   5.370   4.133  15.033 -0.2557 -0.1722 -0.4910
12210TIP3    H158121   5.339   4.110  15.121 -2.8821  2.3817 -0.5759
12210TIP3    H258122   5.316   4.080  14.974 -0.1176 -0.2040 -0.5889
12211TIP3   OH258123   2.262   3.725  11.197  0.1821  0.0763 -0.0517
12211TIP3    H158124   2.289   3.664  11.266  1.4413 -0.6325 -1.1171
12211TIP3    H258125   2.168   3.736  11.209  0.1376 -1.1706  0.8851
12212TIP3   OH258126   4.987   0.389  15.575 -0.1970  0.0548 -0.1286
12212TIP3    H158127   4.939   0.414  15.654 -0.9858 -0.5803 -0.3931
12212TIP3    H258128   4.995   0.470  15.525 -2.6758 -0.1286 -0.9643
12213TIP3   OH258129   1.606   3.769  15.597  0.2491  0.2894  0.6885
12213TIP3    H158130   1.684   3.732  15.554 -0.8459 -2.5591  0.9349
12213TIP3    H258131   1.553   3.804  15.525  1.5551  2.0083  0.4937
12214TIP3   OH258132   0.699   6.327   6.167 -0.1366 -0.1497  0.0871
12214TIP3    H158133   0.779   6.345   6.118  0.5729 -0.3210  1.1453
12214TIP3    H258134   0.727   6.324   6.259 -1.2901 -0.5729  0.4454
12215TIP3   OH258135   5.981   6.161  11.985  0.1968 -0.3700  0.1536
12215TIP3    H158136   6.045   6.233  11.986  1.6468 -1.4784 -2.3291
12215TIP3    H258137   6.026   6.088  12.027 -0.7663 -0.2467  1.4509
12216TIP3   OH258138   0.302   4.589  13.526 -0.2007 -0.2520 -0.2343
12216TIP3    H158139   0.235   4.563  13.589 -0.2535  0.9387  0.2238
12216TIP3    H258140   0.373   4.525  13.539 -0.8680 -0.9799 -0.1026
12217TIP3   OH258141   4.110   5.435   1.400  0.2724 -0.0270  0.5077
12217TIP3    H158142   4.016   5.428   1.386  0.5964  0.1290 -2.3613
12217TIP3    H258143   4.133   5.357   1.451 -1.5602  0.7563  2.6813
12218TIP3   OH258144   2.311   4.588  14.085 -0.2366  0.0267  0.0923
12218TIP3    H158145   2.221   4.583  14.052  0.7321 -0.2302 -2.8571
12218TIP3    H258146   2.357   4.641  14.020  1.4574  1.4718  2.3352
12219TIP3   OH258147   1.748   6.804  15.125  0.0169 -0.0510 -0.3465
12219TIP3    H158148   1.807   6.818  15.199 -1.8837  0.1383  1.2294
12219TIP3    H258149   1.689   6.734  15.154 -2.9114  2.2487 -0.1972
12220TIP3   OH258150   6.828   0.224  13.340 -0.0005 -0.4457 -0.4389
12220TIP3    H158151   6.746   0.175  13.341 -0.9116  0.9561  2.0368
12220TIP3    H258152   6.811   0.299  13.284 -1.2381  0.9515  1.6529
12221TIP3   OH258153   6.688   4.362  11.087  0.1713  0.5663  0.1877
12221TIP3    H158154   6.747   4.290  11.067 -2.0364 -0.8363 -1.7826
12221TIP3    H258155   6.710   4.430  11.023 -1.1891 -0.5422 -1.5689
12222TIP3   OH258156   2.491   1.098  11.598 -0.2843  0.6257  0.1949
12222TIP3    H158157   2.537   1.177  11.569 -0.1630  1.3945  2.3039
12222TIP3    H258158   2.531   1.077  11.682  0.8094 -2.6804 -0.9926
12223TIP3   OH258159   5.029   1.458  15.589  0.1765  0.0001 -0.2405
12223TIP3    H158160   5.037   1.548  15.620  0.1875  0.2591 -0.9942
12223TIP3    H258161   5.119   1.425  15.588  0.1634 -0.0604  0.1236
12224TIP3   OH258162   4.446   4.886  14.227  0.3124 -0.4330 -0.3103
12224TIP3    H158163   4.473   4.916  14.140  0.3926  2.1137  0.5138
12224TIP3    H258164   4.351   4.875  14.220  0.3145 -0.2182 -0.7192
12225TIP3   OH258165   2.259   6.092   4.429 -0.1756 -0.0863 -0.2240
12225TIP3    H158166   2.167   6.119   4.426  0.0844  0.7064 -1.4402
12225TIP3    H258167   2.307   6.164   4.390  0.8905 -0.8607 -0.3919
12226TIP3   OH258168   5.077   5.814  15.477  0.2550  0.1265  0.0856
12226TIP3    H158169   5.045   5.783  15.392  0.6111 -1.9059  0.6355
12226TIP3    H258170   5.007   5.869  15.511 -0.1076  0.5510 -1.2859
12227TIP3   OH258171   0.941   5.012  15.732 -0.0349 -0.2521 -0.8363
12227TIP3    H158172   0.966   4.931  15.776 -0.2735  0.1063 -0.0230
12227TIP3    H258173   1.018   5.069  15.741 -0.5570  0.3097  0.3479
12228TIP3   OH258174   2.758   1.878  16.150  0.1131 -0.1990 -0.0872
12228TIP3    H158175   2.769   1.937  16.224 -0.7377  1.8723 -1.5230
12228TIP3    H258176   2.663   1.861  16.148 -0.2756  1.7260 -2.0246
12229TIP3   OH258177   2.974   0.667  13.655  0.3720  0.3384 -0.3060
12229TIP3    H158178   3.022   0.666  13.737 -0.8924  2.3412  0.5406
12229TIP3    H258179   3.004   0.746  13.610  0.1246 -0.0510 -1.1709
12230TIP3   OH258180   4.401   0.208  12.712 -0.2038 -0.5953  0.0626
12230TIP3    H158181   4.461   0.200  12.637  3.6793  1.1733  2.6735
12230TIP3    H258182   4.377   0.301  12.712  1.6164 -0.0567  2.0952
12231TIP3   OH258183   4.223   1.015  12.722 -0.0559 -0.6538  0.3704
12231TIP3    H158184   4.270   0.941  12.685 -0.1594 -0.1308 -0.8694
12231TIP3    H258185   4.135   1.008  12.684  0.2420  0.6890 -0.6292
12232TIP3   OH258186   4.440   4.355  11.354 -0.1662  0.0667 -0.2439
12232TIP3    H158187   4.429   4.373  11.261  1.3650  1.3536 -0.2068
12232TIP3    H258188   4.446   4.260  11.360 -0.6582 -0.0467 -1.3959
12233TIP3   OH258189   1.468   4.919   4.331  0.3623 -0.0206  0.6080
12233TIP3    H158190   1.509   4.984   4.274  0.7864 -0.3214  0.5597
12233TIP3    H258191   1.452   4.966   4.413 -0.5197  0.4962  0.1555
12234TIP3   OH258192   0.083   0.534   1.863 -0.0530 -0.3919 -0.3379
12234TIP3    H158193   0.080   0.516   1.769 -1.5123  1.8372 -0.7961
12234TIP3    H258194   0.107   0.626   1.870 -0.4524 -0.3760  1.4645
12235TIP3   OH258195   3.748   0.846   6.705  0.0556  0.0897 -0.0706
12235TIP3    H158196   3.834   0.804   6.704 -0.5483 -1.2502 -1.9788
12235TIP3    H258197   3.686   0.774   6.713 -0.9370  0.9175 -0.1094
12236TIP3   OH258198   6.059   0.232   4.218 -0.2440  0.3035  0.2495
12236TIP3    H158199   6.033   0.287   4.144  0.0524  1.2063  0.8063
12236TIP3    H258200   6.075   0.146   4.179 -0.6722  0.6110 -0.6416
12237TIP3   OH258201   0.310   2.819  13.672  0.2141 -0.0386 -0.2832
12237TIP3    H158202   0.384   2.794  13.615  0.8621 -0.9177  0.8891
12237TIP3    H258203   0.351   2.839  13.756 -0.7943  0.5592  0.0754
12238TIP3   OH258204   5.305   4.919  14.312  0.0084 -0.1535 -0.3001
12238TIP3    H158205   5.217   4.893  14.283  0.3862 -0.7249 -0.9817
12238TIP3    H258206   5.315   5.009  14.281  0.1097 -0.4934 -1.3221
12239TIP3   OH258207   0.156   6.342   0.812 -0.2763  0.1206 -0.6239
12239TIP3    H158208   0.102   6.313   0.739 -0.3873  1.1491 -0.9585
12239TIP3    H258209   0.202   6.419   0.779  2.2924 -1.3314 -0.7469
12240TIP3   OH258210   3.955   3.590  16.731 -0.0018  0.3703 -0.8984
12240TIP3    H158211   3.971   3.683  16.712 -1.1601  0.7011 -0.3654
12240TIP3    H258212   3.885   3.591  16.796  2.3043 -0.7554  1.8496
12241TIP3   OH258213   1.343   2.529   4.905  0.0466  0.0725 -0.4264
12241TIP3    H158214   1.363   2.495   4.818  0.8190  1.1459 -0.6781
12241TIP3    H258215   1.295   2.610   4.889  2.0842  1.4409  0.0879
12242TIP3   OH258216   4.387   5.015  10.769 -0.0840  0.0694 -0.3648
12242TIP3    H158217   4.417   4.941  10.716  0.2699  0.3540 -0.5632
12242TIP3    H258218   4.291   5.011  10.762 -0.0257  0.4518 -1.5159
12243TIP3   OH258219   0.269   4.883   0.558 -0.3345 -0.7789 -0.2359
12243TIP3    H158220   0.249   4.837   0.476 -0.0177  0.2081 -0.8754
12243TIP3    H258221   0.278   4.813   0.622  0.7863 -1.6807 -1.3222
12244TIP3   OH258222   4.950   0.594   0.530  0.2062 -0.1760 -0.4176
12244TIP3    H158223   4.882   0.537   0.494 -1.6888  1.3546  0.4998
12244TIP3    H258224   4.903   0.675   0.552  2.1211  0.5506  1.3215
12245TIP3   OH258225   3.091   3.446  14.875  0.2968 -0.0100  0.5245
12245TIP3    H158226   3.043   3.368  14.847 -0.3501  0.6050 -0.1068
12245TIP3    H258227   3.071   3.512  14.809  2.7068  0.0332 -0.2512
12246TIP3   OH258228   5.815   3.925   0.093 -0.1561  0.0201  0.2878
12246TIP3    H158229   5.795   3.865   0.165  1.7390  0.1825  0.9904
12246TIP3    H258230   5.824   4.011   0.134 -1.6015  0.6039 -0.5396
12247TIP3   OH258231   2.809   6.520  10.788 -0.0864 -0.0280 -0.0747
12247TIP3    H158232   2.755   6.449  10.752 -1.1542  1.3969 -1.4004
12247TIP3    H258233   2.818   6.582  10.716  0.2176  1.5242  1.2608
12248TIP3   OH258234   5.444   6.779   1.469  0.5637 -0.0822  0.1961
12248TIP3    H158235   5.399   6.772   1.553  0.0171 -1.2551 -0.1710
12248TIP3    H258236   5.532   6.810   1.491  0.4780 -0.5334  1.2145
12249TIP3   OH258237   6.128   1.087  10.574 -0.9521  0.2556  0.1185
12249TIP3    H158238   6.124   0.992  10.577  0.5941  0.1799  0.6156
12249TIP3    H258239   6.161   1.107  10.487  0.1894  0.2404  0.5266
12250TIP3   OH258240   3.838   1.464  14.714  0.7498  0.1002  0.1014
12250TIP3    H158241   3.755   1.500  14.744 -0.5825 -2.9493  0.4679
12250TIP3    H258242   3.825   1.451  14.620  2.2852  2.9776 -0.6378
12251TIP3   OH258243   3.607   5.528  13.697  0.2655  0.2539  0.1863
12251TIP3    H158244   3.542   5.598  13.688  0.1955  0.2362  0.5441
12251TIP3    H258245   3.677   5.568  13.749  1.1830  0.7144 -1.3182
12252TIP3   OH258246   2.526   0.439   1.861 -0.1623 -0.3684 -0.4231
12252TIP3    H158247   2.608   0.423   1.814  0.2412  1.4729 -0.4466
12252TIP3    H258248   2.501   0.528   1.835 -2.4019 -1.0202 -0.7126
12253TIP3   OH258249   0.931   5.941   1.155 -0.0341 -0.2295 -0.1442
12253TIP3    H158250   1.017   5.984   1.147  0.6961 -1.5900  0.0982
12253TIP3    H258251   0.915   5.938   1.250 -1.5117  2.1593 -0.2364
12254TIP3   OH258252   4.628   2.054   1.837  0.0888  0.0810 -0.3027
12254TIP3    H158253   4.603   2.093   1.754  0.3201 -0.5510 -0.6790
12254TIP3    H258254   4.664   2.126   1.888  2.6957  0.0000 -1.8337
12255TIP3   OH258255   3.936   5.583  15.367 -0.1081 -0.5678 -0.0605
12255TIP3    H158256   3.998   5.654  15.352  0.0153 -0.6072  0.2757
12255TIP3    H258257   3.884   5.580  15.286 -0.2395  0.0270 -0.0005
12256TIP3   OH258258   3.299   4.087   0.709  0.1496 -0.0854  0.2736
12256TIP3    H158259   3.280   3.994   0.721 -2.4050 -0.0167 -2.2731
12256TIP3    H258260   3.319   4.096   0.616 -2.8475  2.2478 -0.3070
12257TIP3   OH258261   3.350   0.600  12.638 -0.0213 -0.3931 -0.0782
12257TIP3    H158262   3.277   0.656  12.609 -0.7433 -1.2270  0.0832
12257TIP3    H258263   3.382   0.642  12.717 -0.7251 -0.3336  0.1872
12258TIP3   OH258264   0.771   5.122  12.011  0.1975  0.3452  0.5049
12258TIP3    H158265   0.807   5.145  12.097 -1.1676  4.0801  0.2752
12258TIP3    H258266   0.677   5.135  12.021 -0.1140 -0.3486 -1.2504
12259TIP3   OH258267   4.145   6.585  10.748 -0.9335 -0.3853  0.2708
12259TIP3    H158268   4.224   6.631  10.720  0.0894 -1.9602  0.4365
12259TIP3    H258269   4.172   6.536  10.826 -1.8570 -1.5466 -0.1107
12260TIP3   OH258270   2.231   5.588   0.675 -0.4765 -0.1382  0.0375
12260TIP3    H158271   2.306   5.577   0.733  1.5769  0.7172 -2.2670
12260TIP3    H258272   2.233   5.680   0.650 -1.9574 -0.2301 -0.5441
12261TIP3   OH258273   3.630   1.084  13.570  0.9789 -0.2060  0.7121
12261TIP3    H158274   3.626   1.106  13.477  0.5076 -2.6766  0.0592
12261TIP3    H258275   3.716   1.044  13.581  0.9998  0.0035  1.3087
12262TIP3   OH258276   2.924   6.607   0.930  0.1855  0.4494 -0.3840
12262TIP3    H158277   2.942   6.651   1.013 -0.0667  0.4768 -0.3449
12262TIP3    H258278   3.007   6.565   0.907 -0.0943 -0.6655  0.5574
12263TIP3   OH258279   2.174   5.821  11.376  0.2305  0.3927  0.3892
12263TIP3    H158280   2.215   5.765  11.442  0.4632  0.1263  0.0209
12263TIP3    H258281   2.122   5.761  11.323  0.2487  0.5682  0.1727
12264TIP3   OH258282   3.610   1.146  14.878  0.2760 -0.0091  0.1914
12264TIP3    H158283   3.651   1.103  14.953  0.1030 -0.2742  0.1366
12264TIP3    H258284   3.541   1.086  14.851 -0.3822  0.5944  0.4998
12265TIP3   OH258285   0.971   4.465   0.173  0.1190 -0.0694  0.1651
12265TIP3    H158286   0.959   4.512   0.255 -1.7815  1.2327 -0.8051
12265TIP3    H258287   1.022   4.525   0.118  0.5478 -0.5360  0.0422
12266TIP3   OH258288   0.257   6.330   1.648 -0.2905 -0.2269  0.3234
12266TIP3    H158289   0.185   6.302   1.590  1.3283 -2.6374 -0.7053
12266TIP3    H258290   0.223   6.407   1.693 -3.6886 -1.4891  0.2358
12267TIP3   OH258291   0.358   5.169  16.552  0.2589 -0.0491 -0.7747
12267TIP3    H158292   0.310   5.162  16.635  1.9829 -0.5057  0.2416
12267TIP3    H258293   0.305   5.120  16.490 -0.7184 -0.3196  0.2305
12268TIP3   OH258294   4.063   0.960   0.763 -0.0655 -0.0420  0.0085
12268TIP3    H158295   4.106   1.008   0.693 -0.3469  0.3646  0.1155
12268TIP3    H258296   4.096   0.870   0.754  1.1856  0.3555  0.3832
12269TIP3   OH258297   6.245   6.627   2.837 -0.2261 -0.7991  0.1705
12269TIP3    H158298   6.288   6.568   2.899  0.2430 -0.1871  0.4301
12269TIP3    H258299   6.316   6.678   2.798 -0.5713 -0.7981 -0.4807
12270TIP3   OH258300   4.539   5.776  15.119 -0.2437  0.5792 -0.1591
12270TIP3    H158301   4.496   5.745  15.039 -1.2245  1.2468  0.0912
12270TIP3    H258302   4.467   5.805  15.175  0.4307  0.1130  0.9815
12271TIP3   OH258303   4.272   2.248  11.479  0.4708 -0.2531  0.0272
12271TIP3    H158304   4.306   2.213  11.561  1.9999 -1.1938 -0.9512
12271TIP3    H258305   4.303   2.186  11.412 -0.0957  0.8863 -1.3344
12272TIP3   OH258306   3.997   5.289  13.670  0.4601  0.2097  0.0671
12272TIP3    H158307   3.967   5.376  13.694  1.9964  0.8528 -0.1845
12272TIP3    H258308   4.071   5.305  13.610  0.7973 -1.2528  0.0541
12273TIP3   OH258309   2.996   4.009   0.532  0.2714 -0.1625  0.5395
12273TIP3    H158310   2.950   4.045   0.456 -0.5477 -1.1616  0.5390
12273TIP3    H258311   2.929   4.005   0.600 -0.0962 -2.9213  0.1474
12274TIP3   OH258312   3.040   1.021  14.265  0.3983  0.6705  0.4064
12274TIP3    H158313   3.112   1.083  14.279 -0.0791  2.1634 -2.8206
12274TIP3    H258314   2.961   1.071  14.284  0.0835  0.1881  0.3917
12275TIP3   OH258315   5.375   2.884  14.040  0.2901 -0.2734 -0.4370
12275TIP3    H158316   5.470   2.893  14.031 -0.0241  1.0379 -4.3682
12275TIP3    H258317   5.347   2.967  14.078  0.5825  0.2214 -1.2679
12276TIP3   OH258318   4.579   2.575   5.914  0.0769  0.0960  0.2238
12276TIP3    H158319   4.548   2.664   5.930  1.7148  0.7725 -0.2166
12276TIP3    H258320   4.655   2.564   5.971  1.9428  0.2108 -2.0656
12277TIP3   OH258321   2.094   2.008  16.946 -0.5530  0.0854  0.6979
12277TIP3    H158322   2.025   1.988  16.883 -1.0284  1.7643  0.6449
12277TIP3    H258323   2.094   1.933  17.006 -0.0064 -1.6330 -1.3059
12278TIP3   OH258324   1.498   6.308  14.769  0.3679 -0.0159 -0.0522
12278TIP3    H158325   1.532   6.284  14.683 -1.2262  1.1140 -1.0582
12278TIP3    H258326   1.572   6.350  14.814  1.3297 -0.9835 -0.6901
12279TIP3   OH258327   5.534   5.770  14.787 -0.5440 -0.3279 -0.0588
12279TIP3    H158328   5.450   5.761  14.741 -1.0119 -0.6752  0.8324
12279TIP3    H258329   5.552   5.682  14.821 -0.8711  0.1709  1.5028
12280TIP3   OH258330   5.568   1.834   5.682 -0.0772  0.2000  0.0384
12280TIP3    H158331   5.664   1.836   5.673 -0.0318 -0.0765  0.4097
12280TIP3    H258332   5.554   1.834   5.776 -0.4115 -0.7675  0.0044
12281TIP3   OH258333   0.225   3.542  13.975 -0.3839  0.1494 -0.2666
12281TIP3    H158334   0.241   3.621  14.027 -1.0002 -0.4726  0.9145
12281TIP3    H258335   0.157   3.495  14.024  1.1912 -1.9772 -0.0093
12282TIP3   OH258336   5.674   0.096   2.212 -0.1943 -0.3826  0.3437
12282TIP3    H158337   5.627   0.167   2.256  0.1117 -0.0621  0.1574
12282TIP3    H258338   5.727   0.056   2.280  0.4806  0.2810  0.2136
12283TIP3   OH258339   2.150   4.473  15.414 -0.4406  0.4305  0.4497
12283TIP3    H158340   2.159   4.510  15.326 -1.1990  1.4358  0.7780
12283TIP3    H258341   2.062   4.438  15.416  0.5292 -2.3010 -0.1472
12284TIP3   OH258342   0.463   3.133   4.161 -0.3506 -0.2924 -0.1891
12284TIP3    H158343   0.433   3.044   4.179  0.2988  0.0752  3.3740
12284TIP3    H258344   0.558   3.126   4.157 -0.3113  0.1772 -0.2153
12285TIP3   OH258345   3.486   4.886   4.314 -0.0629  0.0790  0.1750
12285TIP3    H158346   3.432   4.807   4.310  0.0970 -0.0817  1.0518
12285TIP3    H258347   3.569   4.857   4.351 -0.5142  0.9171  1.9333
12286TIP3   OH258348   5.507   0.882  13.766  0.1595 -0.0253  0.4176
12286TIP3    H158349   5.453   0.810  13.735  1.3208 -0.0002 -1.8202
12286TIP3    H258350   5.567   0.842  13.829 -1.1431 -0.3982  1.4737
12287TIP3   OH258351   4.344   3.470   6.527 -0.1368  0.7674 -0.4542
12287TIP3    H158352   4.271   3.409   6.537 -1.7082  2.7148  0.7148
12287TIP3    H258353   4.421   3.418   6.549 -1.3395 -0.9179  0.0143
12288TIP3   OH258354   1.241   5.346   5.098  0.4586 -0.1378  0.1902
12288TIP3    H158355   1.190   5.424   5.076 -0.5305 -1.2059 -1.4856
12288TIP3    H258356   1.317   5.349   5.041 -1.0076 -1.7790 -2.0251
12289TIP3   OH258357   3.807   6.688  17.008  1.3148 -0.3573  0.0350
12289TIP3    H158358   3.876   6.734  16.960  0.8546  0.2709 -0.0363
12289TIP3    H258359   3.757   6.642  16.940  0.6729  0.5190 -0.1061
12290TIP3   OH258360   1.721   3.181  10.971  0.1014 -0.1535  0.3007
12290TIP3    H158361   1.729   3.086  10.977 -0.6762 -0.3427 -1.1652
12290TIP3    H258362   1.806   3.214  11.001  0.5278 -1.3226  0.4444
12291TIP3   OH258363   0.808   1.150   0.844  0.4896  0.0475 -0.0866
12291TIP3    H158364   0.838   1.138   0.934 -2.3043  0.0926  0.9405
12291TIP3    H258365   0.838   1.238   0.820  1.3403 -0.0077  0.7542
12292TIP3   OH258366   2.605   6.779  11.296 -0.0956 -0.1480  0.1263
12292TIP3    H158367   2.568   6.864  11.320  2.0364  0.8904  0.0026
12292TIP3    H258368   2.684   6.801  11.246  0.9348 -2.1894  0.7571
12293TIP3   OH258369   1.574   2.009  10.502  0.5287 -0.0164 -0.1270
12293TIP3    H158370   1.479   2.022  10.505  0.4117 -0.9289  1.4429
12293TIP3    H258371   1.605   2.073  10.439 -1.0984  0.5153 -0.4402
12294TIP3   OH258372   5.494   4.402   4.277  0.6837  0.2758 -0.1973
12294TIP3    H158373   5.560   4.424   4.343  2.1432  0.3719 -1.6187
12294TIP3    H258374   5.501   4.308   4.266  0.1501  0.2001  0.0543
12295TIP3   OH258375   3.368   2.043   1.134 -0.0989  0.9711 -0.5440
12295TIP3    H158376   3.344   2.133   1.159 -0.8798  0.7188 -0.3677
12295TIP3    H258377   3.329   1.988   1.202 -0.9070  0.3853 -1.4575
12296TIP3   OH258378   2.765   4.194  15.348 -0.2454  0.3499  0.2771
12296TIP3    H158379   2.771   4.125  15.414  0.5687 -1.7245 -1.7867
12296TIP3    H258380   2.854   4.200  15.312 -0.8088  0.8393 -1.1191
12297TIP3   OH258381   6.847   0.912  12.759  0.1943 -0.0662  0.1288
12297TIP3    H158382   6.930   0.946  12.724 -0.1956 -0.2414 -1.0003
12297TIP3    H258383   6.812   0.858  12.688 -1.4506  0.9296  0.1429
12298TIP3   OH258384   0.090   4.380   0.094 -0.5836 -0.0749 -0.0130
12298TIP3    H158385   0.141   4.443   0.042 -0.4272 -1.5019 -1.6497
12298TIP3    H258386   0.054   4.319   0.030 -1.6519 -1.0231  1.4322
12299TIP3   OH258387   2.363   6.811  13.074 -0.2921  0.2437  0.7251
12299TIP3    H158388   2.406   6.866  13.139  1.4163  0.2155 -0.3241
12299TIP3    H258389   2.384   6.721  13.100  0.6147  0.2386  0.0211
12300TIP3   OH258390   3.208   2.989   2.807  0.0917  0.2034 -0.1558
12300TIP3    H158391   3.232   2.923   2.872 -0.2785  0.3693  0.1505
12300TIP3    H258392   3.229   3.073   2.848  1.1962  0.2682 -0.7985
12301TIP3   OH258393   5.074   4.316  14.798 -0.1122  0.2287  0.3552
12301TIP3    H158394   5.103   4.407  14.798  1.4177 -0.2306 -0.5686
12301TIP3    H258395   5.041   4.301  14.887  0.4721  1.4037  0.7861
12302TIP3   OH258396   2.539   1.029  11.890  0.2846  0.1117  0.6267
12302TIP3    H158397   2.503   0.968  11.954  3.6097 -1.6234  1.0690
12302TIP3    H258398   2.633   1.014  11.893  0.7309  0.4590 -4.1049
12303TIP3   OH258399   4.364   1.261  16.524 -0.2370 -0.3569  0.1004
12303TIP3    H158400   4.319   1.321  16.584 -0.4479  0.9944 -1.3422
12303TIP3    H258401   4.296   1.202  16.492 -0.0382 -1.4051  1.4896
12304TIP3   OH258402   0.264   1.090  15.685 -0.1326 -0.2305  0.1894
12304TIP3    H158403   0.241   1.183  15.689  1.1291  0.1022  0.3993
12304TIP3    H258404   0.332   1.080  15.752  0.8155 -0.9606 -0.8377
12305TIP3   OH258405   3.401   1.091   4.973 -0.2365  0.4435 -0.1873
12305TIP3    H158406   3.491   1.058   4.965  0.4343  1.8998  0.9567
12305TIP3    H258407   3.377   1.073   5.064 -0.3854  1.7660  0.0491
12306TIP3   OH258408   4.937   5.256   4.693  0.0801  0.0384  0.1827
12306TIP3    H158409   4.920   5.184   4.754  0.3696  1.0668  1.5115
12306TIP3    H258410   5.021   5.234   4.653  1.1957  0.6047  2.0997
12307TIP3   OH258411   0.675   5.811  12.284 -0.1797 -0.3429  0.2797
12307TIP3    H158412   0.612   5.817  12.213 -1.7986  0.2815  1.7130
12307TIP3    H258413   0.692   5.717  12.294  0.2687 -0.4297 -1.0410
12308TIP3   OH258414   0.036   3.127  12.993 -0.0309  0.1499  0.2199
12308TIP3    H158415  -0.047   3.140  13.038 -0.9132  0.2243 -1.3541
12308TIP3    H258416   0.012   3.085  12.910  1.4712  0.4233 -0.3878
12309TIP3   OH258417   3.237   2.797  15.528  0.7369 -0.3957 -0.5457
12309TIP3    H158418   3.170   2.746  15.483  1.2219 -0.2626 -1.4344
12309TIP3    H258419   3.260   2.744  15.605 -0.7385 -0.2021  0.0636
12310TIP3   OH258420   5.764   6.403  10.754 -0.3963 -0.0726 -0.0280
12310TIP3    H158421   5.746   6.315  10.786  0.2131  0.0024  0.5716
12310TIP3    H258422   5.783   6.392  10.661  0.0725 -0.6405  0.1261
12311TIP3   OH258423   0.818   2.347   5.291 -0.5180 -0.8541 -1.0463
12311TIP3    H158424   0.904   2.305   5.295 -1.0886 -2.0076 -0.3961
12311TIP3    H258425   0.786   2.329   5.203  0.3278  0.4933 -1.6605
12312TIP3   OH258426   2.188   0.919   2.258 -0.1987  0.6013 -0.5332
12312TIP3    H158427   2.219   0.833   2.288  1.3485  0.9383 -1.0581
12312TIP3    H258428   2.108   0.900   2.210  0.9995 -0.8161 -2.1125
12313TIP3   OH258429   4.334   4.356  16.473  0.7739 -0.3305  0.1387
12313TIP3    H158430   4.251   4.402  16.464  1.8877  1.3935 -3.0218
12313TIP3    H258431   4.372   4.390  16.553 -0.6240  0.5015  0.4853
12314TIP3   OH258432   4.475   0.872  15.236  0.1100 -0.2214  0.1142
12314TIP3    H158433   4.492   0.842  15.147  4.4076  4.1956 -1.0357
12314TIP3    H258434   4.413   0.944  15.226  0.2582  0.0044  0.7272
12315TIP3   OH258435   0.574   1.062   4.594 -0.2184 -0.0737 -0.2839
12315TIP3    H158436   0.511   1.013   4.646 -0.0374  2.2324  2.3497
12315TIP3    H258437   0.659   1.022   4.614 -0.2408  0.3408  0.7158
12316TIP3   OH258438   3.312   3.093   5.412  0.1838 -0.3449 -0.1229
12316TIP3    H158439   3.387   3.150   5.429 -1.0225  0.6918  2.3725
12316TIP3    H258440   3.245   3.152   5.376  0.1347 -1.0089 -1.1690
12317TIP3   OH258441   6.206   1.078   1.308  0.1975  0.2980  0.0396
12317TIP3    H158442   6.211   1.174   1.304  2.0312  0.2115 -1.1097
12317TIP3    H258443   6.211   1.050   1.217 -0.1204 -0.8984  0.3795
12318TIP3   OH258444   4.431   4.985  16.740  0.7292 -0.5201  0.0170
12318TIP3    H158445   4.395   4.905  16.778  1.2487 -0.2222  1.1874
12318TIP3    H258446   4.526   4.971  16.739  0.7090 -0.8198 -1.9300
12319TIP3   OH258447   1.691   1.943  13.692 -0.1247  0.9932  0.4268
12319TIP3    H158448   1.655   2.020  13.648 -2.5536 -0.2460  0.1167
12319TIP3    H258449   1.663   1.869  13.638  1.6772 -0.1935  1.0243
12320TIP3   OH258450   6.355   2.115  11.661  0.0793 -0.0157 -0.4624
12320TIP3    H158451   6.367   2.044  11.597 -1.2502 -1.3625  0.7206
12320TIP3    H258452   6.263   2.111  11.685  0.6644  0.0270  2.0320
12321TIP3   OH258453   0.583   4.466   1.372 -0.4083  0.2013 -0.1201
12321TIP3    H158454   0.628   4.428   1.297 -1.2961 -0.2909 -0.4236
12321TIP3    H258455   0.644   4.531   1.407  2.1138 -2.8441  1.6871
12322TIP3   OH258456   6.414   2.882   0.157  0.7183 -0.3172 -0.0048
12322TIP3    H158457   6.354   2.810   0.175 -0.8501  0.3664 -2.1465
12322TIP3    H258458   6.500   2.847   0.180 -0.3865 -1.3538  3.0530
12323TIP3   OH258459   5.840   3.841   5.294  0.0692  0.5517 -0.2012
12323TIP3    H158460   5.811   3.928   5.320  1.5073  0.7783  0.7595
12323TIP3    H258461   5.858   3.795   5.376 -2.6730 -1.4560 -0.5595
12324TIP3   OH258462   3.954   2.126   1.332 -0.0947 -0.1711  0.1623
12324TIP3    H158463   3.926   2.142   1.422  0.0360 -3.4853  0.9018
12324TIP3    H258464   3.876   2.092   1.288  0.4532 -0.8288 -0.3124
12325TIP3   OH258465   2.821   6.085  12.774 -0.2567 -0.3380 -0.7690
12325TIP3    H158466   2.739   6.042  12.796  0.2885 -1.2482 -0.4533
12325TIP3    H258467   2.813   6.107  12.681 -1.2508  0.5093 -0.4943
12326TIP3   OH258468   1.143   3.671  15.093  0.1421 -0.5554 -0.8689
12326TIP3    H158469   1.171   3.641  15.007 -1.7332 -1.4354 -1.2186
12326TIP3    H258470   1.117   3.763  15.079  3.2656  0.5362 -0.3843
12327TIP3   OH258471   3.536   4.669   1.031  0.1239  0.4786 -0.0321
12327TIP3    H158472   3.458   4.626   1.066  1.2212 -1.1276  0.5508
12327TIP3    H258473   3.549   4.629   0.945  0.7730  0.1292  0.2244
12328TIP3   OH258474   4.065   4.123  14.744  0.1913  0.1434 -0.2125
12328TIP3    H158475   4.062   4.206  14.696  0.8923  0.5680  0.4494
12328TIP3    H258476   4.088   4.058  14.677  1.1651  0.7286 -0.4733
12329TIP3   OH258477   5.809   1.821  17.024  0.2272  0.2233 -0.3358
12329TIP3    H158478   5.855   1.738  17.013 -0.4321 -0.1039 -0.6535
12329TIP3    H258479   5.772   1.817  17.112  2.1735  1.1899  0.6060
12330TIP3   OH258480   6.195   6.123  15.404 -0.1467  0.1878 -0.9793
12330TIP3    H158481   6.263   6.160  15.348  0.9319 -1.0562 -0.5551
12330TIP3    H258482   6.243   6.073  15.470 -1.4269  0.7478  0.4365
12331TIP3   OH258483   3.180   6.585   0.548 -0.3329 -0.7981 -0.0493
12331TIP3    H158484   3.154   6.635   0.471 -0.5410 -0.7641  0.0427
12331TIP3    H258485   3.215   6.650   0.609  2.9209 -1.1397 -1.3466
12332TIP3   OH258486   6.759   6.373  16.591 -0.2270 -0.0011 -0.2052
12332TIP3    H158487   6.819   6.431  16.638  0.8559 -0.9590 -0.3607
12332TIP3    H258488   6.763   6.404  16.500 -0.4789  0.3488 -0.0991
12333TIP3   OH258489   2.718   0.327  15.041 -0.2812 -0.6411  0.7098
12333TIP3    H158490   2.709   0.292  14.952 -0.2532 -1.3891  0.9986
12333TIP3    H258491   2.634   0.306  15.083 -0.5894  0.3828  0.6353
12334TIP3   OH258492   1.904   4.771  13.090  0.2277  0.0766 -0.5196
12334TIP3    H158493   1.913   4.679  13.066 -0.6623  0.2868 -1.7236
12334TIP3    H258494   1.812   4.792  13.073  0.5910  1.3933 -1.0432
12335TIP3   OH258495   0.519   1.224   1.796  0.0423 -0.1179  0.2191
12335TIP3    H158496   0.447   1.287   1.799  0.9600  0.9143  0.7669
12335TIP3    H258497   0.597   1.274   1.817  0.9033 -1.2874 -0.0703
12336TIP3   OH258498   6.806   2.812  16.549  0.5551 -0.3149 -0.0472
12336TIP3    H158499   6.892   2.777  16.574 -0.0006 -1.2610  0.5937
12336TIP3    H258500   6.769   2.747  16.490  0.2781  0.0984 -0.3379
12337TIP3   OH258501   0.152   6.843  14.044 -0.5891  0.1178  0.6026
12337TIP3    H158502   0.087   6.818  13.978 -0.3651  0.3810  0.2728
12337TIP3    H258503   0.114   6.918  14.089 -0.0132  1.0585 -0.4173
12338TIP3   OH258504   5.658   6.019  14.268 -0.3453  0.1199 -0.0259
12338TIP3    H158505   5.603   5.978  14.335 -1.8057  1.2680 -0.4656
12338TIP3    H258506   5.678   6.105  14.304  1.3679 -0.3489  0.2032
12339TIP3   OH258507   0.607   3.190   2.116  1.0447 -0.2682 -0.1547
12339TIP3    H158508   0.570   3.253   2.178  0.8659 -1.4465  0.9749
12339TIP3    H258509   0.550   3.195   2.039 -0.1515 -0.4647  0.6967
12340TIP3   OH258510   6.701   2.632  16.338  0.4596 -0.0036  0.2801
12340TIP3    H158511   6.722   2.542  16.316 -1.4921 -0.4339  0.0609
12340TIP3    H258512   6.608   2.641  16.320  0.7838  2.3415 -0.6168
12341TIP3   OH258513   1.594   5.430   2.123  0.0220 -0.0056  0.2349
12341TIP3    H158514   1.619   5.370   2.053  0.2327 -0.8536  1.0154
12341TIP3    H258515   1.535   5.378   2.178  1.4827 -0.0520  1.8244
12342TIP3   OH258516   3.163   0.166   1.073  0.1428  0.0141  0.5634
12342TIP3    H158517   3.225   0.169   1.146 -0.1149  1.6807  0.7490
12342TIP3    H258518   3.077   0.164   1.114  0.0145 -1.2490  0.2931
12343TIP3   OH258519   2.667   3.099   0.774 -0.3340  0.3638 -0.3681
12343TIP3    H158520   2.724   3.064   0.705  0.0627  2.3114 -1.1036
12343TIP3    H258521   2.708   3.183   0.798  0.5122 -0.9434  3.4837
12344TIP3   OH258522   2.291   4.462   5.190  0.2274  0.2801 -0.7176
12344TIP3    H158523   2.366   4.416   5.152 -0.0872 -0.5329 -0.3933
12344TIP3    H258524   2.218   4.399   5.181 -0.4296  1.0779 -1.0820
12345TIP3   OH258525   5.160   4.620   1.683 -0.5213 -0.5468 -0.1578
12345TIP3    H158526   5.103   4.687   1.645 -0.2939 -0.4572 -0.3439
12345TIP3    H258527   5.245   4.663   1.693 -0.3127 -0.8714 -0.4875
12346TIP3   OH258528   3.552   4.574  17.045  0.3869  0.1311  0.5190
12346TIP3    H158529   3.507   4.494  17.074  1.5344 -0.4448  0.8020
12346TIP3    H258530   3.483   4.640  17.040 -0.7582 -1.0726 -0.5665
12347TIP3   OH258531   3.958   3.793  12.536 -0.5266  0.2252 -0.0947
12347TIP3    H158532   4.007   3.871  12.511  0.3549  0.2831  1.6326
12347TIP3    H258533   3.879   3.827  12.579 -0.9180  0.1352 -0.7227
12348TIP3   OH258534   6.251   0.381  14.871  0.0325  0.2512  0.9587
12348TIP3    H158535   6.235   0.436  14.794 -2.8470  0.5435  1.6399
12348TIP3    H258536   6.341   0.401  14.896 -0.2202  3.1809 -0.0231
12349TIP3   OH258537   2.156   0.948  12.059  0.2217  0.1020 -0.2722
12349TIP3    H158538   2.184   0.859  12.037  0.8226 -0.0786  1.1091
12349TIP3    H258539   2.066   0.954  12.026  0.1710 -1.0260 -0.3644
12350TIP3   OH258540   5.363   0.331   0.967 -0.4608  0.1915 -0.2804
12350TIP3    H158541   5.343   0.243   0.935  3.6213 -1.1576  0.2794
12350TIP3    H258542   5.315   0.337   1.050  0.6144 -2.4456  0.6762
12351TIP3   OH258543   0.398   3.846   4.435 -0.2928  0.6262  0.0697
12351TIP3    H158544   0.309   3.817   4.416 -0.4404  1.4011 -0.4725
12351TIP3    H258545   0.389   3.939   4.453  0.5246  0.9008 -0.8608
12352TIP3   OH258546   2.032   6.629  13.670  0.8452 -0.3274  0.1100
12352TIP3    H158547   2.102   6.606  13.731 -1.2950 -0.4576  2.6986
12352TIP3    H258548   2.036   6.724  13.663  0.2386 -0.1512  1.7016
12353TIP3   OH258549   2.398   2.405   2.457  0.0713 -0.3141 -0.1246
12353TIP3    H158550   2.463   2.361   2.403 -1.0557 -1.8327 -0.3167
12353TIP3    H258551   2.388   2.348   2.534 -0.5772  0.2084  0.1920
12354TIP3   OH258552   0.060   2.852  13.790 -0.0980 -0.5563 -0.1792
12354TIP3    H158553   0.016   2.776  13.753  0.4576 -1.6212  1.2608
12354TIP3    H258554   0.153   2.837  13.772  0.0847 -0.5968  0.7759
12355TIP3   OH258555   5.659   4.698  16.340  0.0437  0.1558 -0.5178
12355TIP3    H158556   5.652   4.641  16.417  0.7966 -0.2018 -0.7011
12355TIP3    H258557   5.569   4.725  16.322 -0.3103 -0.8775 -0.3467
12356TIP3   OH258558   4.372   4.202   4.738 -0.1910 -0.3454  0.0576
12356TIP3    H158559   4.435   4.202   4.665 -1.3370 -0.8096 -0.9603
12356TIP3    H258560   4.423   4.169   4.813  1.3248  1.2257 -0.2127
12357TIP3   OH258561   0.876   2.185  14.360 -0.0921  0.0136 -0.2380
12357TIP3    H158562   0.946   2.168  14.297 -0.9079  0.2279 -1.2269
12357TIP3    H258563   0.836   2.100  14.375 -0.2216  0.0456 -0.4018
12358TIP3   OH258564   2.705   6.243  11.616 -0.2079  0.1997  0.0334
12358TIP3    H158565   2.723   6.324  11.665 -1.7092  0.8795 -0.4758
12358TIP3    H258566   2.789   6.218  11.579  0.6972  0.4262  1.8030
12359TIP3   OH258567   1.294   0.822  13.121  0.4124  1.1217 -0.0324
12359TIP3    H158568   1.299   0.917  13.135  1.4920  0.8243  2.0025
12359TIP3    H258569   1.383   0.796  13.099  0.2605  0.5034  0.0689
12360TIP3   OH258570   1.404   4.268  12.235  0.2721 -0.5624 -0.1243
12360TIP3    H158571   1.496   4.259  12.261  0.7304  1.0402 -1.0519
12360TIP3    H258572   1.381   4.183  12.198  2.1753 -0.3017 -2.1368
12361TIP3   OH258573   3.875   5.751  14.985  0.0163 -0.2192  0.3107
12361TIP3    H158574   3.787   5.755  15.024 -0.9982 -1.2710 -1.6751
12361TIP3    H258575   3.914   5.672  15.024 -0.5880 -0.6999 -0.0340
12362TIP3   OH258576   3.378   1.100   1.869 -0.3276  0.7937 -0.0053
12362TIP3    H158577   3.436   1.130   1.939 -0.1804  2.2846 -0.7308
12362TIP3    H258578   3.432   1.042   1.816 -0.1431  0.4657  0.5329
12363TIP3   OH258579   6.852   5.302   0.683 -0.3112 -0.4435  0.6399
12363TIP3    H158580   6.757   5.289   0.679 -0.5283  0.5910  1.7522
12363TIP3    H258581   6.888   5.214   0.689 -1.2866 -0.8138  1.3273
12364TIP3   OH258582   4.714   4.651   4.847 -0.2157  0.4476 -0.4179
12364TIP3    H158583   4.805   4.672   4.827  0.3798 -1.5152 -0.0195
12364TIP3    H258584   4.704   4.559   4.821 -1.5091  0.0272  1.3497
12365TIP3   OH258585   2.384   0.209  15.555 -0.2245 -0.4208 -0.2068
12365TIP3    H158586   2.386   0.264  15.477  0.8452  0.8341  0.6567
12365TIP3    H258587   2.323   0.139  15.534  0.9509 -0.8105 -2.6214
12366TIP3   OH258588   0.300   0.971   4.712 -0.2984 -0.6937  0.1774
12366TIP3    H158589   0.205   0.962   4.704 -0.4138 -0.5600  1.2260
12366TIP3    H258590   0.328   0.889   4.752 -0.2892  0.1506  2.0070
12367TIP3   OH258591   1.904   2.568   1.952 -0.5599  0.0893 -0.1359
12367TIP3    H158592   1.988   2.547   1.993 -0.7439  0.8060  0.6492
12367TIP3    H258593   1.858   2.484   1.947 -0.3962 -0.0775  0.8610
12368TIP3   OH258594   2.104   2.881  13.495 -0.6612  0.6302  0.7475
12368TIP3    H158595   2.138   2.935  13.567  1.1453 -0.1296  0.5064
12368TIP3    H258596   2.122   2.791  13.522  1.3568  0.3611 -1.2198
12369TIP3   OH258597   5.101   6.079  15.892  0.2185  0.5326 -0.3031
12369TIP3    H158598   5.064   6.134  15.823  2.0962  1.1154 -0.9118
12369TIP3    H258599   5.153   6.140  15.945  0.1311 -0.2015  0.6377
12370TIP3   OH258600   5.744   3.587   4.242 -0.1505  0.4933 -0.8567
12370TIP3    H158601   5.794   3.627   4.171  0.1554  0.1290 -0.8485
12370TIP3    H258602   5.653   3.589   4.212 -0.1591  1.3300 -0.7939
12371TIP3   OH258603   5.780   5.966   5.633 -0.6673  0.2285 -0.2447
12371TIP3    H158604   5.709   5.910   5.664 -0.3406 -0.0896 -0.0645
12371TIP3    H258605   5.809   6.014   5.711  0.0070 -0.4090 -0.0899
12372TIP3   OH258606   4.790   3.920  16.975  0.0766  0.5408  0.4237
12372TIP3    H158607   4.834   3.881  17.051  1.9793  2.9646  0.6996
12372TIP3    H258608   4.743   3.847  16.934  1.4610 -1.4671  2.1959
12373TIP3   OH258609   2.386   3.048   5.645 -0.0481 -0.5248 -0.2478
12373TIP3    H158610   2.352   3.084   5.727 -0.9851  0.3701 -1.0109
12373TIP3    H258611   2.458   2.990   5.672  1.2526  1.5836  1.0454
12374TIP3   OH258612   6.711   1.349  11.341  0.2471 -0.0974 -1.2025
12374TIP3    H158613   6.651   1.390  11.403  3.3850 -0.8887  2.8288
12374TIP3    H258614   6.661   1.277  11.303 -1.2153 -1.3434  2.6379
12375TIP3   OH258615   1.134   5.068   3.972 -0.2233  0.3026  0.4439
12375TIP3    H158616   1.048   5.031   3.949  0.7303 -1.2922 -0.7310
12375TIP3    H258617   1.139   5.059   4.067 -0.5960 -1.3407  0.3281
12376TIP3   OH258618   3.519   6.080   3.926 -0.5640 -0.2577  0.2979
12376TIP3    H158619   3.449   6.070   3.990  1.1533  1.8048  2.6744
12376TIP3    H258620   3.568   5.998   3.932 -1.0465 -0.5208  0.8158
12377TIP3   OH258621   6.097   1.830   1.546 -0.1951 -0.2428  0.4164
12377TIP3    H158622   6.112   1.736   1.554  0.2668 -0.1853  0.2185
12377TIP3    H258623   6.130   1.853   1.459 -1.4780 -0.1263 -0.0700
12378TIP3   OH258624   3.202   1.617  13.420 -0.5738  0.0058 -0.2032
12378TIP3    H158625   3.269   1.667  13.373 -0.2293 -0.6733 -0.4380
12378TIP3    H258626   3.142   1.587  13.351 -1.7820  1.5599  0.1062
12379TIP3   OH258627   3.738   6.156   6.127  0.0708  0.1040 -0.6427
12379TIP3    H158628   3.816   6.191   6.170 -0.8690  2.3416 -0.6247
12379TIP3    H258629   3.666   6.178   6.186 -0.7341 -0.7262 -1.2946
12380TIP3   OH258630   2.241   5.236   3.813 -0.7915  0.4074 -0.1166
12380TIP3    H158631   2.309   5.170   3.830 -0.6245  0.4547 -0.5888
12380TIP3    H258632   2.217   5.268   3.900  0.1999  0.8035  0.0223
12381TIP3   OH258633   1.300   6.485   0.560 -0.3924  0.3454 -0.1381
12381TIP3    H158634   1.339   6.439   0.635  0.5435  0.5773 -0.4734
12381TIP3    H258635   1.205   6.474   0.572 -0.4055  2.0588  2.1930
12382TIP3   OH258636   3.686   5.531  13.429  0.2244 -0.1835  0.3963
12382TIP3    H158637   3.702   5.540  13.523  2.3135 -0.5831  0.1320
12382TIP3    H258638   3.602   5.486  13.423  0.5277 -1.0527  2.1036
12383TIP3   OH258639   5.406   1.248  10.593  0.0096  0.1916  0.3321
12383TIP3    H158640   5.314   1.228  10.579  0.2479 -0.6739 -0.1071
12383TIP3    H258641   5.444   1.249  10.505  0.0574  2.5170  0.3205
12384TIP3   OH258642   2.549   6.451  12.534  0.6019 -0.2696  0.6818
12384TIP3    H158643   2.597   6.414  12.460  0.7868 -1.6439  1.4512
12384TIP3    H258644   2.479   6.388  12.551 -1.2073  1.4517 -0.0957
12385TIP3   OH258645   0.454   4.213  15.329  0.2969 -0.0405 -0.3039
12385TIP3    H158646   0.506   4.291  15.312  2.6562 -1.5222 -0.2854
12385TIP3    H258647   0.517   4.141  15.326 -1.6956 -1.8977  0.2078
12386TIP3   OH258648   5.541   3.610  14.131  0.5733 -0.4221  0.2269
12386TIP3    H158649   5.485   3.679  14.094 -1.4433 -2.8629 -1.7061
12386TIP3    H258650   5.573   3.646  14.213 -1.7869  2.1366  0.1739
12387TIP3   OH258651   5.774   1.310   3.739  0.6610 -0.9079 -0.0426
12387TIP3    H158652   5.758   1.241   3.674  1.5698 -1.3507  0.1846
12387TIP3    H258653   5.726   1.282   3.817 -2.3852  0.7705 -1.1666
12388TIP3   OH258654   0.731   0.284  13.911 -0.2325  0.0446  0.7054
12388TIP3    H158655   0.750   0.240  13.994  0.5893 -2.5858 -0.7661
12388TIP3    H258656   0.644   0.252  13.887 -1.0575  1.8461  1.1289
12389TIP3   OH258657   0.426   6.086  11.614  0.2131  0.1577 -0.5413
12389TIP3    H158658   0.482   6.150  11.569 -1.0101  1.1662 -0.6718
12389TIP3    H258659   0.349   6.136  11.641 -0.1429 -0.9626  0.6078
12390TIP3   OH258660   2.751   2.302  14.773 -0.3121 -0.8483 -0.0508
12390TIP3    H158661   2.755   2.397  14.782 -0.2621 -0.8602  0.0513
12390TIP3    H258662   2.843   2.274  14.773 -0.3403 -0.9672  0.6781
12391TIP3   OH258663   2.615   3.682  14.911 -0.4839  0.1856  0.1844
12391TIP3    H158664   2.575   3.768  14.896 -0.9798 -0.0219  0.3069
12391TIP3    H258665   2.676   3.696  14.983 -0.3920  0.4855  0.0523
12392TIP3   OH258666   4.052   1.284   1.304 -0.2230 -0.4322  0.6067
12392TIP3    H158667   4.099   1.350   1.354  2.0107 -2.2800  1.1287
12392TIP3    H258668   4.013   1.227   1.371 -1.1365 -0.3146  0.1845
12393TIP3   OH258669   1.115   2.423  14.108  0.3928 -0.2082  0.2701
12393TIP3    H158670   1.027   2.438  14.140  0.6841  2.8699 -0.0257
12393TIP3    H258671   1.107   2.425  14.013  0.6004 -1.3314  0.2216
12394TIP3   OH258672   2.308   6.322  12.263 -0.1416 -0.3867 -0.1532
12394TIP3    H158673   2.309   6.418  12.263 -1.9672 -0.3275  0.6494
12394TIP3    H258674   2.307   6.298  12.355  0.4510 -1.1969 -0.3503
12395TIP3   OH258675   2.052   3.335  13.051  0.1580 -0.3477 -0.6431
12395TIP3    H158676   2.087   3.249  13.027  0.9618  0.3279 -2.0576
12395TIP3    H258677   2.119   3.373  13.108  0.7830  0.1135 -1.6536
12396TIP3   OH258678   1.104   2.429   1.058  0.1060  0.2889 -0.1952
12396TIP3    H158679   1.028   2.377   1.031 -0.7900  1.1911  0.5331
12396TIP3    H258680   1.154   2.442   0.978  0.0521 -1.1865 -0.5069
12397TIP3   OH258681   4.577   5.547  13.652  0.2745  0.7606 -0.1464
12397TIP3    H158682   4.493   5.516  13.619 -0.5790  3.7516 -1.0420
12397TIP3    H258683   4.634   5.546  13.575  0.6485  0.1766  0.1288
12398TIP3   OH258684   5.682   2.977   4.512 -0.1909  0.3331  0.2060
12398TIP3    H158685   5.730   2.920   4.452  1.2509  0.9640  0.7120
12398TIP3    H258686   5.740   2.987   4.587 -0.9811  1.4078  0.7015
12399TIP3   OH258687   1.378   1.067  14.819  0.0637 -0.4713  0.2796
12399TIP3    H158688   1.450   1.065  14.882  0.0791 -0.4790  0.2623
12399TIP3    H258689   1.367   0.975  14.793  0.2779 -0.4267  0.0236
12400TIP3   OH258690   5.370   6.802   5.297 -0.1193 -0.0823 -0.1382
12400TIP3    H158691   5.407   6.861   5.232 -1.7164 -1.2620 -2.2603
12400TIP3    H258692   5.303   6.854   5.342  1.4908  0.9602  1.1792
12401TIP3   OH258693   1.465   2.341  16.889 -0.9297 -0.6533  0.3823
12401TIP3    H158694   1.375   2.366  16.870 -0.2324  0.6723 -1.5745
12401TIP3    H258695   1.496   2.300  16.808  0.4006 -0.5069  0.7894
12402TIP3   OH258696   4.897   3.184  12.870 -0.7173 -0.0368  0.4172
12402TIP3    H158697   4.927   3.141  12.790  0.9215  0.6427  0.6298
12402TIP3    H258698   4.856   3.265  12.841 -1.2496 -0.3849  0.1933
12403TIP3   OH258699   3.029   5.500   3.396  0.0683  0.1629  0.4532
12403TIP3    H158700   2.978   5.525   3.473  0.0076 -0.7221  0.7177
12403TIP3    H258701   3.112   5.469   3.432 -0.2821 -1.0790  0.2539
12404TIP3   OH258702   2.858   4.712   2.839 -0.2910  0.2465 -0.8059
12404TIP3    H158703   2.861   4.763   2.920 -0.8357 -1.6308  0.4846
12404TIP3    H258704   2.861   4.621   2.869  0.9030 -0.5029 -2.9988
12405TIP3   OH258705   3.917   5.254   5.327  0.6264  0.8549 -0.5793
12405TIP3    H158706   3.962   5.336   5.348  2.0588  0.3527 -1.5143
12405TIP3    H258707   3.841   5.253   5.385 -0.0392  3.3270 -1.2660
12406TIP3   OH258708   1.346   0.392   3.952  0.2972 -0.2719  0.0264
12406TIP3    H158709   1.324   0.413   4.042  2.7555 -0.8637  0.8318
12406TIP3    H258710   1.436   0.420   3.941  0.8343 -2.3147 -1.5131
12407TIP3   OH258711   1.359   4.779   5.989  0.1841  0.3933 -0.3558
12407TIP3    H158712   1.320   4.822   6.065  1.5848  0.2074  0.4995
12407TIP3    H258713   1.285   4.739   5.943 -0.7424  0.9578  0.6196
12408TIP3   OH258714   0.990   2.901   4.794  0.2216  0.0291  0.3964
12408TIP3    H158715   0.907   2.931   4.830  0.2579  1.3899 -0.5752
12408TIP3    H258716   0.976   2.808   4.777 -0.9642  0.1487  0.6199
12409TIP3   OH258717   5.088   2.881  12.204  0.4981  0.4160 -0.4201
12409TIP3    H158718   5.142   2.802  12.203  2.2668  1.5538 -0.1404
12409TIP3    H258719   5.143   2.949  12.164 -0.4055  1.8385  0.6187
12410TIP3   OH258720   4.747   4.073   0.594  0.2047  0.2100 -0.1204
12410TIP3    H158721   4.655   4.092   0.616 -0.0786 -1.0796 -0.0556
12410TIP3    H258722   4.789   4.058   0.679  0.4543  0.6858 -0.1576
12411TIP3   OH258723   1.302   0.096   5.348 -0.0813 -0.0310  0.0383
12411TIP3    H158724   1.215   0.063   5.369  1.0784 -2.4831  1.4628
12411TIP3    H258725   1.362   0.026   5.375  2.2088  0.0474 -3.9783
12412TIP3   OH258726   0.678   6.698  15.852 -0.3218  0.2035  0.5810
12412TIP3    H158727   0.595   6.740  15.831 -0.3419 -0.5638 -1.0568
12412TIP3    H258728   0.654   6.622  15.905 -0.9760 -1.3956 -1.8747
12413TIP3   OH258729   6.464   2.839  14.163 -0.1480 -0.1972  0.2879
12413TIP3    H158730   6.501   2.761  14.122 -1.4609 -0.7181  0.0270
12413TIP3    H258731   6.449   2.814  14.254 -3.0806 -1.2702 -0.3691
12414TIP3   OH258732   4.571   0.587   1.830  0.1712  0.4921 -0.5794
12414TIP3    H158733   4.565   0.628   1.744  0.1663 -0.0539 -0.8421
12414TIP3    H258734   4.598   0.658   1.888 -0.0533  0.9193 -0.9867
12415TIP3   OH258735   2.629   3.222   6.296 -0.4705 -0.4545 -0.7116
12415TIP3    H158736   2.604   3.292   6.356 -0.0425 -0.7544 -0.1771
12415TIP3    H258737   2.607   3.256   6.210 -1.2217 -0.0728 -0.3779
12416TIP3   OH258738   2.526   4.095   2.050 -0.1030 -0.4553  0.4374
12416TIP3    H158739   2.562   4.131   2.131 -1.6686 -0.0334  0.9886
12416TIP3    H258740   2.594   4.109   1.984  1.1573 -0.7246  1.6539
12417TIP3   OH258741   3.058   4.807  13.613 -0.2623  0.0025  0.3173
12417TIP3    H158742   3.084   4.899  13.607  0.9704 -0.4351 -1.7381
12417TIP3    H258743   3.091   4.779  13.699  0.2602  1.1856  0.5246
12418TIP3   OH258744   2.674   5.708  15.171 -0.2129 -0.2000 -0.2382
12418TIP3    H158745   2.739   5.638  15.178 -1.9851 -1.9053  0.3037
12418TIP3    H258746   2.626   5.705  15.254 -0.6487  1.3649 -0.4029
12419TIP3   OH258747   6.050   2.097   0.651 -0.3468 -0.1550 -0.5855
12419TIP3    H158748   6.119   2.047   0.609  0.6162  0.4723  0.2256
12419TIP3    H258749   5.993   2.124   0.578  0.0319 -0.9948 -1.2072
12420TIP3   OH258750   5.291   0.713   2.426  0.2366 -0.6157 -0.1581
12420TIP3    H158751   5.272   0.627   2.387  1.3499 -0.5096 -0.9821
12420TIP3    H258752   5.281   0.774   2.353  0.8170 -0.2152  0.0948
12421TIP3   OH258753   1.878   0.175   4.528  0.5922 -0.2330  0.4417
12421TIP3    H158754   1.909   0.087   4.506  0.7709  0.0926 -0.6292
12421TIP3    H258755   1.863   0.171   4.623  3.0562 -0.6810  0.8943
12422TIP3   OH258756   6.771   2.304   2.749  0.1949 -0.1895  0.0095
12422TIP3    H158757   6.769   2.228   2.691  0.8740 -1.5200  1.6375
12422TIP3    H258758   6.685   2.304   2.791 -0.2311  0.6628 -0.8397
12423TIP3   OH258759   0.192   5.002  15.844  0.8715 -0.3498 -0.1249
12423TIP3    H158760   0.287   5.000  15.828  1.3202  2.4576  1.4965
12423TIP3    H258761   0.154   5.025  15.760  1.8969  0.9986 -0.2565
12424TIP3   OH258762   5.291   6.812   2.057  0.4036  0.2782  0.1835
12424TIP3    H158763   5.259   6.759   1.984 -2.7477  0.4904  1.2272
12424TIP3    H258764   5.335   6.749   2.114 -0.9143 -0.7690  0.1070
12425TIP3   OH258765   6.490   2.239   4.565  0.2332 -0.2540 -0.5236
12425TIP3    H158766   6.566   2.297   4.555 -0.2470  0.3960 -0.4483
12425TIP3    H258767   6.435   2.258   4.489  0.1404 -0.7300 -0.5799
12426TIP3   OH258768   4.599   2.812  14.102  0.0563  0.5562 -0.1502
12426TIP3    H158769   4.516   2.776  14.072  0.4314 -0.2378 -0.2586
12426TIP3    H258770   4.583   2.836  14.193  0.6228 -2.7750  0.9533
12427TIP3   OH258771   6.768   3.478  17.005  0.2962  0.0255 -0.4507
12427TIP3    H158772   6.699   3.500  17.068 -0.5232 -0.1315 -1.2612
12427TIP3    H258773   6.724   3.419  16.942  1.4873 -1.0616 -0.3073
12428TIP3   OH258774   6.086   6.318  10.979 -0.0756 -0.2125 -0.1590
12428TIP3    H158775   6.041   6.259  10.918 -0.4362  1.0181 -1.1240
12428TIP3    H258776   6.084   6.272  11.063 -3.4858 -0.0760 -0.0485
12429TIP3   OH258777   2.724   3.757  16.878 -0.5715 -0.6784  0.0467
12429TIP3    H158778   2.720   3.730  16.786 -0.1731 -1.8577  0.3578
12429TIP3    H258779   2.816   3.747  16.902 -0.6658 -0.3400  0.5728
12430TIP3   OH258780   4.801   5.701  15.611 -0.1887 -0.0353  0.7807
12430TIP3    H158781   4.825   5.773  15.669  1.9433 -1.2668  1.5420
12430TIP3    H258782   4.877   5.643  15.613 -0.4197 -0.6027 -2.5564
12431TIP3   OH258783   1.526   3.495  15.921  0.1573  0.6416  0.8028
12431TIP3    H158784   1.606   3.520  15.874 -0.3462  2.0761  0.6537
12431TIP3    H258785   1.455   3.523  15.863 -0.4649 -0.4899  0.9983
12432TIP3   OH258786   4.628   1.034  14.639  0.1667 -0.1525  0.6828
12432TIP3    H158787   4.653   1.124  14.617  1.8939 -0.7690 -0.1022
12432TIP3    H258788   4.626   0.988  14.555 -0.3961 -0.9161  1.1002
12433TIP3   OH258789   1.531   2.960  14.642 -0.0347 -0.1242 -0.1080
12433TIP3    H158790   1.554   3.051  14.620 -0.8763 -0.1015 -0.9514
12433TIP3    H258791   1.442   2.949  14.608  0.4662 -1.5935 -1.0270
12434TIP3   OH258792   2.094   3.410   0.377  0.1939 -0.0080 -0.3023
12434TIP3    H158793   2.138   3.494   0.366 -1.0662  0.7178  0.0275
12434TIP3    H258794   2.005   3.424   0.343 -0.3074 -0.9554  0.5480
12435TIP3   OH258795   5.088   6.650   5.194 -0.0921 -0.1373  0.8318
12435TIP3    H158796   5.139   6.669   5.273  0.8977  0.6056  0.0317
12435TIP3    H258797   5.053   6.562   5.209  1.3334 -0.6326  1.4594
12436TIP3   OH258798   1.519   5.226   0.125 -0.0272 -0.2047  0.4375
12436TIP3    H158799   1.522   5.172   0.204 -0.3214 -2.1997 -0.8463
12436TIP3    H258800   1.606   5.265   0.119 -0.2318  0.5670  2.1104
12437TIP3   OH258801   1.719   4.491   0.562 -0.4860 -0.2428  0.0033
12437TIP3    H158802   1.796   4.487   0.619  0.4793  0.8013 -1.1744
12437TIP3    H258803   1.736   4.425   0.494 -1.6078 -1.4457  0.8292
12438TIP3   OH258804   4.680   5.588  16.593  0.1787  0.4032 -0.1036
12438TIP3    H158805   4.757   5.533  16.581  0.5052  0.4007  1.7205
12438TIP3    H258806   4.704   5.672  16.552  0.7854  0.1034 -0.3710
12439TIP3   OH258807   6.817   1.743  11.172 -0.2791 -0.8058 -0.1632
12439TIP3    H158808   6.882   1.745  11.102  1.9031  1.3069  1.7213
12439TIP3    H258809   6.759   1.817  11.154  1.1541  0.6516  0.8949
12440TIP3   OH258810   1.438   0.226  16.873  0.0327 -0.2135  0.0056
12440TIP3    H158811   1.391   0.309  16.878  1.4666  0.7139 -1.0792
12440TIP3    H258812   1.427   0.186  16.959 -0.9603  0.9461  0.4299
12441TIP3   OH258813   2.207   2.099   1.970  0.5504  0.1584  0.8787
12441TIP3    H158814   2.197   2.010   1.935 -3.2468  1.2200 -1.3380
12441TIP3    H258815   2.139   2.106   2.037  0.4629  1.5497  0.6681
12442TIP3   OH258816   6.821   6.711   3.975  0.0684  0.1130  0.5045
12442TIP3    H158817   6.871   6.776   3.926  1.2315  1.8169  3.6427
12442TIP3    H258818   6.738   6.703   3.928  1.7211  0.2221 -2.6231
12443TIP3   OH258819   6.718   3.052  15.430 -0.0657  0.6242 -0.4524
12443TIP3    H158820   6.693   3.078  15.342  1.5388  1.0097 -0.8209
12443TIP3    H258821   6.803   3.093  15.445 -0.8033  1.5284  1.7156
12444TIP3   OH258822   1.942   6.729  11.041 -0.6144  0.4021 -0.2563
12444TIP3    H158823   1.923   6.738  10.948 -0.7652  0.0149 -0.2661
12444TIP3    H258824   2.038   6.734  11.047 -0.5597 -0.2428 -0.5156
12445TIP3   OH258825   3.015   0.983   5.723  0.1222  0.2649  0.3811
12445TIP3    H158826   3.100   0.957   5.689  1.3900  1.7951  2.1708
12445TIP3    H258827   2.966   1.014   5.647  0.7025 -1.6845 -0.8433
12446TIP3   OH258828   2.359   5.377  15.443  0.5994 -0.5735 -0.7660
12446TIP3    H158829   2.323   5.344  15.361  1.0246 -0.3854 -1.0286
12446TIP3    H258830   2.306   5.335  15.511 -0.7728  0.4376 -1.1552
12447TIP3   OH258831   5.760   3.873   4.660  0.3140  0.1090  0.2522
12447TIP3    H158832   5.847   3.833   4.655 -0.0752 -1.2625  2.9531
12447TIP3    H258833   5.758   3.916   4.745 -0.7843  2.4557 -0.8697
12448TIP3   OH258834   6.265   1.748   4.176  0.1498 -0.4501  0.2513
12448TIP3    H158835   6.194   1.704   4.130  0.5709 -1.4970  0.5688
12448TIP3    H258836   6.342   1.692   4.161  0.4258 -0.5152  1.7118
12449TIP3   OH258837   1.512   2.769   4.031  0.0382 -0.1112  0.1307
12449TIP3    H158838   1.546   2.742   3.946 -1.1757  1.6328 -0.9827
12449TIP3    H258839   1.504   2.864   4.024 -2.5096 -0.1679  1.2421
12450TIP3   OH258840   4.288   0.757  12.614 -0.1988  0.2962 -0.5387
12450TIP3    H158841   4.303   0.697  12.541 -2.1547 -0.4951 -0.3355
12450TIP3    H258842   4.203   0.732  12.649  0.2077  1.3618  1.3517
12451TIP3   OH258843   0.671   6.422   2.338  0.4008  0.5056 -0.2844
12451TIP3    H158844   0.624   6.459   2.412 -1.2280 -1.4564 -0.2512
12451TIP3    H258845   0.670   6.328   2.353 -1.3671 -0.1398 -3.4882
12452TIP3   OH258846   3.990   0.473   5.716 -0.0224 -0.4585 -0.2726
12452TIP3    H158847   3.908   0.425   5.725 -0.5418  0.5169  0.4641
12452TIP3    H258848   3.985   0.541   5.783  1.7151 -0.8225  0.2771
12453TIP3   OH258849   1.040   6.323  15.794 -0.4542  0.1291 -0.1503
12453TIP3    H158850   1.093   6.304  15.717  1.2730  1.6516  0.5870
12453TIP3    H258851   0.974   6.386  15.763  0.3181  0.8379 -0.3907
12454TIP3   OH258852   4.876   0.961  15.108  1.1403 -0.1848 -0.0084
12454TIP3    H158853   4.922   1.013  15.043  0.8886  0.2694  0.1774
12454TIP3    H258854   4.909   0.993  15.192  1.9895 -1.2433  0.0883
12455TIP3   OH258855   3.621   5.359   1.271  0.2320 -0.1889 -0.0515
12455TIP3    H158856   3.697   5.320   1.314  1.1943 -0.4637 -1.8840
12455TIP3    H258857   3.596   5.294   1.204 -0.6194  0.6013 -0.5190
12456TIP3   OH258858   2.649   3.707  16.596 -0.3732 -0.0433  0.2020
12456TIP3    H158859   2.655   3.635  16.534 -1.8661 -0.3739  0.4116
12456TIP3    H258860   2.556   3.731  16.597 -0.0467  1.2867  0.8055
12457TIP3   OH258861   6.001   4.958  16.179  0.0782 -0.1790 -0.8179
12457TIP3    H158862   5.966   5.047  16.172  0.6959  0.0492 -1.0782
12457TIP3    H258863   6.086   4.963  16.137  0.6785 -0.5815  0.3130
12458TIP3   OH258864   6.516   3.493   1.258  0.5204  0.7460 -0.3698
12458TIP3    H158865   6.434   3.450   1.282  0.2352  1.5798  0.1805
12458TIP3    H258866   6.526   3.564   1.322  0.7335  1.7947 -1.5330
12459TIP3   OH258867   2.385   6.099   2.759  0.1521 -0.2951 -0.6410
12459TIP3    H158868   2.417   6.049   2.834  1.1466  1.2459  0.0086
12459TIP3    H258869   2.340   6.035   2.704  1.1453 -1.8243  0.2850
12460TIP3   OH258870   6.609   2.277  15.384  0.0789 -0.0441 -0.0116
12460TIP3    H158871   6.669   2.349  15.367  0.1048 -0.0516  0.0500
12460TIP3    H258872   6.522   2.316  15.379 -0.1838 -0.7161 -3.9835
12461TIP3   OH258873   0.301   1.950   2.131 -0.0697 -0.2058  0.1056
12461TIP3    H158874   0.254   2.021   2.089  0.9358  1.0771  1.0654
12461TIP3    H258875   0.236   1.881   2.142 -1.8934  1.6850  1.8641
12462TIP3   OH258876   4.828   3.568   5.403  0.3503  0.5881 -0.0015
12462TIP3    H158877   4.733   3.558   5.414  0.3622  1.5556  1.2453
12462TIP3    H258878   4.853   3.496   5.345 -1.0291 -0.1736  0.2909
12463TIP3   OH258879   4.299   2.274  12.245  0.2080 -0.0433 -0.2538
12463TIP3    H158880   4.221   2.323  12.219  1.2609  1.9830  0.1724
12463TIP3    H258881   4.266   2.187  12.268 -1.6136  0.1174 -1.9922
12464TIP3   OH258882   2.791   0.384   2.961 -0.9438  0.3649  0.3914
12464TIP3    H158883   2.854   0.417   3.026 -0.5376  0.3517  0.0138
12464TIP3    H258884   2.843   0.327   2.905 -1.2570  0.4943 -0.0361
12465TIP3   OH258885   3.799   4.144  15.296  0.4392  0.5891 -0.5840
12465TIP3    H158886   3.759   4.157  15.210 -0.9842  2.0882  0.2530
12465TIP3    H258887   3.801   4.232  15.335 -1.0970 -0.3588  1.8171
12466TIP3   OH258888   1.838   0.404   6.541  0.4957  0.4286 -0.1603
12466TIP3    H158889   1.919   0.455   6.536  0.7420  0.0603 -0.0336
12466TIP3    H258890   1.768   0.468   6.530  0.7016  1.1392  2.2474
12467TIP3   OH258891   0.751   6.632  12.775  1.0125 -0.2017 -0.4839
12467TIP3    H158892   0.771   6.703  12.836  1.4943 -0.3975 -0.4077
12467TIP3    H258893   0.755   6.553  12.829 -0.6426 -0.2120 -0.3135
12468TIP3   OH258894   6.794   1.003   1.007  0.3710 -0.9651 -0.1049
12468TIP3    H158895   6.740   1.033   1.080  1.7927 -1.0203  1.0055
12468TIP3    H258896   6.778   1.066   0.937 -0.0379 -0.1712  0.6944
12469TIP3   OH258897   1.697   5.966  16.572  0.4148 -0.3548  0.3757
12469TIP3    H158898   1.696   5.948  16.478  0.9344  0.5089  0.1941
12469TIP3    H258899   1.630   6.033  16.585  1.5637  0.8389  0.3235
12470TIP3   OH258900   5.528   0.468   6.545  0.9202  0.0440  0.2254
12470TIP3    H158901   5.458   0.485   6.482  1.8659 -1.6895 -1.3845
12470TIP3    H258902   5.574   0.552   6.553  0.8515  0.2776 -1.4899
12471TIP3   OH258903   0.543   2.529   1.371 -0.1315 -0.8431  0.0346
12471TIP3    H158904   0.479   2.521   1.300  1.3199  2.2626 -1.8526
12471TIP3    H258905   0.627   2.508   1.331  0.4920 -1.4577  1.5559
12472TIP3   OH258906   1.244   1.774   6.078  0.1479 -0.5527  0.6296
12472TIP3    H158907   1.201   1.751   5.996  1.2386 -0.6415  0.0750
12472TIP3    H258908   1.236   1.695   6.132 -0.4737 -0.5286  0.5860
12473TIP3   OH258909   5.671   2.572   5.922 -0.1160  0.2470  0.4633
12473TIP3    H158910   5.610   2.642   5.897 -0.0687  0.5988  1.3055
12473TIP3    H258911   5.721   2.609   5.994  1.3867  0.0989 -0.4736
12474TIP3   OH258912   3.696   3.362   0.728 -0.1808 -0.0972  0.1715
12474TIP3    H158913   3.653   3.320   0.803 -0.8147 -0.5664 -0.4304
12474TIP3    H258914   3.672   3.306   0.654  0.8965  0.0476 -0.2935
12475TIP3   OH258915   2.139   1.201  13.835  0.0771 -0.1952 -0.6351
12475TIP3    H158916   2.228   1.222  13.806  0.0912  0.1138 -0.3718
12475TIP3    H258917   2.113   1.276  13.888  0.9618 -1.7122  2.1709
12476TIP3   OH258918   5.657   1.505   6.128  0.0189  0.2084  0.1021
12476TIP3    H158919   5.567   1.483   6.153 -0.2361  1.2423  0.1288
12476TIP3    H258920   5.711   1.456   6.190 -0.5579  0.5096  0.8627
12477TIP3   OH258921   3.927   1.718  10.657  0.5230 -0.4828 -0.0664
12477TIP3    H158922   3.987   1.666  10.604  1.4176  1.1216 -0.6970
12477TIP3    H258923   3.845   1.719  10.608  0.3804 -1.5604  0.1312
12478TIP3   OH258924   0.144   0.348  13.995 -0.4029 -0.6829 -0.5178
12478TIP3    H158925   0.166   0.281  14.059  3.2003  0.7792  0.0644
12478TIP3    H258926   0.156   0.306  13.910  1.6251 -0.9340 -0.1630
12479TIP3   OH258927   6.456   2.976   0.756 -0.5107 -0.0057  0.1603
12479TIP3    H158928   6.549   2.995   0.749 -0.1090 -1.2336  1.6726
12479TIP3    H258929   6.426   3.030   0.829 -1.3596  1.5570 -1.2863
12480TIP3   OH258930   5.943   3.347   5.432 -0.6831  0.0409 -0.4453
12480TIP3    H158931   5.912   3.275   5.377 -0.3209 -0.1732 -0.3723
12480TIP3    H258932   6.037   3.352   5.414 -0.4369 -0.4267  0.5912
12481TIP3   OH258933   0.760   4.103  15.337  0.8409 -0.2554 -0.0249
12481TIP3    H158934   0.717   4.080  15.419  1.3191 -1.3759 -0.0707
12481TIP3    H258935   0.804   4.023  15.310  2.1789  0.5897 -0.4594
12482TIP3   OH258936   0.171   2.404   2.060  0.0190  0.1879  0.6880
12482TIP3    H158937   0.135   2.420   2.147  0.1924  1.0537  0.6064
12482TIP3    H258938   0.256   2.364   2.076 -1.0223 -2.1573  0.8830
12483TIP3   OH258939   1.911   5.381   2.005  0.2987  0.6149 -0.5437
12483TIP3    H158940   1.961   5.449   1.960  0.7603  0.5283 -0.1769
12483TIP3    H258941   1.820   5.411   2.003  0.3914  0.8581 -1.0701
12484TIP3   OH258942   2.923   0.046  14.081  0.0515 -0.2595  0.7042
12484TIP3    H158943   2.914  -0.028  14.022  0.2171 -0.2967  0.7235
12484TIP3    H258944   3.009   0.082  14.061 -0.3631  0.4247  0.1344
12485TIP3   OH258945   3.272   5.651   2.318  0.0906 -0.5902 -0.1642
12485TIP3    H158946   3.235   5.574   2.361  1.2061 -0.7005  0.6338
12485TIP3    H258947   3.220   5.660   2.238 -0.9377 -1.3625  0.3878
12486TIP3   OH258948   3.315   1.034   3.442  0.1071 -0.5352 -0.2291
12486TIP3    H158949   3.220   1.039   3.452  0.1413  0.0948 -0.1651
12486TIP3    H258950   3.333   1.074   3.357  0.4866  1.3606  0.6979
12487TIP3   OH258951   4.237   3.932   0.164  0.2321  0.4751  0.1477
12487TIP3    H158952   4.314   3.887   0.198  1.1819  0.5895 -1.7023
12487TIP3    H258953   4.164   3.874   0.185  1.2229 -1.1469 -0.6926
12488TIP3   OH258954   2.918   3.211   0.215 -0.0720  0.0028  0.3776
12488TIP3    H158955   3.000   3.221   0.263  0.3609  0.8386 -0.5110
12488TIP3    H258956   2.944   3.194   0.125 -0.8812  0.5389  0.0344
12489TIP3   OH258957   6.521   1.431  16.232  0.0567  0.4161 -0.0308
12489TIP3    H158958   6.571   1.508  16.208  1.0976 -0.4406 -0.7130
12489TIP3    H258959   6.562   1.359  16.183 -1.4464 -0.4216 -0.1302
12490TIP3   OH258960   2.665   3.781   0.049  0.4770 -0.3529 -0.5963
12490TIP3    H158961   2.644   3.874   0.040  3.7129  0.4457 -1.2803
12490TIP3    H258962   2.707   3.757  -0.034  0.9447 -2.0528  0.0831
12491TIP3   OH258963   6.128   1.423  13.490 -0.6931 -0.3579  0.0492
12491TIP3    H158964   6.195   1.443  13.555 -0.9049  0.7408 -0.0499
12491TIP3    H258965   6.117   1.328  13.495  1.1295 -0.6116 -0.1907
12492TIP3   OH258966   0.183   4.785  12.932  0.0283 -0.1938 -0.6551
12492TIP3    H158967   0.277   4.800  12.922 -0.0369 -0.4173 -1.7593
12492TIP3    H258968   0.156   4.846  13.001  0.8080  0.6028 -1.0360
12493TIP3   OH258969   4.139   3.927  14.553  0.0063  0.0847 -0.3307
12493TIP3    H158970   4.108   3.971  14.473 -1.3185 -1.9439 -0.9964
12493TIP3    H258971   4.221   3.886  14.526  0.1575  0.3586 -0.2991
12494TIP3   OH258972   1.145   1.354   2.375  0.2952 -0.0329  0.2358
12494TIP3    H158973   1.119   1.368   2.284 -2.0141  1.2092  0.9943
12494TIP3    H258974   1.201   1.276   2.373 -0.5018 -0.6160 -2.1148
12495TIP3   OH258975   4.878   0.840   2.756 -0.2041 -0.1205 -0.1113
12495TIP3    H158976   4.890   0.866   2.665  0.4093 -1.7032 -0.5185
12495TIP3    H258977   4.843   0.751   2.751 -2.9923  0.7675  1.1797
12496TIP3   OH258978   2.900   2.474  11.995 -0.1012 -0.0162  0.0028
12496TIP3    H158979   2.889   2.528  12.073  1.2829  0.5097 -0.1420
12496TIP3    H258980   2.995   2.462  11.986 -0.2301 -0.1782 -1.5139
12497TIP3   OH258981   3.414   5.765  14.235 -0.6509 -0.3427  0.4038
12497TIP3    H158982   3.471   5.691  14.256 -1.3982 -0.7457  1.0960
12497TIP3    H258983   3.388   5.751  14.144  0.3949 -0.1094  0.0517
12498TIP3   OH258984   3.416   3.387   6.178  0.0254 -0.0700  0.1220
12498TIP3    H158985   3.426   3.445   6.253  0.4423  0.5343 -0.3879
12498TIP3    H258986   3.398   3.302   6.216 -1.2340  0.5070  0.8806
12499TIP3   OH258987   0.458   0.968   1.881  0.1537  0.5977 -0.0636
12499TIP3    H158988   0.433   0.947   1.791  0.2749  1.8610 -0.4045
12499TIP3    H258989   0.476   1.062   1.880  0.8703  0.4930  1.1178
12500TIP3   OH258990   6.253   5.556  12.277 -0.1700 -0.0249  0.2384
12500TIP3    H158991   6.217   5.473  12.246 -1.9521 -0.1092  2.2818
12500TIP3    H258992   6.348   5.547  12.266 -0.4938 -1.0514 -2.4740
12501TIP3   OH258993   2.797   5.334   1.179  0.0249  0.2472  0.6871
12501TIP3    H158994   2.707   5.303   1.171  0.5677 -2.3090  3.0873
12501TIP3    H258995   2.790   5.416   1.227 -0.9993 -0.4707  1.8187
12502TIP3   OH258996   5.602   4.567   5.684  0.4882 -0.2560  0.3061
12502TIP3    H158997   5.631   4.642   5.738 -0.6459 -1.2318  2.4112
12502TIP3    H258998   5.632   4.490   5.733 -1.6763 -1.2064  0.2496
12503TIP3   OH258999   2.634   1.762  13.031 -0.1975  0.0820 -0.2248
12503TIP3    H159000   2.627   1.716  12.948 -1.5513 -0.6373  0.2607
12503TIP3    H259001   2.552   1.743  13.076  0.1910  1.0856  0.9596
12504TIP3   OH259002   4.412   3.641   0.929  0.2428  0.2127 -0.4898
12504TIP3    H159003   4.463   3.653   0.849  0.6430 -0.0838 -0.2803
12504TIP3    H259004   4.364   3.560   0.915 -0.3497  0.6128 -0.7813
12505TIP3   OH259005   2.879   3.322  11.580 -0.7502 -0.3842  0.2614
12505TIP3    H159006   2.837   3.244  11.616  1.0345 -0.9676  1.2139
12505TIP3    H259007   2.956   3.335  11.636 -0.7952  1.8429 -0.1115
12506TIP3   OH259008   6.409   1.455   4.485 -0.1517  0.1288 -0.1480
12506TIP3    H159009   6.320   1.480   4.512 -0.1755  1.6116 -1.4180
12506TIP3    H259010   6.398   1.420   4.396  0.4560 -0.3112 -0.0543
12507TIP3   OH259011   4.736   5.852   5.832  0.5401 -0.1985 -0.6263
12507TIP3    H159012   4.826   5.821   5.843  0.1592 -0.8374  1.0370
12507TIP3    H259013   4.682   5.773   5.838 -0.1907  0.2954 -0.5685
12508TIP3   OH259014   1.856   2.754   4.461  0.4514  0.0657 -0.1600
12508TIP3    H159015   1.940   2.791   4.487 -0.2231  1.3675  0.2843
12508TIP3    H259016   1.829   2.806   4.385 -0.4111  0.3640  0.3339
12509TIP3   OH259017   1.093   5.095   0.344  0.4215  0.1746  0.4270
12509TIP3    H159018   1.044   5.057   0.271 -0.3846 -1.3758  1.7092
12509TIP3    H259019   1.071   5.188   0.342 -0.6145 -0.0701 -0.5234
12510TIP3   OH259020   3.416   3.089  16.672 -0.0773 -0.1372  0.1036
12510TIP3    H159021   3.452   3.018  16.726  0.9391 -1.3781 -2.0484
12510TIP3    H259022   3.471   3.165  16.692  0.0613 -0.4722  1.0351
12511TIP3   OH259023   1.485   1.428   5.192 -0.0717  0.1292  0.1471
12511TIP3    H159024   1.484   1.522   5.212 -0.8451 -0.0178  0.8861
12511TIP3    H259025   1.562   1.395   5.238  0.6094  0.5071 -0.6955
12512TIP3   OH259026   2.120   2.335   4.688 -0.2264 -0.0759 -0.0826
12512TIP3    H159027   2.061   2.407   4.664 -0.8889 -0.7824 -0.6097
12512TIP3    H259028   2.199   2.379   4.720  0.0953  0.9071 -2.0867
12513TIP3   OH259029   5.572   4.596  12.153  0.6689 -0.5231 -0.3575
12513TIP3    H159030   5.644   4.548  12.193  1.9022 -1.0476 -3.0026
12513TIP3    H259031   5.497   4.581  12.212  1.8316 -2.9191  0.6177
12514TIP3   OH259032   5.732   2.805  16.534  0.3107  0.2150 -0.1331
12514TIP3    H159033   5.748   2.833  16.624  0.0497 -0.8437  0.2509
12514TIP3    H259034   5.798   2.739  16.516 -0.6275 -0.7356 -0.1611
12515TIP3   OH259035   6.502   6.515  15.814  0.0978  0.3878 -0.7767
12515TIP3    H159036   6.571   6.500  15.750  2.3783  1.6147  1.2126
12515TIP3    H259037   6.484   6.609  15.808 -0.6850  0.2495 -0.6114
12516TIP3   OH259038   4.198   4.826   5.163  0.1152 -0.0804  0.1938
12516TIP3    H159039   4.203   4.733   5.187 -1.8022 -0.4914 -0.7901
12516TIP3    H259040   4.240   4.830   5.076 -2.4169 -0.6701 -1.1559
12517TIP3   OH259041   0.992   5.225  14.074 -0.2311  0.4945  0.3765
12517TIP3    H159042   0.914   5.275  14.050 -0.9531 -0.7127  0.1217
12517TIP3    H259043   0.981   5.206  14.167 -0.4729 -0.0504  0.2424
12518TIP3   OH259044   4.720   1.793  11.088  0.5293 -0.1888  0.1128
12518TIP3    H159045   4.688   1.726  11.028  0.9983 -0.6123  0.3291
12518TIP3    H259046   4.698   1.759  11.175  0.1325  0.2744  0.1994
12519TIP3   OH259047   1.433   1.105  12.322 -0.0413 -0.4738  0.2340
12519TIP3    H159048   1.374   1.054  12.377 -0.2496 -0.4594  0.0219
12519TIP3    H259049   1.375   1.158  12.267  0.1712  0.1224  0.5776
12520TIP3   OH259050   6.120   4.765   0.901  0.6389  0.0217  1.0037
12520TIP3    H159051   6.123   4.731   0.991  1.1446  0.0047  0.9825
12520TIP3    H259052   6.211   4.789   0.881  1.1282 -2.6290 -0.5222
12521TIP3   OH259053   0.056   2.309   3.381 -0.1787 -0.2398 -0.1003
12521TIP3    H159054   0.040   2.343   3.468 -0.0547 -0.0432 -0.1556
12521TIP3    H259055   0.150   2.317   3.368 -0.4169  1.4742 -0.9736
12522TIP3   OH259056   2.109   2.968  12.323  0.2540  0.1173  0.0728
12522TIP3    H159057   2.144   3.013  12.246  2.4295 -0.1016  0.8657
12522TIP3    H259058   2.164   2.890  12.333 -1.7027 -1.2943  0.3220
12523TIP3   OH259059   4.174   4.823   4.278 -0.1732 -0.0840  0.1274
12523TIP3    H159060   4.176   4.914   4.306  0.3050  0.0367 -0.2757
12523TIP3    H259061   4.095   4.817   4.223 -0.0573  0.1613 -0.0721
12524TIP3   OH259062   3.449   0.904  15.819  0.0405 -0.0338  0.0644
12524TIP3    H159063   3.359   0.874  15.836 -0.6342  1.5092 -0.5612
12524TIP3    H259064   3.494   0.827  15.786 -1.7727 -0.2787 -2.0982
12525TIP3   OH259065   1.702   5.976  16.981  0.3941  0.0496  0.2578
12525TIP3    H159066   1.616   5.945  16.954 -0.7513  2.0401  1.3652
12525TIP3    H259067   1.718   5.931  17.064 -0.1670  0.5971  0.6712
12526TIP3   OH259068   1.048   4.241   0.022  0.6818  0.3188  0.0564
12526TIP3    H159069   1.044   4.292  -0.058  2.2581  1.2866  0.5426
12526TIP3    H259070   1.011   4.298   0.089  0.8567  0.1594  0.2927
12527TIP3   OH259071   5.520   6.352  12.959  0.1525  0.2485  0.1516
12527TIP3    H159072   5.539   6.336  13.052 -0.9435  1.5330  0.6332
12527TIP3    H259073   5.520   6.447  12.951 -2.4479  0.2564 -0.5485
12528TIP3   OH259074   3.291   3.375  12.602 -0.3118  0.6765  0.2946
12528TIP3    H159075   3.237   3.306  12.641 -0.5439 -0.7449 -2.2796
12528TIP3    H259076   3.240   3.404  12.526  1.6115  0.7456 -1.0348
12529TIP3   OH259077   5.800   2.285  14.840  0.1819  0.4345 -0.0905
12529TIP3    H159078   5.740   2.240  14.780  0.4109 -0.8203  0.5832
12529TIP3    H259079   5.849   2.214  14.882  1.0263  1.3651  0.5305
12530TIP3   OH259080   5.160   4.389   1.114 -0.1241 -0.3050  0.0963
12530TIP3    H159081   5.135   4.441   1.190 -1.8436 -1.2425  0.2235
12530TIP3    H259082   5.149   4.298   1.142  2.1755 -0.7646 -0.3333
12531TIP3   OH259083   5.324   2.031  14.789  0.0180  0.1249  0.2325
12531TIP3    H159084   5.267   2.079  14.729 -0.1584  0.7342  0.8818
12531TIP3    H259085   5.318   1.940  14.758 -1.1312  0.2073  0.1434
12532TIP3   OH259086   1.333   6.702  12.171 -0.1222 -1.0510  0.2448
12532TIP3    H159087   1.326   6.752  12.089 -0.5367  0.2335  1.0284
12532TIP3    H259088   1.245   6.666  12.185  0.0172 -1.4930 -0.0051
12533TIP3   OH259089   2.382   4.480   1.281 -0.0819 -0.3806  0.0713
12533TIP3    H159090   2.471   4.458   1.253  1.1166 -0.1601  3.2501
12533TIP3    H259091   2.341   4.396   1.298  0.2497 -0.4654  0.4942
12534TIP3   OH259092   0.238   4.306  12.284 -0.5366 -0.3270  0.2956
12534TIP3    H159093   0.167   4.342  12.230  0.1782 -0.5977 -0.8690
12534TIP3    H259094   0.315   4.311  12.228  0.6375  1.0293  1.9350
12535TIP3   OH259095   1.978   6.056   0.599  0.1602 -0.2305 -0.3126
12535TIP3    H159096   2.009   6.087   0.513  0.0919  1.8982  0.3796
12535TIP3    H259097   1.883   6.055   0.592  0.1585 -0.1846 -0.2942
12536TIP3   OH259098   2.503   6.107  11.194  0.3165  0.5893 -0.2231
12536TIP3    H159099   2.420   6.079  11.154 -0.2369 -0.8206  1.7720
12536TIP3    H259100   2.476   6.165  11.266  1.0664  0.3057  0.2946
12537TIP3   OH259101   4.215   5.753  16.969 -0.6901  0.2962  0.2532
12537TIP3    H159102   4.165   5.677  16.942 -1.8138  1.6382 -1.7559
12537TIP3    H259103   4.296   5.718  17.006 -1.3198 -1.8457 -0.3074
12538TIP3   OH259104   0.600   0.311  10.924 -0.5066 -0.5685  0.3577
12538TIP3    H159105   0.525   0.356  10.963 -0.5233 -0.0213 -0.2912
12538TIP3    H259106   0.669   0.378  10.921 -0.0650 -0.9977  0.7222
12539TIP3   OH259107   3.154   3.410  12.368 -0.3272  0.5040  0.2834
12539TIP3    H159108   3.122   3.493  12.332 -0.1034  0.9217  1.0374
12539TIP3    H259109   3.174   3.357  12.290 -1.8468  0.6131 -0.2061
12540TIP3   OH259110   4.187   2.277  17.100  0.0127  0.3469  0.3067
12540TIP3    H159111   4.119   2.212  17.119  0.5329 -0.4178 -0.3779
12540TIP3    H259112   4.236   2.240  17.026  0.6747  1.2573  0.2708
12541TIP3   OH259113   0.235   3.469  14.894  0.0361  0.1960 -0.0083
12541TIP3    H159114   0.203   3.379  14.885  1.0264 -0.0878 -1.0087
12541TIP3    H259115   0.197   3.500  14.976 -4.1301  0.5173 -1.8326
12542TIP3   OH259116   4.948   6.034  11.631  0.1104  0.4085 -0.5452
12542TIP3    H159117   5.019   5.992  11.582 -1.7181 -0.2845 -2.7947
12542TIP3    H259118   4.909   5.962  11.681  2.2407  1.1921  2.4892
12543TIP3   OH259119   2.881   0.065   3.670  0.7735 -0.1507  0.7809
12543TIP3    H159120   2.850   0.008   3.600 -0.9316 -0.0991  1.4478
12543TIP3    H259121   2.908   0.006   3.740  0.2186 -0.1784  0.9782
12544TIP3   OH259122   5.885   2.843  13.914  0.2105  0.3219 -0.1447
12544TIP3    H159123   5.933   2.855  13.832  1.0407  0.9198  0.4075
12544TIP3    H259124   5.849   2.930  13.934  2.1742  0.8543  1.4070
12545TIP3   OH259125   2.893   4.361   0.350  0.3462 -0.2043 -0.2708
12545TIP3    H159126   2.964   4.419   0.377  1.4938 -1.4475 -0.5737
12545TIP3    H259127   2.900   4.357   0.255  2.0212 -2.9389 -0.1165
12546TIP3   OH259128   2.847   5.703  15.845  0.8469 -0.0067 -0.0012
12546TIP3    H159129   2.812   5.694  15.756 -1.4887 -0.7745  0.9269
12546TIP3    H259130   2.799   5.777  15.882  0.9928 -0.3767  0.9618
12547TIP3   OH259131   5.199   0.426   3.253  0.2857 -0.0541 -0.4145
12547TIP3    H159132   5.213   0.332   3.261  3.2554  0.2892 -0.4805
12547TIP3    H259133   5.191   0.441   3.159  0.4824 -0.1919 -0.4551
12548TIP3   OH259134   5.209   0.051  13.659 -0.1719  0.2849 -0.1348
12548TIP3    H159135   5.207   0.017  13.569  0.2238 -0.1636  0.0212
12548TIP3    H259136   5.134   0.110  13.664  1.1794  2.2775 -1.5150
12549TIP3   OH259137   0.887   3.335  12.838  0.1757 -0.0976 -0.1254
12549TIP3    H159138   0.895   3.335  12.934  0.5008 -0.8186 -0.1496
12549TIP3    H259139   0.813   3.278  12.820 -0.2159  0.4574 -0.2837
12550TIP3   OH259140   3.368   1.615   2.280 -0.0447 -0.0372 -0.1171
12550TIP3    H159141   3.390   1.523   2.263  0.0855  0.1407 -0.9516
12550TIP3    H259142   3.272   1.616   2.286 -0.0107 -0.3368  0.6108
12551TIP3   OH259143   4.270   3.123   5.418  1.0311 -0.0631  0.0509
12551TIP3    H159144   4.279   3.161   5.506 -2.1213 -0.5683  0.7211
12551TIP3    H259145   4.328   3.176   5.363  1.8978  1.2903  2.1468
12552TIP3   OH259146   6.646   3.612  11.257 -0.0297  0.5232 -0.0059
12552TIP3    H159147   6.672   3.699  11.226  0.9985 -0.2212 -1.3534
12552TIP3    H259148   6.620   3.626  11.348  2.3273  1.8727  0.5494
12553TIP3   OH259149   1.550   0.507   5.029 -0.4533  0.1052  0.7825
12553TIP3    H159150   1.492   0.531   5.101 -0.4401  0.3944  0.6980
12553TIP3    H259151   1.492   0.507   4.952 -1.1692 -3.0474  1.1602
12554TIP3   OH259152   6.000   1.384   3.920  0.2639 -0.1001 -0.3153
12554TIP3    H159153   5.978   1.393   3.827  1.7376 -0.4606 -0.7278
12554TIP3    H259154   6.058   1.309   3.924 -0.1868 -0.4102  0.9960
12555TIP3   OH259155   4.019   2.897   1.399  0.1830 -0.1861  0.5082
12555TIP3    H159156   4.012   2.911   1.493 -0.1175  0.5284  0.3845
12555TIP3    H259157   3.928   2.893   1.369  0.2756 -0.6201  0.2736
12556TIP3   OH259158   1.185   3.236  16.941 -0.3948 -0.0145  0.2152
12556TIP3    H159159   1.188   3.331  16.928 -0.4879 -0.3278 -2.8643
12556TIP3    H259160   1.256   3.202  16.887 -3.2525 -1.8722 -2.8055
12557TIP3   OH259161   4.087   6.358  13.754  0.0781  0.0213  0.4546
12557TIP3    H159162   4.037   6.313  13.823 -1.4309  0.5866 -0.2133
12557TIP3    H259163   4.178   6.341  13.775 -0.3499 -0.1498  2.3808
12558TIP3   OH259164   5.458   5.668  13.364 -0.0018  0.5546  0.0740
12558TIP3    H159165   5.505   5.610  13.423 -0.5989  0.8759  0.8742
12558TIP3    H259166   5.495   5.650  13.278 -0.8954 -1.7786  0.1122
12559TIP3   OH259167   6.480   3.451   3.249  0.1687 -0.1067  0.0135
12559TIP3    H159168   6.537   3.479   3.177  1.0360  1.4166  1.2537
12559TIP3    H259169   6.391   3.476   3.220  0.4557  0.1401 -0.6856
12560TIP3   OH259170   4.423   2.810  12.667 -0.1198 -0.4121  0.3810
12560TIP3    H159171   4.470   2.851  12.594 -0.3278  1.6876  1.3514
12560TIP3    H259172   4.430   2.716  12.650  0.6087 -0.0141 -1.8390
12561TIP3   OH259173   2.798   3.488  13.782  0.5594  0.4536 -0.1278
12561TIP3    H159174   2.801   3.419  13.848 -1.3559  1.1949  0.7959
12561TIP3    H259175   2.876   3.541  13.799  0.4850  0.2082  1.0555
12562TIP3   OH259176   1.077   3.948   3.257 -0.0820 -0.7502  0.5302
12562TIP3    H159177   1.139   3.988   3.195 -0.5347 -0.5317  0.2160
12562TIP3    H259178   1.018   3.896   3.203 -0.1669 -0.9717  0.8323
12563TIP3   OH259179   5.940   5.326   5.078  0.5405  0.7249 -0.7689
12563TIP3    H159180   5.861   5.281   5.106  0.9974 -2.4899 -3.9215
12563TIP3    H259181   5.910   5.390   5.014  0.3005  1.9219  0.4814
12564TIP3   OH259182   0.015   4.805  12.128 -0.1402 -0.5175  0.5427
12564TIP3    H159183   0.006   4.830  12.036 -0.2301  0.0977  0.7155
12564TIP3    H259184   0.095   4.753  12.131 -1.1401 -2.1927 -0.2152
12565TIP3   OH259185   1.179   3.387   4.327 -0.1494  0.1304  0.1639
12565TIP3    H159186   1.171   3.432   4.412 -2.2939  1.0561 -0.4636
12565TIP3    H259187   1.173   3.457   4.262  0.9210 -0.6270 -0.7826
12566TIP3   OH259188   1.507   0.864   0.969 -0.3967 -0.2365 -0.8417
12566TIP3    H159189   1.449   0.863   1.046 -0.3184 -0.4876 -0.7872
12566TIP3    H259190   1.560   0.785   0.977 -0.2575 -0.1658 -1.0557
12567TIP3   OH259191   5.754   4.205   0.720 -0.1559 -0.0631  0.0629
12567TIP3    H159192   5.750   4.266   0.794  0.0436 -0.3589  0.3244
12567TIP3    H259193   5.682   4.144   0.735  0.4287 -0.6589  0.5037
12568TIP3   OH259194   6.688   6.506   3.555  0.1322  0.4522  0.2593
12568TIP3    H159195   6.594   6.503   3.572 -0.0515  0.5486 -0.6924
12568TIP3    H259196   6.711   6.598   3.569  0.3349  0.2107  1.6802
12569TIP3   OH259197   2.282   5.308   0.227  0.0984  0.5458  0.1983
12569TIP3    H159198   2.350   5.375   0.224  0.6258  0.0161  0.0253
12569TIP3    H259199   2.230   5.329   0.304 -0.0879  1.4786 -0.1642
12570TIP3   OH259200   3.005   4.121  15.147  0.3663 -0.2599 -0.3099
12570TIP3    H159201   3.000   4.066  15.069 -0.2599  0.0709 -0.5100
12570TIP3    H259202   2.969   4.205  15.119  0.4554 -0.0350  0.2465
12571TIP3   OH259203   6.436   0.572   1.091 -0.0168 -0.2614 -0.3666
12571TIP3    H159204   6.349   0.600   1.120  0.0065 -1.2309  0.7038
12571TIP3    H259205   6.492   0.583   1.168  0.9994  1.0165 -1.2285
12572TIP3   OH259206   6.468   2.475   2.092  0.0350  0.1227 -0.1561
12572TIP3    H159207   6.466   2.400   2.032  0.0498 -1.8046  2.0819
12572TIP3    H259208   6.560   2.501   2.093  1.0774 -2.9248  2.3842
12573TIP3   OH259209   4.332   5.672   2.505 -0.0365 -0.5006  0.3270
12573TIP3    H159210   4.280   5.694   2.582 -0.5296  3.9182 -1.0144
12573TIP3    H259211   4.268   5.639   2.442 -1.0076  2.6030 -0.4765
12574TIP3   OH259212   3.425   2.693  14.014 -0.0724  0.2370  0.4589
12574TIP3    H159213   3.507   2.647  13.997  0.2581  0.9504  0.0953
12574TIP3    H259214   3.358   2.624  14.008  0.5529 -0.4928  1.4961
12575TIP3   OH259215   6.293   5.009  11.042 -0.6166  0.0308 -0.0604
12575TIP3    H159216   6.256   5.097  11.032  0.7837  0.5018 -1.5372
12575TIP3    H259217   6.238   4.953  10.986  0.1300  0.5149 -1.3282
12576TIP3   OH259218   1.133   3.551  10.921  0.4777 -0.0010  0.3273
12576TIP3    H159219   1.220   3.512  10.912 -0.3794 -1.9931  0.1108
12576TIP3    H259220   1.080   3.505  10.856 -0.7278  1.2407  0.3963
12577TIP3   OH259221   3.089   2.612   3.572 -0.1052  0.3710 -0.1991
12577TIP3    H159222   2.999   2.589   3.550 -0.2568  2.1636 -1.6557
12577TIP3    H259223   3.099   2.585   3.663 -1.8401 -0.6075 -0.2525
12578TIP3   OH259224   2.788   6.713  16.590  0.3772  0.0077 -0.5691
12578TIP3    H159225   2.775   6.690  16.499 -0.1607  0.1745 -0.5373
12578TIP3    H259226   2.787   6.630  16.637  0.0646 -0.0314 -0.6458
12579TIP3   OH259227   3.260   1.938   3.630  0.1446  0.0620 -0.5686
12579TIP3    H159228   3.268   1.878   3.556  0.2366  0.4076 -0.8418
12579TIP3    H259229   3.166   1.940   3.649  0.2561 -0.9563  0.1018
12580TIP3   OH259230   2.439   2.368  15.690 -0.9293 -0.3961 -0.2958
12580TIP3    H159231   2.459   2.353  15.597  2.1097 -1.9223  0.4555
12580TIP3    H259232   2.488   2.299  15.736 -1.6210  0.8413  2.5069
12581TIP3   OH259233   2.142   0.153   0.673 -0.4038  0.6546 -0.6568
12581TIP3    H159234   2.190   0.168   0.591 -2.9788 -1.1434 -2.6401
12581TIP3    H259235   2.137   0.239   0.714  1.9801  1.3898 -1.7329
12582TIP3   OH259236   4.029   1.247   4.894  0.0576  0.5361  0.0865
12582TIP3    H159237   4.113   1.202   4.884 -1.1654 -1.5608 -1.5275
12582TIP3    H259238   4.002   1.229   4.984  1.1398  0.9395  0.5098
12583TIP3   OH259239   4.722   0.777  10.725  0.7291  0.2806  0.1008
12583TIP3    H159240   4.661   0.819  10.665  1.0453 -0.4632 -0.7664
12583TIP3    H259241   4.799   0.757  10.671  1.1830 -0.0306  0.8477
12584TIP3   OH259242   1.593   0.028   2.026  0.3226  0.0513 -0.5218
12584TIP3    H159243   1.677   0.018   1.981 -0.1697 -0.4207 -1.3623
12584TIP3    H259244   1.617   0.060   2.113  1.2789  1.3584 -1.2178
12585TIP3   OH259245   6.602   4.486   2.648 -0.3352 -0.3883  0.1612
12585TIP3    H159246   6.616   4.512   2.557 -0.0948  1.4667  0.6813
12585TIP3    H259247   6.511   4.457   2.652 -0.2617 -0.7640 -0.7207
12586TIP3   OH259248   4.348   1.996  12.100  0.0621  0.7502  0.0088
12586TIP3    H159249   4.258   2.009  12.133  0.1838 -0.8633  1.1228
12586TIP3    H259250   4.343   2.019  12.008 -1.2865  1.5402  0.2369
12587TIP3   OH259251   2.607   1.277  15.438 -0.2694 -0.0814 -0.1307
12587TIP3    H159252   2.700   1.254  15.446 -0.0184  0.9673  0.1926
12587TIP3    H259253   2.570   1.210  15.381  0.5996 -0.7496  0.0694
12588TIP3   OH259254   0.649   5.659   6.607 -0.3292  0.3238 -0.4076
12588TIP3    H159255   0.743   5.673   6.594 -0.2743  0.1742 -0.1601
12588TIP3    H259256   0.610   5.744   6.585 -0.0476  0.6929  0.4804
12589TIP3   OH259257   4.875   3.325  13.304  0.0453  0.5927 -0.4764
12589TIP3    H159258   4.870   3.366  13.391 -0.2000  1.2271 -0.7800
12589TIP3    H259259   4.789   3.341  13.266  0.6764  1.7940 -1.4718
12590TIP3   OH259260   4.648   5.347   3.474  0.1431 -0.3217 -0.2903
12590TIP3    H159261   4.716   5.303   3.525 -1.1213 -0.2466  1.5835
12590TIP3    H259262   4.690   5.428   3.443  1.2174 -0.7995 -0.1240
12591TIP3   OH259263   2.989   4.809  14.442 -0.4597  0.3626 -0.9083
12591TIP3    H159264   3.030   4.723  14.436  0.9326  1.0290 -1.3588
12591TIP3    H259265   3.046   4.858  14.502 -1.9793  0.5850  0.4280
12592TIP3   OH259266   0.028   5.534   2.349  0.0075 -0.4559  0.6043
12592TIP3    H159267   0.065   5.617   2.319 -0.5826 -0.5929 -0.5825
12592TIP3    H259268   0.068   5.468   2.292  0.5693 -1.0207  1.6233
12593TIP3   OH259269   6.364   5.213   1.294 -0.0321 -0.1688 -0.5751
12593TIP3    H159270   6.370   5.270   1.370 -3.5168  0.8117 -0.8438
12593TIP3    H259271   6.388   5.268   1.220  1.2226 -0.4939 -0.4329
12594TIP3   OH259272   0.821   0.234  12.455  0.3883 -0.3201 -0.0769
12594TIP3    H159273   0.763   0.220  12.380 -0.7970 -0.4366  0.8226
12594TIP3    H259274   0.779   0.186  12.526  1.0544  0.4491  0.8595
12595TIP3   OH259275   4.179   3.086   0.579  0.1239  0.3532  0.2341
12595TIP3    H159276   4.246   3.154   0.575 -0.1338  0.6018  0.0942
12595TIP3    H259277   4.211   3.017   0.520 -0.6517  1.2964 -1.3431
12596TIP3   OH259278   3.250   1.985   1.532 -0.2192  0.9462  0.2750
12596TIP3    H159279   3.236   1.932   1.453  0.2636 -0.0635  0.8480
12596TIP3    H259280   3.176   1.963   1.589  0.7968 -0.3246  1.1440
12597TIP3   OH259281   4.560   0.688  12.438  0.4442 -0.5705 -0.6288
12597TIP3    H159282   4.574   0.782  12.448 -0.5768 -0.3622 -0.9997
12597TIP3    H259283   4.536   0.677  12.346 -0.9943 -0.9596 -0.2408
12598TIP3   OH259284   4.689   0.736   0.561 -0.1206 -0.5286 -0.2922
12598TIP3    H159285   4.699   0.824   0.527  0.2424 -0.5606 -0.2732
12598TIP3    H259286   4.621   0.696   0.506  0.4064 -0.5562 -0.9277
12599TIP3   OH259287   3.244   1.783  14.910 -0.1533  0.2616  0.4981
12599TIP3    H159288   3.269   1.713  14.970  0.4780 -0.4092 -0.5044
12599TIP3    H259289   3.150   1.794  14.923 -0.0173  0.1775  1.6349
12600TIP3   OH259290   1.368   0.538   4.399  0.5419  0.1231 -0.2368
12600TIP3    H159291   1.431   0.586   4.344 -0.0380  0.7860 -0.3399
12600TIP3    H259292   1.292   0.597   4.405  0.5099 -0.0323  1.0952
12601TIP3   OH259293   0.503   6.575   0.348 -0.9684  0.0304 -0.4046
12601TIP3    H159294   0.444   6.635   0.394 -0.2935 -0.0436  0.6114
12601TIP3    H259295   0.450   6.497   0.333 -0.8651 -0.4814  1.5296
12602TIP3   OH259296   1.416   3.963  13.144  0.0758  0.3303 -0.1908
12602TIP3    H159297   1.436   3.984  13.053  0.9507  3.1262  0.5642
12602TIP3    H259298   1.486   3.905  13.171  0.2320  0.0866 -1.0743
12603TIP3   OH259299   0.101   2.479   2.905 -0.0923 -0.1341  0.3814
12603TIP3    H159300   0.062   2.414   2.847 -1.0104  0.9545 -0.2831
12603TIP3    H259301   0.048   2.476   2.985 -1.2209  0.9013 -0.2801
12604TIP3   OH259302   2.274   0.999   3.014 -0.2801 -0.4471  0.2868
12604TIP3    H159303   2.242   0.911   3.033 -0.4576 -0.3264  0.5451
12604TIP3    H259304   2.318   1.027   3.094  2.0292 -1.2845 -0.5985
12605TIP3   OH259305   3.612   5.041  12.167 -0.3756  0.2190  0.6586
12605TIP3    H159306   3.634   5.096  12.092  1.7588 -0.6169  0.5917
12605TIP3    H259307   3.530   5.077  12.201 -1.3147  0.7335 -1.9351
12606TIP3   OH259308   2.309   3.825   0.060 -0.5098  0.4084 -0.0432
12606TIP3    H159309   2.366   3.826  -0.017  0.0900  1.9264  0.3878
12606TIP3    H259310   2.312   3.734   0.090  1.2884  0.3310 -0.3315
12607TIP3   OH259311   6.582   2.845  15.068  0.6501  0.3306  0.2528
12607TIP3    H159312   6.619   2.773  15.119  0.1059 -0.7721 -0.8798
12607TIP3    H259313   6.505   2.872  15.118  0.0586 -0.8144 -0.0117
12608TIP3   OH259314   3.971   0.949   4.297  0.1517 -0.4853 -0.1347
12608TIP3    H159315   3.971   0.979   4.388 -0.6596 -1.5779  0.2476
12608TIP3    H259316   4.055   0.978   4.261  0.5029 -0.1030  0.9808
12609TIP3   OH259317   3.000   1.364   5.595  0.0010  0.1852  0.3402
12609TIP3    H159318   2.959   1.296   5.541 -0.9955  1.8133 -1.0441
12609TIP3    H259319   3.030   1.317   5.673 -2.2677 -1.5424  0.2834
12610TIP3   OH259320   5.195   2.982   0.540 -0.3429  0.0993 -0.8459
12610TIP3    H159321   5.219   3.000   0.631 -0.5679 -0.4426 -0.6746
12610TIP3    H259322   5.276   2.995   0.491 -0.6131  2.0834 -0.8236
12611TIP3   OH259323   0.487   2.131  12.081  0.1212 -1.0335  0.0323
12611TIP3    H159324   0.468   2.118  11.988 -0.1777  1.0091 -0.2391
12611TIP3    H259325   0.403   2.118  12.125 -0.4964  1.1480 -0.3908
12612TIP3   OH259326   6.135   3.380  15.930  0.3923  0.2796  0.2098
12612TIP3    H159327   6.092   3.449  15.980 -0.5870  1.6247 -2.3010
12612TIP3    H259328   6.064   3.321  15.905  1.0829 -1.1651  1.4975
12613TIP3   OH259329   3.925   4.539   1.390  0.5457 -0.3930  0.5393
12613TIP3    H159330   3.929   4.535   1.295 -0.7711 -0.9034  0.4814
12613TIP3    H259331   3.832   4.555   1.409  0.7489 -0.5554  1.7390
12614TIP3   OH259332   0.725   0.950  16.250  0.1930  0.3181  0.3328
12614TIP3    H159333   0.754   0.946  16.158 -0.6573  0.0430  0.0682
12614TIP3    H259334   0.693   0.862  16.268  0.3520  0.3767  0.8961
12615TIP3   OH259335   1.379   4.142   1.710 -0.0695 -0.3299 -0.2761
12615TIP3    H159336   1.391   4.116   1.618 -0.1152 -1.9645  0.1498
12615TIP3    H259337   1.316   4.079   1.744  0.3771 -0.0843  1.0411
12616TIP3   OH259338   5.990   4.099   1.482 -0.0995  0.2385 -0.1071
12616TIP3    H159339   5.902   4.124   1.453  0.4116  0.4028 -1.5928
12616TIP3    H259340   6.049   4.152   1.429  0.9568 -2.0396 -1.3779
12617TIP3   OH259341   4.327   5.288   6.152 -0.2082 -0.7672 -0.0787
12617TIP3    H159342   4.356   5.379   6.159  1.0150 -1.2025  0.9805
12617TIP3    H259343   4.406   5.239   6.129 -0.9703 -1.5065 -1.2438
12618TIP3   OH259344   6.312   0.772   6.333  0.2492  0.1746 -0.0955
12618TIP3    H159345   6.315   0.799   6.424  0.9108  1.3256 -0.4440
12618TIP3    H259346   6.338   0.849   6.283 -0.4876 -0.3084 -1.2935
12619TIP3   OH259347   5.594   6.729   5.517 -0.5203  0.2084  0.4822
12619TIP3    H159348   5.579   6.671   5.592  1.3098  1.1886  1.6784
12619TIP3    H259349   5.538   6.805   5.533 -1.1285 -0.1578  0.1407
12620TIP3   OH259350   3.757   2.272  16.326  0.1219 -0.4484 -0.7152
12620TIP3    H159351   3.793   2.361  16.328  1.3650 -0.9504  0.1924
12620TIP3    H259352   3.794   2.229  16.402 -0.7487 -1.6618 -0.9440
12621TIP3   OH259353   5.265   3.467   1.183 -0.1033 -0.4020 -0.6587
12621TIP3    H159354   5.199   3.429   1.126 -1.4244  2.9097 -1.5614
12621TIP3    H259355   5.330   3.505   1.123 -0.1710  0.8980  0.0511
12622TIP3   OH259356   6.514   3.323  13.429  0.1729 -0.3296 -0.0536
12622TIP3    H159357   6.577   3.384  13.468 -2.0092  1.3680  1.0505
12622TIP3    H259358   6.513   3.344  13.336  0.5801  0.2432  0.0722
12623TIP3   OH259359   6.638   0.578  11.629  0.2794 -0.1885  0.5899
12623TIP3    H159360   6.652   0.601  11.537 -0.7989 -1.8451 -0.0353
12623TIP3    H259361   6.613   0.660  11.671  0.6788  0.5764 -0.6067
12624TIP3   OH259362   3.136   2.448   1.546 -0.4865 -0.1724 -0.1046
12624TIP3    H159363   3.081   2.382   1.503  0.8114 -1.9912  0.8908
12624TIP3    H259364   3.078   2.522   1.560 -1.4240 -0.1120 -3.3816
12625TIP3   OH259365   6.151   5.688   4.052  0.2571  0.0178 -0.3456
12625TIP3    H159366   6.113   5.635   3.982  0.0722 -0.6191  0.2249
12625TIP3    H259367   6.127   5.778   4.029  1.0329 -0.0690 -1.6177
12626TIP3   OH259368   0.035   0.828  13.598  0.4360 -0.4090  0.1244
12626TIP3    H159369  -0.049   0.832  13.553  0.7126  0.7314 -0.3424
12626TIP3    H259370   0.057   0.735  13.601 -0.0109 -0.5763 -1.3175
12627TIP3   OH259371   2.369   2.211  11.238 -0.0742  0.0207 -0.0486
12627TIP3    H159372   2.359   2.273  11.166  1.4737  0.3218 -0.0335
12627TIP3    H259373   2.388   2.128  11.195 -2.1107 -0.4966 -0.0670
12628TIP3   OH259374   1.411   3.369  11.430  0.5498 -0.3657 -0.3874
12628TIP3    H159375   1.473   3.387  11.501  0.1847 -2.7306  0.6119
12628TIP3    H259376   1.424   3.277  11.410 -0.3186 -0.0823 -2.5108
12629TIP3   OH259377   1.577   5.899   2.645  0.3556 -0.2491  0.1713
12629TIP3    H159378   1.591   5.849   2.565  1.7598 -1.2847  1.0206
12629TIP3    H259379   1.616   5.985   2.627  1.2467 -0.6905 -0.0495
12630TIP3   OH259380   1.930   2.632   5.914  0.1725 -0.1361 -0.8669
12630TIP3    H159381   1.854   2.666   5.867 -0.5620 -0.9092 -0.2840
12630TIP3    H259382   1.900   2.625   6.005  0.0775 -2.8031 -1.0212
12631TIP3   OH259383   3.291   1.195   0.330 -0.2844 -0.0066  0.1549
12631TIP3    H159384   3.207   1.227   0.297 -0.1114 -1.7698 -2.3062
12631TIP3    H259385   3.341   1.274   0.348 -1.5744  1.0976 -0.8588
12632TIP3   OH259386   1.219   0.077  13.842 -0.0592  0.5980 -0.2275
12632TIP3    H159387   1.207  -0.002  13.790 -0.5225  0.2575  0.3713
12632TIP3    H259388   1.149   0.136  13.814 -0.6371  0.2116  0.3550
12633TIP3   OH259389   1.118   3.356   5.475  0.3077  0.4052  0.1772
12633TIP3    H159390   1.190   3.312   5.520 -0.1778 -1.8606 -1.1218
12633TIP3    H259391   1.044   3.295   5.482 -0.7779  1.5770 -0.6305
12634TIP3   OH259392   0.385   0.370  10.291  0.2119 -0.3419 -0.5644
12634TIP3    H159393   0.477   0.396  10.286  0.1202 -0.0290 -0.7134
12634TIP3    H259394   0.338   0.446  10.256 -0.3327  0.9058  2.5252
12635TIP3   OH259395   5.003   4.692   0.767  0.3592  0.9652  0.3414
12635TIP3    H159396   4.998   4.642   0.686  0.5708  1.2844  0.1279
12635TIP3    H259397   5.083   4.661   0.809  0.0762  0.5656  0.5870
12636TIP3   OH259398   0.310   4.435  11.735  0.0166  0.6144  0.1903
12636TIP3    H159399   0.270   4.390  11.661  0.0044  0.3635  0.3473
12636TIP3    H259400   0.367   4.369  11.775  0.5804  0.9642 -0.0262
12637TIP3   OH259401   2.227   6.245  11.306  0.2615  0.2784 -0.2809
12637TIP3    H159402   2.179   6.317  11.265  0.2653  0.5806  0.2368
12637TIP3    H259403   2.256   6.280  11.390 -1.1709 -0.8194  0.7407
12638TIP3   OH259404   4.647   5.926  15.877 -0.0969  0.2589 -0.6139
12638TIP3    H159405   4.601   5.886  15.951 -0.4147 -1.2017 -1.5784
12638TIP3    H259406   4.685   6.006  15.914 -1.8994  0.6082  0.6511
12639TIP3   OH259407   3.977   0.942  12.601  0.1790 -0.2493  0.3366
12639TIP3    H159408   3.963   0.903  12.515 -0.4216  2.0204 -0.6878
12639TIP3    H259409   3.925   0.889  12.661  0.0063 -1.4251 -0.8230
12640TIP3   OH259410   1.500   6.118   2.425  0.3340 -0.7206  0.2777
12640TIP3    H159411   1.540   6.040   2.385  1.4885  0.2814 -0.5865
12640TIP3    H259412   1.563   6.145   2.492  0.5020  0.1346 -0.2214
12641TIP3   OH259413   3.721   0.188   4.191 -0.3369  0.1430  0.3955
12641TIP3    H159414   3.662   0.183   4.266  0.2038 -4.6565  0.8416
12641TIP3    H259415   3.683   0.255   4.135 -3.0512  1.1282  3.1249
12642TIP3   OH259416   1.044   1.514  16.279 -0.4435 -0.6477  0.6023
12642TIP3    H159417   0.978   1.577  16.309  0.3752  1.1179 -1.0790
12642TIP3    H259418   1.005   1.476  16.200 -0.0523 -0.6695  0.4209
12643TIP3   OH259419   3.457   6.077   0.321 -0.4179 -0.4561 -0.3193
12643TIP3    H159420   3.378   6.102   0.368  0.5956  1.4970  0.4328
12643TIP3    H259421   3.437   6.096   0.229 -0.6086  0.6778 -0.0596
12644TIP3   OH259422   5.194   1.626   0.362  0.1455  0.6650 -0.1491
12644TIP3    H159423   5.252   1.563   0.405  1.6829  1.5758 -0.7940
12644TIP3    H259424   5.251   1.673   0.301 -0.9502  2.6408  0.2585
12645TIP3   OH259425   0.187   2.178  12.309  0.4927  0.0450 -0.3691
12645TIP3    H159426   0.097   2.198  12.333  0.7331  3.3407 -1.7459
12645TIP3    H259427   0.181   2.138  12.222  0.3690  1.2585 -0.9375
12646TIP3   OH259428   2.682   2.878  13.678  0.0443  0.1589 -0.3256
12646TIP3    H159429   2.746   2.812  13.705  0.0249  0.3868  0.2926
12646TIP3    H259430   2.608   2.827  13.647  0.2861 -0.1101 -0.4691
12647TIP3   OH259431   0.729   6.254  14.912  0.1826  0.5548 -0.2680
12647TIP3    H159432   0.702   6.165  14.933  1.7216  0.6108  2.4086
12647TIP3    H259433   0.792   6.244  14.841 -0.0561 -0.4281 -0.3576
12648TIP3   OH259434   4.998   3.017  13.111 -0.1498 -0.6329 -0.2389
12648TIP3    H159435   5.023   2.925  13.118 -0.7629 -0.9265 -1.5308
12648TIP3    H259436   4.938   3.020  13.036 -1.4387  0.5470  0.7798
12649TIP3   OH259437   0.507   6.180  11.280 -0.1086 -0.2200 -0.0506
12649TIP3    H159438   0.576   6.215  11.222  1.0990 -0.2327  1.3146
12649TIP3    H259439   0.491   6.251  11.342 -2.9439  0.6337 -1.5898
12650TIP3   OH259440   2.503   1.519  16.151 -0.0330 -0.6190 -0.7136
12650TIP3    H159441   2.458   1.441  16.183  0.8805 -0.6281  0.6183
12650TIP3    H259442   2.495   1.514  16.056 -4.2591  0.2416 -0.6022
12651TIP3   OH259443   2.632   2.475  11.382  0.3612  0.4241 -0.3219
12651TIP3    H159444   2.537   2.481  11.394  0.4838 -0.6639  1.6179
12651TIP3    H259445   2.651   2.382  11.390  1.6924  0.7189  0.2836
12652TIP3   OH259446   3.831   4.858  14.272  0.3545 -0.7718 -0.2851
12652TIP3    H159447   3.838   4.894  14.183  2.3133 -0.2725  0.0442
12652TIP3    H259448   3.869   4.771  14.265 -1.3913 -1.5729 -0.3486
12653TIP3   OH259449   4.834   6.000  15.391  0.0613  0.0546 -0.5420
12653TIP3    H159450   4.773   6.024  15.461 -0.6584  0.4770 -1.2980
12653TIP3    H259451   4.790   5.928  15.346  0.6126 -0.3472 -0.4398
12654TIP3   OH259452   1.898   1.495   4.315  0.6998 -0.3495 -0.0524
12654TIP3    H159453   1.927   1.404   4.311 -1.1233 -1.0088  0.6561
12654TIP3    H259454   1.854   1.510   4.232 -0.6844 -0.7540  0.5858
12655TIP3   OH259455   0.557   0.837  13.320  0.1897  0.4723 -0.0877
12655TIP3    H159456   0.515   0.751  13.313  0.0100  0.4035  1.5252
12655TIP3    H259457   0.553   0.858  13.413  3.2200  0.7149  0.0778
12656TIP3   OH259458   1.966   5.388  14.451 -0.0294 -0.0819 -0.3062
12656TIP3    H159459   2.051   5.425  14.472  0.3421 -1.0017 -0.1697
12656TIP3    H259460   1.984   5.320  14.387 -0.8936  1.0887 -1.8777
12657TIP3   OH259461   5.008   5.429   1.746  0.0366 -0.1331 -0.3710
12657TIP3    H159462   5.032   5.471   1.828 -0.3745  2.1693 -1.3402
12657TIP3    H259463   5.090   5.421   1.698  0.1392 -0.5774 -0.1197
12658TIP3   OH259464   6.159   3.583   5.699 -0.3887  0.5873  0.6510
12658TIP3    H159465   6.220   3.510   5.689 -0.6906  0.3572  0.4765
12658TIP3    H259466   6.214   3.658   5.721 -0.2555 -0.1931  3.4271
12659TIP3   OH259467   0.972   1.607  10.733  0.1351  0.5983 -0.0181
12659TIP3    H159468   0.986   1.677  10.797 -0.6398  0.4614  0.3110
12659TIP3    H259469   0.993   1.647  10.649  1.1027  0.7988  0.3057
12660TIP3   OH259470   0.182   2.295  15.711  0.1203  0.5500  0.5221
12660TIP3    H159471   0.185   2.350  15.633 -1.0478  1.6848  1.2294
12660TIP3    H259472   0.193   2.356  15.784  0.5090 -0.3941  1.2815
12661TIP3   OH259473   1.195   0.485  13.853  0.1202  0.1316 -0.2254
12661TIP3    H159474   1.213   0.570  13.892  1.8359 -1.1433  1.9725
12661TIP3    H259475   1.100   0.475  13.860 -0.2444  2.2077 -1.4166
12662TIP3   OH259476   1.555   4.510   1.279  0.4401  0.2854  0.1127
12662TIP3    H159477   1.646   4.522   1.255  0.7457 -0.1162  1.0058
12662TIP3    H259478   1.542   4.569   1.354  0.3803 -0.6783  0.8924
12663TIP3   OH259479   4.770   1.083   4.617 -0.1180  0.1277 -0.8969
12663TIP3    H159480   4.745   1.105   4.527 -1.3916  1.3285 -0.2868
12663TIP3    H259481   4.789   1.167   4.658 -1.2040 -0.2166  0.4111
12664TIP3   OH259482   5.825   4.787   0.830  0.0772  0.6999 -0.1746
12664TIP3    H159483   5.917   4.800   0.853 -0.1190 -1.1571  2.0250
12664TIP3    H259484   5.826   4.716   0.766  0.1510  0.1719  0.4042
12665TIP3   OH259485   5.139   6.250   1.625  0.2712 -0.3457 -0.1444
12665TIP3    H159486   5.058   6.275   1.581  1.2901  2.9395 -0.4580
12665TIP3    H259487   5.199   6.226   1.554 -0.0927 -1.7964  0.0164
12666TIP3   OH259488   4.202   3.629  11.809 -0.3738  0.7047 -0.2418
12666TIP3    H159489   4.153   3.600  11.886  0.7117  0.6086  0.4237
12666TIP3    H259490   4.246   3.551  11.777 -1.0402  0.6817 -1.1525
12667TIP3   OH259491   3.773   4.982  15.693 -0.0173 -0.4649  0.0971
12667TIP3    H159492   3.851   4.981  15.637  0.4317  1.0015  0.6455
12667TIP3    H259493   3.786   5.057  15.751 -1.5831 -0.5281  0.5785
12668TIP3   OH259494   5.277   1.604  13.585  0.6502 -0.8070  0.7745
12668TIP3    H159495   5.340   1.658  13.634  1.3830 -2.2421  1.4865
12668TIP3    H259496   5.332   1.547  13.531 -0.1410  0.7056 -1.7879
12669TIP3   OH259497   5.887   3.335  13.334  0.2064 -0.7324  0.0657
12669TIP3    H159498   5.883   3.268  13.266  0.9561 -0.4900 -0.2237
12669TIP3    H259499   5.947   3.299  13.400  0.4072 -0.4602  0.0326
12670TIP3   OH259500   2.384   0.394  11.988 -0.0953  0.1583 -0.5856
12670TIP3    H159501   2.342   0.311  12.009 -4.0444  1.8615 -0.9205
12670TIP3    H259502   2.359   0.453  12.059  2.0781  1.3072 -0.6855
12671TIP3   OH259503   6.459   1.343   1.699  0.2630  0.3361 -0.1045
12671TIP3    H159504   6.395   1.324   1.768 -0.9104 -0.1272 -1.2960
12671TIP3    H259505   6.475   1.259   1.657  0.7451  0.6701 -0.6007
12672TIP3   OH259506   4.652   6.855   6.516 -0.4588 -0.0748  0.8002
12672TIP3    H159507   4.696   6.789   6.463 -0.3703  1.2563 -0.8804
12672TIP3    H259508   4.562   6.824   6.523 -1.0928  0.7623 -2.1565
12673TIP3   OH259509   3.913   3.903   1.460 -0.1843 -0.4852 -0.3736
12673TIP3    H159510   3.847   3.917   1.392  1.4328  0.3556 -1.8665
12673TIP3    H259511   3.871   3.933   1.541 -1.2970  1.0046 -1.4423
12674TIP3   OH259512   3.071   2.549   0.933  0.3770 -0.7502  0.3548
12674TIP3    H159513   3.159   2.585   0.932  0.1333 -0.0520  1.5309
12674TIP3    H259514   3.033   2.575   0.849  0.6453  0.6692  0.6527
12675TIP3   OH259515   5.074   1.236   1.403 -0.1699 -0.6653 -0.0484
12675TIP3    H159516   5.124   1.199   1.476 -1.0047 -0.4059  0.6612
12675TIP3    H259517   5.110   1.193   1.326  0.1071 -1.6109  0.5960
12676TIP3   OH259518   2.702   5.753  10.555 -0.1220 -0.0732 -0.2656
12676TIP3    H159519   2.673   5.786  10.470 -1.9739 -0.8731  0.0041
12676TIP3    H259520   2.642   5.793  10.618 -0.2695 -1.2843  0.3895
12677TIP3   OH259521   1.104   2.265   6.018 -0.6475 -0.1339 -0.5787
12677TIP3    H159522   1.012   2.284   6.001 -1.5033 -1.5755  1.9157
12677TIP3    H259523   1.126   2.319   6.094  0.7665  0.6155 -1.4784
12678TIP3   OH259524   2.191   5.389  13.775  0.3498  0.4159  0.0945
12678TIP3    H159525   2.115   5.385  13.717  0.5740 -0.1759 -0.1618
12678TIP3    H259526   2.266   5.375  13.717  0.6352  0.6561  0.4016
12679TIP3   OH259527   5.736   5.331  11.823  0.0235  0.0575  0.0473
12679TIP3    H159528   5.718   5.238  11.841  2.2463 -0.3527  0.5041
12679TIP3    H259529   5.705   5.344  11.734 -1.8921 -0.6401  0.5637
12680TIP3   OH259530   1.066   1.027   5.797 -0.0742  1.3220  0.5578
12680TIP3    H159531   0.989   1.022   5.853  0.0398 -0.8713  0.6273
12680TIP3    H259532   1.137   1.052   5.857 -0.5147  2.2640  0.7052
12681TIP3   OH259533   1.189   3.300   0.230  0.8067  0.0567 -0.4240
12681TIP3    H159534   1.279   3.306   0.261  0.1957 -0.1802  1.5327
12681TIP3    H259535   1.153   3.388   0.242  0.0024 -0.4724  1.5429
12682TIP3   OH259536   5.698   2.587  14.561  0.0112  0.2702  0.2321
12682TIP3    H159537   5.645   2.508  14.563  1.2758 -0.5915  0.8623
12682TIP3    H259538   5.776   2.565  14.612  1.9500  0.7840 -2.3113
12683TIP3   OH259539   3.430   4.573  16.441  0.3603  0.6864 -0.0586
12683TIP3    H159540   3.513   4.530  16.460  0.1730  0.5251  0.3979
12683TIP3    H259541   3.424   4.644  16.505 -0.4158 -0.0518  0.7141
12684TIP3   OH259542   2.727   5.618   0.182 -0.3510 -0.0515  0.3842
12684TIP3    H159543   2.796   5.630   0.247  0.5432 -0.7126 -0.4065
12684TIP3    H259544   2.769   5.566   0.113 -1.7110 -0.6796  0.0025
12685TIP3   OH259545   6.205   3.369  11.167  0.3561  0.3836 -0.0069
12685TIP3    H159546   6.229   3.286  11.209  0.4450  0.5500  0.2675
12685TIP3    H259547   6.289   3.405  11.137  0.5663  1.3685  1.6772
12686TIP3   OH259548   0.624   2.558   2.633 -0.0838  0.1282  0.0563
12686TIP3    H159549   0.576   2.605   2.565 -0.1519 -0.8467 -0.5721
12686TIP3    H259550   0.571   2.480   2.651  0.6976 -0.3839  0.1600
12687TIP3   OH259551   2.479   1.445   3.791 -0.0116  0.2439  0.1762
12687TIP3    H159552   2.572   1.425   3.799  0.4546  1.4258 -1.6845
12687TIP3    H259553   2.451   1.466   3.880  0.9821 -2.0330  1.1044
12688TIP3   OH259554   4.071   6.410   1.903  0.1079  0.6118 -0.5588
12688TIP3    H159555   4.050   6.330   1.951  0.0380  0.0342 -1.5128
12688TIP3    H259556   4.074   6.479   1.970 -1.2148  0.0602  0.1037
12689TIP3   OH259557   2.448   3.661   5.483 -0.2293  0.6860  0.0786
12689TIP3    H159558   2.444   3.696   5.572 -1.2520  1.3275 -0.2015
12689TIP3    H259559   2.519   3.597   5.485  1.7309  2.7554  0.6151
12690TIP3   OH259560   1.888   0.295   2.896  0.7557  0.1120  0.2331
12690TIP3    H159561   1.828   0.231   2.935 -0.5866  0.0185 -1.8453
12690TIP3    H259562   1.842   0.378   2.902 -0.6716 -0.2809 -3.2630
12691TIP3   OH259563   3.499   2.851  15.782 -0.0730  0.0886 -0.7738
12691TIP3    H159564   3.488   2.756  15.776 -0.9433 -0.0019  1.3855
12691TIP3    H259565   3.556   2.863  15.858 -2.0819  1.3377  0.6339
12692TIP3   OH259566   1.231   0.478   0.667 -0.4834 -0.3028  0.4966
12692TIP3    H159567   1.317   0.508   0.698 -1.3554 -0.1647  3.0405
12692TIP3    H259568   1.188   0.558   0.636 -0.3775 -0.0388  1.0143
12693TIP3   OH259569   0.754   0.946  11.604 -0.3314 -0.6102 -0.3089
12693TIP3    H159570   0.749   0.851  11.593  0.5709 -0.8227  0.8794
12693TIP3    H259571   0.780   0.958  11.696  0.2457  0.7669 -0.6276
12694TIP3   OH259572   1.603   5.171  15.790 -0.6038  0.8020 -0.0485
12694TIP3    H159573   1.610   5.267  15.787  0.7555  0.7043 -1.2362
12694TIP3    H259574   1.513   5.153  15.762 -1.1703  1.7388  1.0743
12695TIP3   OH259575   6.822   6.279   4.555 -0.0872  0.2520  0.2556
12695TIP3    H159576   6.759   6.239   4.495  1.1269 -1.1368 -0.1785
12695TIP3    H259577   6.818   6.372   4.535  0.0170 -0.1223 -1.7732
12696TIP3   OH259578   0.121   1.276   2.048 -0.1034  0.7244 -0.6234
12696TIP3    H159579   0.159   1.355   2.087 -2.5553  1.0640  1.3203
12696TIP3    H259580   0.178   1.205   2.078  1.7824  1.6213 -1.8883
12697TIP3   OH259581   6.278   1.269  15.190  0.3787 -0.4166 -0.4644
12697TIP3    H159582   6.244   1.323  15.119  0.9985  0.1919 -0.3103
12697TIP3    H259583   6.284   1.328  15.265 -1.0015 -1.2266  0.3333
12698TIP3   OH259584   3.289   4.188  10.440 -0.0396 -0.0723 -0.1937
12698TIP3    H159585   3.205   4.195  10.485 -0.0913  0.8097 -0.4042
12698TIP3    H259586   3.308   4.094  10.438 -1.5870 -0.4022 -1.1766
12699TIP3   OH259587   6.524   4.601   3.085 -0.0250 -0.5344  0.1384
12699TIP3    H159588   6.607   4.625   3.043 -0.0090 -0.4430  0.2194
12699TIP3    H259589   6.457   4.642   3.031 -0.0677 -1.2941 -0.3989
12700TIP3   OH259590   6.403   4.667   5.132  0.1988  0.3206  0.2989
12700TIP3    H159591   6.469   4.680   5.065  0.7614 -2.0344  0.2866
12700TIP3    H259592   6.322   4.650   5.083  0.5441 -1.0882  0.1760
12701TIP3   OH259593   1.419   1.946  17.064 -0.0761  0.4567  0.1725
12701TIP3    H159594   1.333   1.986  17.074 -1.7466 -2.3646 -1.5671
12701TIP3    H259595   1.422   1.920  16.972  1.7485 -1.4350  0.7078
12702TIP3   OH259596   2.056   2.091  15.868  0.5280 -0.3723  0.6986
12702TIP3    H159597   2.114   2.133  15.805  1.6783 -2.7265  0.0595
12702TIP3    H259598   2.009   2.025  15.818  1.1411 -2.0089  2.1441
12703TIP3   OH259599   3.375   0.367  14.105  0.2130  0.1439  0.5464
12703TIP3    H159600   3.284   0.391  14.088  0.4592  1.7670  1.3628
12703TIP3    H259601   3.372   0.313  14.184 -0.0576 -0.0719  0.3903
12704TIP3   OH259602   3.870   2.431   1.716 -0.1777  0.1550 -0.2087
12704TIP3    H159603   3.787   2.474   1.698  0.4183  1.7182  0.6589
12704TIP3    H259604   3.860   2.394   1.804  0.0387  0.3290 -0.1106
12705TIP3   OH259605   4.742   2.511  15.551 -0.4893  0.2955  0.8351
12705TIP3    H159606   4.757   2.435  15.608 -2.0088 -0.0827  0.7921
12705TIP3    H259607   4.710   2.473  15.469 -0.0577  0.9262  0.3669
12706TIP3   OH259608   3.237   6.089   5.559 -0.1197  0.1669  0.0978
12706TIP3    H159609   3.172   6.027   5.591 -0.1391  0.4052  0.5232
12706TIP3    H259610   3.247   6.152   5.630 -1.2745  1.5704 -0.9216
12707TIP3   OH259611   5.631   1.212   3.964  0.8031 -0.0296  0.0227
12707TIP3    H159612   5.636   1.130   4.015  0.0174 -2.1527 -3.0518
12707TIP3    H259613   5.547   1.251   3.990  0.8307 -0.5605  0.9817
12708TIP3   OH259614   6.089   3.837   6.611  0.3852 -0.2913  0.0783
12708TIP3    H159615   6.134   3.768   6.562  1.8110  1.3052 -0.9817
12708TIP3    H259616   6.081   3.909   6.549 -3.7101 -0.3814  0.1809
12709TIP3   OH259617   2.922   5.048  12.687  0.2608  0.0141 -0.0654
12709TIP3    H159618   2.862   4.975  12.701 -2.7025  2.0015 -1.3611
12709TIP3    H259619   2.898   5.112  12.754  0.5070  1.0563 -0.9296
12710TIP3   OH259620   3.824   4.025  13.559  0.4670 -0.7562 -0.1186
12710TIP3    H159621   3.908   4.012  13.514  0.3736  2.0141 -1.3122
12710TIP3    H259622   3.816   4.120  13.568 -3.3020 -0.7607 -1.6227
12711TIP3   OH259623   4.785   0.236   2.184 -0.0589  0.7909  0.2473
12711TIP3    H159624   4.712   0.183   2.152  1.0615 -0.8530  0.2932
12711TIP3    H259625   4.863   0.187   2.159  1.1294  3.0775 -0.8354
12712TIP3   OH259626   4.237   6.202   5.828 -0.0366  0.9363  0.2668
12712TIP3    H159627   4.246   6.190   5.734 -0.2734 -1.5652  0.4931
12712TIP3    H259628   4.326   6.218   5.860  0.5713 -1.4178 -0.0611
12713TIP3   OH259629   5.375   5.614   2.649 -0.2534  0.0979  0.1956
12713TIP3    H159630   5.374   5.518   2.659  1.8188 -0.5338 -3.6850
12713TIP3    H259631   5.458   5.642   2.688 -0.3911  0.1962  0.4227
12714TIP3   OH259632   5.991   0.451   2.203  0.8277 -0.0427 -0.1820
12714TIP3    H159633   6.074   0.491   2.227  1.7109 -1.0436 -1.4302
12714TIP3    H259634   5.964   0.496   2.123  0.2668  0.1184  0.0874
12715TIP3   OH259635   4.961   3.698   5.002 -0.1269 -0.7735  0.5165
12715TIP3    H159636   4.949   3.736   5.088 -2.0938 -0.2505  0.0574
12715TIP3    H259637   4.873   3.678   4.971  0.6418 -3.1272 -0.4354
12716TIP3   OH259638   4.668   5.799   3.452 -0.1744 -0.7978  0.1349
12716TIP3    H159639   4.631   5.871   3.401 -1.2900 -1.6189 -0.2337
12716TIP3    H259640   4.615   5.795   3.531  0.8505 -0.2531  0.8836
12717TIP3   OH259641   0.860   4.251   4.908 -0.5055 -0.0782  0.1630
12717TIP3    H159642   0.902   4.175   4.867 -0.0587 -0.6009  1.5174
12717TIP3    H259643   0.920   4.276   4.979 -0.9449  1.1715  0.1194
12718TIP3   OH259644   1.561   0.743  13.090  0.3419 -0.4498  0.6023
12718TIP3    H159645   1.561   0.710  13.180  1.4648  1.7588  1.5173
12718TIP3    H259646   1.618   0.683  13.042  0.8423 -0.8939  1.7100
12719TIP3   OH259647   3.763   3.621  13.345  0.0061 -0.1873  0.0076
12719TIP3    H159648   3.757   3.689  13.277  0.3013  1.2491  1.3613
12719TIP3    H259649   3.836   3.649  13.400 -0.0824 -1.4456  0.7910
12720TIP3   OH259650   5.590   5.316  15.358 -0.1774  0.0053 -0.0684
12720TIP3    H159651   5.606   5.392  15.302  2.7719 -0.6478 -0.2791
12720TIP3    H259652   5.645   5.331  15.435  1.4566 -2.4023 -0.6697
12721TIP3   OH259653   6.593   0.257   3.263 -0.0551 -0.5403  0.4629
12721TIP3    H159654   6.502   0.237   3.242 -0.6757 -0.4714  2.8411
12721TIP3    H259655   6.622   0.313   3.191 -2.5062  1.0037  0.5492
12722TIP3   OH259656   0.582   5.410   6.486  0.3661  0.1444 -0.2377
12722TIP3    H159657   0.491   5.383   6.498  0.4664 -0.9745 -1.7417
12722TIP3    H259658   0.591   5.488   6.540 -1.7340  0.7664 -0.6901
12723TIP3   OH259659   0.530   1.070  13.146 -0.2010  0.0329 -0.4109
12723TIP3    H159660   0.559   1.047  13.058 -2.4931 -1.1193 -0.9242
12723TIP3    H259661   0.505   0.986  13.186 -1.4664  0.7873  0.4480
12724TIP3   OH259662   2.935   1.846  12.878 -0.3489  0.0663 -0.0480
12724TIP3    H159663   2.906   1.865  12.967 -1.2074 -2.2512  0.2092
12724TIP3    H259664   2.882   1.904  12.823  1.4752  2.9187  0.9217
12725TIP3   OH259665   6.095   3.850   3.260  0.2534 -0.2348  0.1678
12725TIP3    H159666   6.029   3.780   3.269 -1.3569  1.3504  1.3746
12725TIP3    H259667   6.080   3.885   3.172  1.0881 -1.3704 -0.4561
12726TIP3   OH259668   5.314   0.945  13.951 -0.8052 -0.0322  0.2426
12726TIP3    H159669   5.369   0.988  14.016 -0.4592 -0.6044  0.3432
12726TIP3    H259670   5.373   0.928  13.878 -0.5040 -1.7430  0.8286
12727TIP3   OH259671   2.159   3.419   2.797  0.1020  0.2245  0.0759
12727TIP3    H159672   2.181   3.472   2.720 -0.3755  2.1631  1.1954
12727TIP3    H259673   2.162   3.481   2.870 -1.5102 -1.0940  1.3390
12728TIP3   OH259674   4.264   5.943  13.736 -0.0805 -0.0253  0.0868
12728TIP3    H159675   4.259   5.952  13.832 -0.5288  0.7322  0.0101
12728TIP3    H259676   4.186   5.990  13.705  0.0061 -0.3625 -0.6450
12729TIP3   OH259677   3.958   4.468   1.012 -0.0484 -0.5964 -0.3285
12729TIP3    H159678   3.903   4.545   1.026 -0.3332 -1.1365  1.7592
12729TIP3    H259679   4.030   4.499   0.958 -0.0993  1.1651  0.5683
12730TIP3   OH259680   0.692   5.995  16.805  0.4174 -0.0990 -0.0238
12730TIP3    H159681   0.776   5.973  16.846  0.0244 -0.0051  0.8570
12730TIP3    H259682   0.629   5.937  16.846 -0.3753  1.5370  1.1933
12731TIP3   OH259683   4.413   3.371   3.579 -0.4283  0.3368  0.5874
12731TIP3    H159684   4.399   3.371   3.674  0.9709  0.0157  0.8203
12731TIP3    H259685   4.354   3.438   3.545 -1.4651 -0.0407  1.6020
12732TIP3   OH259686   6.223   4.200   6.275  0.7175  0.1132 -0.4935
12732TIP3    H159687   6.168   4.272   6.244  0.2306 -0.7685 -1.7784
12732TIP3    H259688   6.191   4.182   6.364  0.9803  1.5841 -0.0726
12733TIP3   OH259689   1.000   3.538   2.019 -0.3618 -0.6153 -0.2091
12733TIP3    H159690   0.957   3.512   1.938 -0.3013  1.8475 -1.1086
12733TIP3    H259691   0.928   3.566   2.076 -0.2507 -0.3288 -0.2098
12734TIP3   OH259692   6.064   6.046   3.280 -0.1158 -0.1474  0.1222
12734TIP3    H159693   5.985   6.096   3.259  0.2122 -0.0273 -0.8821
12734TIP3    H259694   6.119   6.107   3.328 -0.1488  0.1325 -0.1941
12735TIP3   OH259695   2.997   6.077  14.897 -0.4813 -0.3950  0.2898
12735TIP3    H159696   3.055   6.075  14.822  0.0627 -0.4843  0.7102
12735TIP3    H259697   2.974   5.985  14.912 -2.7905 -0.1973 -1.4355
12736TIP3   OH259698   4.526   5.070   3.045  0.2781  0.0705  0.3092
12736TIP3    H159699   4.579   5.097   2.971 -0.5401  1.1965  0.0980
12736TIP3    H259700   4.528   5.145   3.105 -1.2593  0.2624  0.1733
12737TIP3   OH259701   2.498   5.904  16.814 -0.2589 -0.0521 -0.0477
12737TIP3    H159702   2.508   5.869  16.903 -0.4027  1.3184  0.5463
12737TIP3    H259703   2.556   5.851  16.760  1.5606  0.5023  1.2725
12738TIP3   OH259704   4.437   2.330  11.009 -0.1210 -0.1332  0.0811
12738TIP3    H159705   4.372   2.296  10.947 -0.4105  0.2977  0.1439
12738TIP3    H259706   4.518   2.285  10.986 -0.7414 -1.7511  0.9168
12739TIP3   OH259707   3.552   4.151   1.910 -0.1419  0.4654  0.0314
12739TIP3    H159708   3.554   4.148   2.005 -1.6746  2.2031  0.1784
12739TIP3    H259709   3.609   4.224   1.886  3.5150 -2.3598 -0.7350
12740TIP3   OH259710   6.816   2.951  10.926 -0.2417  0.3864  0.2904
12740TIP3    H159711   6.871   2.928  11.001  0.1250 -0.4607 -0.2264
12740TIP3    H259712   6.751   3.012  10.962  1.6559  2.2694  0.7060
12741TIP3   OH259713   5.284   4.625   2.170  0.4308 -0.6447  0.2407
12741TIP3    H159714   5.205   4.605   2.220  0.1323 -0.3220 -0.0922
12741TIP3    H259715   5.253   4.682   2.099  0.8320 -1.1607 -0.3598
12742TIP3   OH259716   5.852   6.171   4.890 -0.1887  0.4095  1.1539
12742TIP3    H159717   5.879   6.260   4.866  3.4065 -0.7194  0.4386
12742TIP3    H259718   5.905   6.149   4.966 -1.7050 -0.8721  1.9022
12743TIP3   OH259719   3.002   6.627  10.528 -0.1418 -0.1089  0.5634
12743TIP3    H159720   2.998   6.696  10.461  1.0363  0.8639  1.4499
12743TIP3    H259721   2.925   6.573  10.511 -0.5834  0.8734 -0.7558
12744TIP3   OH259722   4.177   3.780   4.501  0.0094  0.6399 -0.4235
12744TIP3    H159723   4.182   3.741   4.414  2.7232  0.6682 -0.3774
12744TIP3    H259724   4.247   3.845   4.502 -0.8946  1.6737  1.3239
12745TIP3   OH259725   6.187   4.958   1.370  0.1937 -0.1209  0.0841
12745TIP3    H159726   6.139   4.915   1.299 -1.2755  1.1548  0.2588
12745TIP3    H259727   6.204   5.046   1.338  0.4414  0.1461  0.9168
12746TIP3   OH259728   1.469   0.775  16.263 -0.0255 -0.3865  0.3461
12746TIP3    H159729   1.501   0.845  16.320 -0.3090 -0.3253  0.4287
12746TIP3    H259730   1.382   0.803  16.236 -0.4198 -1.0175  0.9305
12747TIP3   OH259731   3.871   1.954   0.506 -0.1050 -0.1807 -0.1344
12747TIP3    H159732   3.898   2.044   0.487  0.2578 -0.7548 -2.6765
12747TIP3    H259733   3.947   1.915   0.549  0.0086  0.5129  0.3128
12748TIP3   OH259734   0.766   0.557  15.662  0.0425  0.3251 -0.6206
12748TIP3    H159735   0.728   0.609  15.592 -1.4477 -0.1745 -0.2099
12748TIP3    H259736   0.813   0.487  15.617 -0.2751  0.4323 -1.1245
12749TIP3   OH259737   2.915   3.162   2.611  0.3101  0.3128 -0.3205
12749TIP3    H159738   2.824   3.180   2.633  0.7178  2.3842 -0.1591
12749TIP3    H259739   2.920   3.175   2.516  0.5614  0.7745 -0.2439
12750TIP3   OH259740   1.459   4.111   0.150 -0.3966 -0.0650 -0.3975
12750TIP3    H159741   1.401   4.181   0.181 -2.1483 -2.4217  2.0942
12750TIP3    H259742   1.439   4.104   0.056 -3.0914  0.2644  0.0644
12751TIP3   OH259743   3.399   6.636   1.069 -0.3763  0.2796  0.3284
12751TIP3    H159744   3.479   6.672   1.031  0.1561 -1.3592 -0.1763
12751TIP3    H259745   3.373   6.701   1.134  0.2744  1.7762 -0.8273
12752TIP3   OH259746   6.552   1.176   6.609 -0.3803  0.2911 -0.0495
12752TIP3    H159747   6.478   1.232   6.587  0.5836  1.6463  0.0400
12752TIP3    H259748   6.546   1.102   6.548 -1.3083  0.8083 -0.6027
12753TIP3   OH259749   6.740   3.273   4.871 -0.2135  0.0818 -0.0845
12753TIP3    H159750   6.791   3.258   4.950 -1.3827 -0.2259  0.6345
12753TIP3    H259751   6.659   3.315   4.902 -0.3046  0.7853 -1.2145
12754TIP3   OH259752   6.475   4.653  14.863  0.2451 -0.2073  0.0663
12754TIP3    H159753   6.558   4.684  14.825 -0.4231 -0.4473 -1.6613
12754TIP3    H259754   6.416   4.728  14.857 -0.1152 -0.5019 -0.1217
12755TIP3   OH259755   2.855   2.803   3.812 -0.2294  0.7138  0.7362
12755TIP3    H159756   2.862   2.755   3.730 -1.6491 -0.9198  1.4983
12755TIP3    H259757   2.764   2.792   3.839 -0.0451  2.0513  2.0440
12756TIP3   OH259758   5.250   5.368  11.143 -0.2053 -0.1502  0.5572
12756TIP3    H159759   5.337   5.371  11.183  0.0378 -0.7697  0.0767
12756TIP3    H259760   5.257   5.426  11.067  0.0811 -0.9802 -0.0536
12757TIP3   OH259761   3.643   1.469  11.952  0.3923  0.6286  0.5877
12757TIP3    H159762   3.709   1.506  12.010  1.0818 -0.4264  0.4989
12757TIP3    H259763   3.615   1.389  11.995 -2.5214  2.1151  1.7612
12758TIP3   OH259764   5.999   3.035  11.511  0.0238  0.0126  0.0888
12758TIP3    H159765   5.999   3.130  11.516  1.2571 -0.0253  1.2324
12758TIP3    H259766   5.926   3.014  11.452  0.7512  1.6999 -1.4909
12759TIP3   OH259767   2.057   0.331   4.005  0.3077  0.4296  0.0516
12759TIP3    H159768   2.028   0.273   3.934  1.5421  1.3355 -1.2439
12759TIP3    H259769   2.134   0.375   3.970  0.4047  1.6035  1.6393
12760TIP3   OH259770   5.181   5.935  14.396  0.2148  0.3095  0.0129
12760TIP3    H159771   5.170   5.843  14.422 -0.3425  0.3471 -0.0615
12760TIP3    H259772   5.145   5.985  14.469  1.0244  0.4918  0.2991
12761TIP3   OH259773   6.103   6.477  13.070  0.0961 -0.9551 -1.2886
12761TIP3    H159774   6.181   6.437  13.108 -0.1174 -0.8890 -0.7779
12761TIP3    H259775   6.102   6.567  13.103 -0.6040 -1.1788 -0.6629
12762TIP3   OH259776   2.123   6.265   3.755 -0.1358  0.1194 -0.4772
12762TIP3    H159777   2.175   6.200   3.708  1.1775  1.0807 -0.4431
12762TIP3    H259778   2.076   6.312   3.687 -0.4121 -0.3070 -0.5799
12763TIP3   OH259779   4.861   4.948   0.699  0.8907  0.2314 -0.2120
12763TIP3    H159780   4.779   4.926   0.655  0.5467  0.3910  0.3342
12763TIP3    H259781   4.899   4.863   0.723  0.2713  0.1744  0.6226
12764TIP3   OH259782   3.968   1.714  13.087  0.9750  0.0438  0.2239
12764TIP3    H159783   3.926   1.641  13.134  1.4093 -0.5960 -0.3665
12764TIP3    H259784   3.935   1.792  13.131 -0.1057 -0.4753  0.3864
12765TIP3   OH259785   3.774   5.045   3.527  0.6915 -0.4947  0.0640
12765TIP3    H159786   3.755   5.120   3.583  1.6386  0.8316 -1.3319
12765TIP3    H259787   3.864   5.021   3.548  0.6313 -0.8067 -0.0175
12766TIP3   OH259788   3.616   4.725  14.849  0.6001  0.2707  0.2597
12766TIP3    H159789   3.676   4.782  14.801  1.1815 -0.1358  0.4939
12766TIP3    H259790   3.629   4.638  14.811 -0.0464  0.2270  0.1262
12767TIP3   OH259791   2.084   0.987   4.056 -0.3978  0.4578  0.3758
12767TIP3    H159792   2.049   0.900   4.074 -1.4064  0.8212  0.2748
12767TIP3    H259793   2.113   0.983   3.965  2.8316 -0.7847  1.3330
12768TIP3   OH259794   6.069   2.967   4.041  0.3370  0.4380  0.7698
12768TIP3    H159795   6.090   2.875   4.029  0.9068  0.5684  0.7190
12768TIP3    H259796   6.019   2.991   3.963  2.3840  0.8049 -0.5011
12769TIP3   OH259797   2.989   6.044   0.102  0.1473 -0.0486  0.3448
12769TIP3    H159798   3.042   6.061   0.024 -0.4375  0.1011 -0.0178
12769TIP3    H259799   3.003   6.121   0.158  0.6435 -0.2009  0.4375
12770TIP3   OH259800   1.552   0.800   5.267  0.0043  0.2675  0.2032
12770TIP3    H159801   1.572   0.817   5.359 -2.8604  1.7381  0.6785
12770TIP3    H259802   1.502   0.719   5.268  1.7135 -0.8352 -0.3693
12771TIP3   OH259803   4.292   1.351  12.193  0.1720 -0.8491  0.1707
12771TIP3    H159804   4.201   1.345  12.165  0.4707 -0.4212 -0.9517
12771TIP3    H259805   4.326   1.263  12.180 -0.5282 -1.4859  2.3184
12772TIP3   OH259806   2.972   5.910  12.573  0.7718 -0.3519  0.4564
12772TIP3    H159807   2.965   5.948  12.660 -1.5650 -0.2548  0.2802
12772TIP3    H259808   2.890   5.863  12.560  1.8201 -1.9261 -1.0085
12773TIP3   OH259809   6.837   1.245  16.208 -0.1239  0.2779  0.2456
12773TIP3    H159810   6.762   1.213  16.158 -1.2251  4.7075 -1.4820
12773TIP3    H259811   6.913   1.223  16.156 -0.9830  1.8440 -1.8272
12774TIP3   OH259812   2.287   3.324   4.805  0.1466 -0.1355 -0.6941
12774TIP3    H159813   2.305   3.347   4.714 -0.6490  1.0444 -0.5639
12774TIP3    H259814   2.299   3.229   4.808  0.3765 -0.1633 -1.9804
12775TIP3   OH259815   4.101   1.330  15.270  0.4529  0.2772  0.2612
12775TIP3    H159816   4.101   1.370  15.356 -1.8443 -1.2451  1.0676
12775TIP3    H259817   4.077   1.238  15.286  0.0521 -0.0654 -1.9686
12776TIP3   OH259818   5.176   1.937   3.675 -0.2082 -0.3231 -0.4033
12776TIP3    H159819   5.143   1.868   3.732  2.6219  0.1112  1.9951
12776TIP3    H259820   5.120   2.013   3.695 -0.7516 -0.8233  0.0186
12777TIP3   OH259821   1.228   0.846   2.585 -0.1918 -0.1682 -0.6678
12777TIP3    H159822   1.277   0.919   2.623 -0.4796  0.2239 -1.0413
12777TIP3    H259823   1.247   0.772   2.643 -1.5800  0.6855  0.9981
12778TIP3   OH259824   2.805   2.525  12.484 -0.5740  0.0969  0.1051
12778TIP3    H159825   2.739   2.539  12.551 -0.2635 -0.9578  0.6656
12778TIP3    H259826   2.889   2.532  12.530 -0.3301  0.3259 -0.3661
12779TIP3   OH259827   2.619   5.880   1.346  0.3182 -0.1919  0.5216
12779TIP3    H159828   2.539   5.897   1.396  1.4184  1.4331  1.8717
12779TIP3    H259829   2.662   5.966   1.341  1.1538 -0.6800 -1.6771
12780TIP3   OH259830   1.555   6.199  16.614 -0.0819  0.3692  0.0474
12780TIP3    H159831   1.461   6.192  16.635 -0.0276  1.3337  0.7231
12780TIP3    H259832   1.574   6.293  16.622  0.6529  0.3791 -1.4351
12781TIP3   OH259833   5.008   5.831   5.870 -0.0548  0.5116 -0.5823
12781TIP3    H159834   5.085   5.868   5.915 -0.6266  0.9450  0.0665
12781TIP3    H259835   5.038   5.816   5.781  1.2846 -0.9022  0.0665
12782TIP3   OH259836   0.464   0.291   4.301  0.6612  0.2178 -0.2914
12782TIP3    H159837   0.468   0.210   4.353  0.4346  0.3604 -0.0547
12782TIP3    H259838   0.553   0.325   4.305  0.6529  0.2109 -0.0239
12783TIP3   OH259839   0.481   2.636  14.134 -0.2913  0.2932  0.0788
12783TIP3    H159840   0.564   2.682  14.143 -0.3581  0.1720  1.6392
12783TIP3    H259841   0.488   2.562  14.195 -1.2452 -0.1692 -0.3504
12784TIP3   OH259842   1.263   6.789   2.878 -0.8332  0.4017 -0.3389
12784TIP3    H159843   1.319   6.733   2.931 -0.3852  1.0291 -0.1338
12784TIP3    H259844   1.284   6.764   2.787 -0.8794  0.0109 -0.2419
12785TIP3   OH259845   3.638   3.695   1.430 -0.0047  1.0108  0.5209
12785TIP3    H159846   3.723   3.705   1.386 -0.5725  1.1409 -0.5661
12785TIP3    H259847   3.616   3.603   1.421 -0.5445  1.2127 -0.2636
12786TIP3   OH259848   3.150   1.178  12.326 -0.3043  0.4408  0.3127
12786TIP3    H159849   3.159   1.222  12.411  0.8151 -0.0789  0.4834
12786TIP3    H259850   3.080   1.114  12.340  0.9131 -0.7203  1.3366
12787TIP3   OH259851   1.120   6.230   1.780 -0.5069  1.0621  0.6968
12787TIP3    H159852   1.196   6.270   1.821  0.5404 -0.8547  0.7251
12787TIP3    H259853   1.068   6.196   1.853  0.5675 -0.9746  0.5570
12788TIP3   OH259854   4.597   5.916   4.017  0.2587  0.0650 -0.1609
12788TIP3    H159855   4.505   5.916   4.041  0.8265  0.6345  2.3915
12788TIP3    H259856   4.618   6.008   4.002  0.7447  0.1571  0.9553
12789TIP3   OH259857   4.225   2.864   5.506 -0.3766 -0.6472  0.3057
12789TIP3    H159858   4.227   2.953   5.470  0.6952 -0.9273 -0.3733
12789TIP3    H259859   4.142   2.828   5.477  0.4360 -0.8626 -1.9891
12790TIP3   OH259860   4.702   4.922   4.026  0.0173 -0.2764  0.2908
12790TIP3    H159861   4.611   4.946   4.008 -0.9156 -2.8970  1.0852
12790TIP3    H259862   4.731   4.986   4.090 -1.6820 -0.0942  0.9331
12791TIP3   OH259863   6.732   3.012   0.775  0.1715  0.0655 -0.9073
12791TIP3    H159864   6.713   3.023   0.868 -2.6072 -1.2126 -1.2375
12791TIP3    H259865   6.785   3.089   0.752  0.7800  0.4883  1.6493
12792TIP3   OH259866   4.948   2.779  17.039  0.6673  0.3739  0.4882
12792TIP3    H159867   4.872   2.817  17.082 -3.6452 -3.1925 -2.9920
12792TIP3    H259868   4.964   2.697  17.086  0.3823 -0.2819 -0.5278
12793TIP3   OH259869   2.671   4.547   3.696 -0.2370 -0.1683  0.1742
12793TIP3    H159870   2.696   4.614   3.632 -0.3596 -2.4023 -2.3758
12793TIP3    H259871   2.743   4.547   3.759 -0.3185  2.4121  0.3673
12794TIP3   OH259872   5.278   1.595   3.672 -0.4486  0.1883 -0.0227
12794TIP3    H159873   5.275   1.630   3.761 -0.7665 -1.2299  0.5554
12794TIP3    H259874   5.364   1.621   3.638 -0.3400  0.7722  0.6884
12795TIP3   OH259875   0.326   3.242  11.642  0.3462  0.0682  0.0934
12795TIP3    H159876   0.375   3.278  11.568  0.8418  0.0785  0.4301
12795TIP3    H259877   0.387   3.183  11.686  0.4589  0.9971  1.2248
12796TIP3   OH259878   5.914   4.950  14.152 -0.1311 -0.1318 -0.3069
12796TIP3    H159879   5.979   4.884  14.179  0.1076 -0.0360 -0.6380
12796TIP3    H259880   5.938   4.972  14.062 -1.2412 -0.8400 -0.7923
12797TIP3   OH259881   4.213   1.872  16.245  0.0460  0.3947  0.0519
12797TIP3    H159882   4.274   1.935  16.209 -0.7400  0.5451 -1.0828
12797TIP3    H259883   4.180   1.824  16.169 -0.7980 -0.0863  0.6964
12798TIP3   OH259884   4.688   6.137   0.951 -0.1096 -0.2156 -0.5514
12798TIP3    H159885   4.618   6.097   1.005 -0.8478  1.8372  0.1075
12798TIP3    H259886   4.679   6.094   0.866 -1.5748 -0.6906 -0.2046
12799TIP3   OH259887   4.076   0.661   3.748 -0.0126  0.1384  0.2927
12799TIP3    H159888   4.166   0.692   3.759  0.4336 -1.1434  0.4508
12799TIP3    H259889   4.072   0.632   3.657  0.0595 -0.7621  0.5663
12800TIP3   OH259890   2.410   4.155  13.702 -0.0913  0.2858 -0.3139
12800TIP3    H159891   2.336   4.172  13.759 -0.3691  1.2125 -0.9319
12800TIP3    H259892   2.387   4.075  13.655 -0.2716  0.0460  0.1765
12801TIP3   OH259893   5.015   3.054   1.181  0.2763  0.5629  0.0262
12801TIP3    H159894   4.941   2.993   1.177  0.3846  0.4591 -0.4680
12801TIP3    H259895   5.090   2.999   1.206 -0.0078  0.8527  1.5814
12802TIP3   OH259896   4.285   2.500  12.467 -0.1244  0.3174  0.3774
12802TIP3    H159897   4.189   2.501  12.473 -0.2143  1.2622 -0.8173
12802TIP3    H259898   4.314   2.457  12.548 -1.5855 -1.1160  0.1768
12803TIP3   OH259899   3.972   3.171   3.653  0.4401 -0.2943  0.7667
12803TIP3    H159900   3.883   3.200   3.671 -0.0017 -0.7721 -0.5806
12803TIP3    H259901   4.022   3.253   3.645  0.1823 -0.0271  1.7122
12804TIP3   OH259902   3.300   5.840  14.780 -0.1817  0.6942 -0.3938
12804TIP3    H159903   3.221   5.790  14.763 -0.2476  0.8606 -0.5818
12804TIP3    H259904   3.292   5.917  14.724  0.1857  0.6371 -0.5253
12805TIP3   OH259905   0.715   4.693  11.673 -0.1018  0.0914  0.4495
12805TIP3    H159906   0.650   4.756  11.705  0.4102 -0.3700  2.5396
12805TIP3    H259907   0.797   4.742  11.670 -0.1568  0.1528 -0.3117
12806TIP3   OH259908   6.792   1.857  15.823  0.0953 -0.6175  0.2241
12806TIP3    H159909   6.858   1.848  15.891  1.5755 -0.3106 -1.1120
12806TIP3    H259910   6.842   1.868  15.742 -1.5476  2.2426 -0.5379
12807TIP3   OH259911   1.968   5.855  13.245 -0.4471 -0.4331  0.3985
12807TIP3    H159912   2.027   5.931  13.245  0.4692 -1.0732 -1.4671
12807TIP3    H259913   1.959   5.833  13.153 -1.8033 -1.7722  0.8238
12808TIP3   OH259914   1.786   3.524  16.186 -0.4417  0.1833 -0.1057
12808TIP3    H159915   1.729   3.594  16.218 -0.3925 -0.1645  0.7411
12808TIP3    H259916   1.777   3.530  16.090 -1.6057  0.3789 -0.0064
12809TIP3   OH259917   4.973   2.514   0.567  0.4467  0.0340  0.4435
12809TIP3    H159918   5.061   2.545   0.586  0.5668  0.4324 -0.6922
12809TIP3    H259919   4.916   2.579   0.608  0.6263 -0.9268  2.3405
12810TIP3   OH259920   5.772   1.988   3.256 -0.0325 -0.5072 -0.4794
12810TIP3    H159921   5.771   2.076   3.293 -1.0466  0.2200 -2.1074
12810TIP3    H259922   5.694   1.947   3.291  0.3495 -0.7163  0.1450
12811TIP3   OH259923   2.955   1.446  14.201 -0.0942  0.4431 -0.4568
12811TIP3    H159924   2.975   1.535  14.176  1.7073  0.1148 -0.2932
12811TIP3    H259925   2.928   1.453  14.293  0.4259  0.7696 -0.3268
12812TIP3   OH259926   1.113   6.038  14.869  0.0616  1.0645  0.1581
12812TIP3    H159927   1.044   6.100  14.842 -0.3491  0.4492 -0.2256
12812TIP3    H259928   1.116   6.045  14.964  1.4574  3.1992  0.0277
12813TIP3   OH259929   0.836   5.312  16.221  0.1444 -0.2044 -0.2974
12813TIP3    H159930   0.848   5.237  16.162  1.6459 -1.1083  1.0537
12813TIP3    H259931   0.890   5.381  16.183 -0.4316 -0.1364 -1.0046
12814TIP3   OH259932   6.824   0.552   2.153  0.7237 -0.2329 -0.3399
12814TIP3    H159933   6.834   0.461   2.180  0.5306 -0.0408  0.4232
12814TIP3    H259934   6.884   0.563   2.080  1.0504 -0.8585 -0.1703
12815TIP3   OH259935   2.072   6.136   5.576 -0.0835  0.3384 -0.5334
12815TIP3    H159936   2.002   6.070   5.578  0.1580  0.0955  0.0711
12815TIP3    H259937   2.038   6.205   5.520 -0.8697  0.2860 -0.1354
12816TIP3   OH259938   1.053   1.660  11.915  0.2268 -0.1968  0.3520
12816TIP3    H159939   1.144   1.649  11.944 -0.2732 -1.4169  1.5544
12816TIP3    H259940   1.046   1.753  11.893  1.5007  0.1316  1.2231
12817TIP3   OH259941   2.045   1.190   2.877  0.2110 -0.2460 -0.1399
12817TIP3    H159942   2.020   1.216   2.966 -2.5614 -1.6060 -0.4373
12817TIP3    H259943   2.133   1.153   2.888 -0.4204 -1.2492  2.2275
12818TIP3   OH259944   5.783   0.865  16.125 -0.4910  0.2408 -0.4218
12818TIP3    H159945   5.742   0.884  16.210 -1.0803 -0.6658 -0.4895
12818TIP3    H259946   5.710   0.865  16.063 -0.1927 -0.0148 -0.7785
12819TIP3   OH259947   1.556   2.355  11.303  0.4140  0.2410 -0.2953
12819TIP3    H159948   1.471   2.397  11.313  0.9436  1.2514  0.1719
12819TIP3    H259949   1.561   2.293  11.376  0.8739  1.6318  0.9082
12820TIP3   OH259950   6.758   5.404   4.971 -0.1594  0.1522 -0.3141
12820TIP3    H159951   6.739   5.356   5.052 -1.2820 -1.3597 -1.4100
12820TIP3    H259952   6.696   5.369   4.907  1.2458  0.6743 -2.0627
12821TIP3   OH259953   1.923   1.109   2.195  0.0622  0.1885 -0.1870
12821TIP3    H159954   1.897   1.191   2.238 -0.4094  0.6895 -1.3518
12821TIP3    H259955   2.018   1.106   2.203 -0.0109  0.2726  0.8416
12822TIP3   OH259956   2.227   5.897   5.431  0.0117  0.1936  0.0145
12822TIP3    H159957   2.302   5.862   5.382 -0.0631 -1.7244  1.2084
12822TIP3    H259958   2.257   5.983   5.461  1.3007 -0.0476 -0.5186
12823TIP3   OH259959   2.962   3.986   4.140  0.4500  0.3456 -0.0374
12823TIP3    H159960   2.962   3.955   4.049 -0.1610  3.9078 -1.4237
12823TIP3    H259961   3.053   4.007   4.158  0.5692 -0.3463  0.1798
12824TIP3   OH259962   2.771   2.167   2.445  0.3696  0.4036  0.3527
12824TIP3    H159963   2.713   2.243   2.449 -3.0586 -1.9270  4.6025
12824TIP3    H259964   2.820   2.170   2.527 -0.5137 -2.2567  1.0838
12825TIP3   OH259965   0.019   0.663  16.297  1.1945  0.5966  0.0549
12825TIP3    H159966   0.049   0.736  16.351  2.0442 -0.1964  0.6819
12825TIP3    H259967   0.099   0.621  16.266  0.7186  0.3485 -0.8896
12826TIP3   OH259968   4.029   6.809  14.384 -0.2862 -0.3062 -0.3839
12826TIP3    H159969   3.967   6.766  14.326 -0.7392 -1.4172  0.8759
12826TIP3    H259970   4.084   6.738  14.419 -0.7753  0.1327  1.4059
12827TIP3   OH259971   5.058   1.967  12.004 -0.5904 -0.3045  0.0546
12827TIP3    H159972   5.087   2.058  12.019  0.7091 -0.7279  0.2654
12827TIP3    H259973   4.979   1.958  12.057  0.2121  0.2102  1.4022
12828TIP3   OH259974   0.435   2.489   1.799 -0.2077  0.2313  0.0849
12828TIP3    H159975   0.505   2.524   1.743 -1.6331  2.9411 -0.1750
12828TIP3    H259976   0.365   2.466   1.738 -1.2892  2.0161  0.5891
12829TIP3   OH259977   5.767   0.159   5.965  0.0245  0.1225 -0.0018
12829TIP3    H159978   5.822   0.112   6.028 -0.8780  0.8891  1.3996
12829TIP3    H259979   5.681   0.165   6.007 -0.7655  0.1852 -1.5453
12830TIP3   OH259980   0.080   2.040   4.469  0.4175  0.2473  0.3348
12830TIP3    H159981   0.036   1.976   4.526  1.5358 -0.6491  0.2258
12830TIP3    H259982   0.130   1.987   4.408 -1.3897  1.1552 -2.1006
12831TIP3   OH259983   6.758   2.259  15.076  0.3620 -0.3340  0.1991
12831TIP3    H159984   6.803   2.326  15.024  0.6305 -0.2812  0.4991
12831TIP3    H259985   6.665   2.271  15.054  0.5189 -0.6626 -0.6680
12832TIP3   OH259986   2.655   1.161  16.908 -0.0777  0.1436  0.2363
12832TIP3    H159987   2.681   1.183  16.819 -0.7902 -0.4885 -0.1362
12832TIP3    H259988   2.701   1.224  16.963 -0.5169  1.2637 -0.6586
12833TIP3   OH259989   6.854   1.949  16.562 -0.5803  0.1088  0.4372
12833TIP3    H159990   6.883   1.949  16.654 -0.8665 -0.6087  0.5366
12833TIP3    H259991   6.758   1.953  16.567 -0.5803  0.6074  0.1512
12834TIP3   OH259992   1.242   1.325   3.467  0.4877  0.6008 -0.6785
12834TIP3    H159993   1.171   1.263   3.480  2.0224 -1.2222 -0.4314
12834TIP3    H259994   1.233   1.353   3.376  0.1421 -0.5392 -1.0116
12835TIP3   OH259995   3.054   6.513  11.244  0.0135  0.5285  0.7151
12835TIP3    H159996   3.028   6.481  11.158 -2.9759  0.5114  1.5142
12835TIP3    H259997   3.083   6.603  11.229  2.2435 -0.3373 -0.6234
12836TIP3   OH259998   5.923   5.975   2.539 -0.8306 -0.2505  0.1042
12836TIP3    H159999   5.957   5.934   2.619  1.0098 -0.1240 -0.5611
12836TIP3    H260000   5.901   6.064   2.565 -0.9148 -0.4204  0.6274
12837TIP3   OH260001   5.166   5.912  16.783  0.4811 -0.3561 -0.2822
12837TIP3    H160002   5.154   5.936  16.691  0.5710  0.6039 -0.0569
12837TIP3    H260003   5.194   5.994  16.825  0.0056 -0.6784  0.6794
12838TIP3   OH260004   1.418   4.970  14.174 -0.3809 -0.1336  0.4962
12838TIP3    H160005   1.400   4.993  14.083  0.3535  2.6168  0.9374
12838TIP3    H260006   1.370   4.888  14.189 -1.3768 -0.0887 -2.0338
12839TIP3   OH260007   1.954   1.156   3.185 -0.7682 -0.0520  0.1572
12839TIP3    H160008   2.027   1.219   3.184  0.1533 -1.0905 -0.1006
12839TIP3    H260009   1.979   1.091   3.250 -1.4692 -0.4267  0.0629
12840TIP3   OH260010   2.367   4.524   3.044 -0.4089 -0.6512  0.2611
12840TIP3    H160011   2.418   4.500   2.966 -0.9414 -1.5207  0.1702
12840TIP3    H260012   2.280   4.546   3.011 -0.9085 -1.9219  0.6883
12841TIP3   OH260013   1.493   4.337  16.897  0.2522  0.0995 -0.0312
12841TIP3    H160014   1.478   4.393  16.821 -2.9627 -0.2872  0.2014
12841TIP3    H260015   1.479   4.394  16.973 -1.1173 -0.5432  0.2187
12842TIP3   OH260016   0.078   5.626   2.008  0.1449  0.1703  0.1804
12842TIP3    H160017   0.113   5.701   1.960 -0.6160  0.9999  0.8743
12842TIP3    H260018   0.138   5.615   2.082  0.4585 -0.1419 -0.1160
12843TIP3   OH260019   5.522   2.821  14.419 -0.3165 -0.0235 -0.1384
12843TIP3    H160020   5.590   2.760  14.389 -0.1771  0.8609 -1.7103
12843TIP3    H260021   5.527   2.817  14.515  1.7617 -0.2094 -0.2090
12844TIP3   OH260022   1.622   4.086   5.761  0.0545  0.0913  0.2955
12844TIP3    H160023   1.569   4.041   5.696  1.8992  0.6116 -1.6906
12844TIP3    H260024   1.601   4.178   5.749  0.5325  0.2015  0.2937
12845TIP3   OH260025   2.793   5.634  13.616  0.2653  0.0363  0.2929
12845TIP3    H160026   2.767   5.670  13.702  2.0905 -1.7741  1.6854
12845TIP3    H260027   2.879   5.596  13.631  1.6645  1.5539 -2.9325
12846TIP3   OH260028   1.443   3.314   4.433 -0.3829  0.1898  0.2412
12846TIP3    H160029   1.450   3.366   4.513 -1.7066 -0.4891  0.8267
12846TIP3    H260030   1.355   3.333   4.399  0.1270  0.4082 -1.0218
12847TIP3   OH260031   5.483   1.454  13.499 -0.2408  0.0315  0.0442
12847TIP3    H160032   5.538   1.527  13.527 -1.7474  0.5409  1.9212
12847TIP3    H260033   5.538   1.404  13.439  1.3252  1.9212 -0.2079
12848TIP3   OH260034   2.058   2.670  16.201  0.2354  0.0922 -0.5552
12848TIP3    H160035   2.023   2.585  16.228 -0.7106  0.5202 -0.3942
12848TIP3    H260036   2.079   2.659  16.109 -0.0426 -0.2778 -0.5782
12849TIP3   OH260037   1.573   3.405  11.631  0.1418 -0.0521 -0.6056
12849TIP3    H160038   1.600   3.370  11.716  0.9620 -0.3844 -0.9996
12849TIP3    H260039   1.599   3.497  11.634 -0.8837  0.2293 -0.0543
12850TIP3   OH260040   5.547   5.393  14.083  0.1551  0.0601 -0.2073
12850TIP3    H160041   5.481   5.366  14.147  1.8989 -0.1414  1.5928
12850TIP3    H260042   5.631   5.379  14.127  1.3917  1.4099 -1.9763
12851TIP3   OH260043   0.439   4.641   0.943 -0.0168  0.0489  0.3682
12851TIP3    H160044   0.453   4.733   0.922 -4.3900  0.5039 -1.6494
12851TIP3    H260045   0.388   4.642   1.024 -0.9575 -0.4880 -0.1987
12852TIP3   OH260046   1.096   3.976  13.846 -0.3377 -0.5742  0.0921
12852TIP3    H160047   1.022   3.922  13.874 -1.1019  0.2253 -0.3513
12852TIP3    H260048   1.080   3.993  13.754  0.8411 -1.0722 -0.2262
12853TIP3   OH260049   1.563   0.901  11.469 -0.5637 -0.1521  0.3882
12853TIP3    H160050   1.585   0.907  11.376 -0.1802 -1.5183  0.3678
12853TIP3    H260051   1.643   0.928  11.515  0.0066 -1.5807  0.2994
12854TIP3   OH260052   6.363   3.505   1.671 -0.4293  0.1635 -0.2361
12854TIP3    H160053   6.276   3.518   1.709 -0.5970  2.7104 -1.2475
12854TIP3    H260054   6.416   3.470   1.742 -2.0371 -0.5312  0.6733
12855TIP3   OH260055   5.147   2.038  13.554 -0.6460 -0.7377 -0.0308
12855TIP3    H160056   5.158   2.030  13.460  0.2813 -0.2399  0.0231
12855TIP3    H260057   5.236   2.049  13.588 -0.8170 -2.4453  1.0570
12856TIP3   OH260058   4.567   4.812  12.027  0.2592  0.1851  0.4290
12856TIP3    H160059   4.593   4.860  12.106 -0.3541 -1.5083  1.7194
12856TIP3    H260060   4.628   4.738  12.022 -1.6413 -1.5493  1.2189
12857TIP3   OH260061   1.578   6.801  15.621 -0.6881  0.3147  0.7718
12857TIP3    H160062   1.604   6.810  15.713  0.3277 -0.8276  0.6170
12857TIP3    H260063   1.634   6.863  15.574 -2.3477  2.1360  1.0578
12858TIP3   OH260064   6.361   5.105  13.527  0.2067 -0.2173  0.3578
12858TIP3    H160065   6.444   5.133  13.489  1.0803 -0.2831  2.0912
12858TIP3    H260066   6.322   5.047  13.462  0.9009  0.8294 -1.0273
12859TIP3   OH260067   1.906   2.204  16.128  0.1027  0.0563  0.2609
12859TIP3    H160068   1.943   2.286  16.095  3.0452 -0.5476  1.8008
12859TIP3    H260069   1.954   2.135  16.082 -1.6693 -0.8830 -0.3056
12860TIP3   OH260070   0.778   6.571  13.580 -0.3637  0.4035  0.3294
12860TIP3    H160071   0.842   6.601  13.644  1.2958 -0.7209 -0.7197
12860TIP3    H260072   0.769   6.645  13.519  0.4318  0.3442  0.1300
12861TIP3   OH260073   1.691   0.843  12.548  0.0966  0.0893  0.2995
12861TIP3    H160074   1.666   0.766  12.498 -0.9949  1.4631 -1.4045
12861TIP3    H260075   1.615   0.861  12.603  0.1074  0.2708  0.2568
12862TIP3   OH260076   0.588   1.360   3.058  0.4512  0.1660 -0.8410
12862TIP3    H160077   0.502   1.329   3.028 -0.5816  1.9846  0.0558
12862TIP3    H260078   0.597   1.323   3.146  1.1588 -0.9939 -1.3813
12863TIP3   OH260079   4.579   1.437  11.896  0.2687 -0.4633  0.7916
12863TIP3    H160080   4.491   1.405  11.876  0.7629  0.0061 -2.7494
12863TIP3    H260081   4.600   1.497  11.824  3.5577 -0.7159  1.3833
12864TIP3   OH260082   6.442   5.234  15.429  0.3123 -0.5382 -0.1617
12864TIP3    H160083   6.400   5.171  15.487 -0.5474 -0.2362 -0.4359
12864TIP3    H260084   6.390   5.230  15.348  1.3872 -0.8316 -0.8514
12865TIP3   OH260085   3.476   6.216  12.091 -0.4451  0.6550 -0.2566
12865TIP3    H160086   3.410   6.235  12.158  0.3703 -0.5299  0.9286
12865TIP3    H260087   3.552   6.269  12.116 -0.1017  0.1315 -0.1732
12866TIP3   OH260088   2.784   2.708  11.422  0.2134  0.6452 -0.5626
12866TIP3    H160089   2.730   2.787  11.422 -0.0080  0.5576  2.0860
12866TIP3    H260090   2.722   2.637  11.407  0.1679  0.8222 -1.2598
12867TIP3   OH260091   4.901   5.365  17.099  0.0360  0.0941  0.6081
12867TIP3    H160092   4.912   5.391  17.008 -1.4244  2.7313  1.0931
12867TIP3    H260093   4.915   5.445  17.149 -0.8617 -0.9190  2.5808
12868TIP3   OH260094   0.746   2.080   1.955 -0.0202  0.7063 -0.0885
12868TIP3    H160095   0.823   2.054   2.005  0.2452  1.0617 -0.3045
12868TIP3    H260096   0.696   1.999   1.943  0.0557  0.5681  0.5000
12869TIP3   OH260097   2.002   5.748   2.531 -0.3614  0.0286 -0.0458
12869TIP3    H160098   1.942   5.755   2.606  0.6893  3.3342  0.6355
12869TIP3    H260099   2.079   5.705   2.567 -0.5963 -0.1676  0.2375
12870TIP3   OH260100   4.660   6.535   5.264  0.2999 -0.4849  0.2805
12870TIP3    H160101   4.714   6.568   5.192  0.6348 -0.1832  0.6662
12870TIP3    H260102   4.679   6.593   5.337 -0.6351 -0.3095  0.3950
12871TIP3   OH260103   4.511   0.387  14.340 -0.1533 -0.0713  0.0568
12871TIP3    H160104   4.594   0.341  14.326  1.3224  2.6037 -0.7405
12871TIP3    H260105   4.498   0.385  14.435 -0.0378 -1.8354  0.0704
12872TIP3   OH260106   1.847   1.821   2.237  0.3831 -0.5259  0.1608
12872TIP3    H160107   1.809   1.906   2.219  1.0814 -0.4393 -1.0366
12872TIP3    H260108   1.942   1.834   2.226  0.6289 -1.1439  1.3222
12873TIP3   OH260109   0.537   5.329   5.240 -0.0978 -0.0890  0.4503
12873TIP3    H160110   0.526   5.419   5.213 -1.1086  0.0600  1.3053
12873TIP3    H260111   0.474   5.279   5.188  0.2268 -0.2554  0.2144
12874TIP3   OH260112   4.712   0.666   5.644 -0.2583  0.2485  0.4197
12874TIP3    H160113   4.765   0.741   5.672  0.9021  0.1461 -1.3626
12874TIP3    H260114   4.628   0.703   5.618 -0.5296  0.6115  1.7164
12875TIP3   OH260115   6.557   1.790  13.346  0.1318  0.0625 -0.3402
12875TIP3    H160116   6.647   1.771  13.370 -0.2580 -1.4280  0.0275
12875TIP3    H260117   6.563   1.827  13.258  1.0242 -1.0947 -0.7938
12876TIP3   OH260118   1.024   5.367   5.337 -0.8483 -0.5734  0.1597
12876TIP3    H160119   1.040   5.276   5.312  0.3307 -0.4312  0.3673
12876TIP3    H260120   1.070   5.418   5.271 -0.6958 -0.1453  0.5922
12877TIP3   OH260121   5.319   5.632   4.514  0.2073 -0.2810  0.2680
12877TIP3    H160122   5.409   5.643   4.483  0.0880  3.4938  0.9032
12877TIP3    H260123   5.278   5.575   4.448  1.7308  2.1211 -3.0208
12878TIP3   OH260124   2.516   0.882  16.136 -0.0525 -0.0290 -1.0361
12878TIP3    H160125   2.529   0.792  16.165  0.5735  0.3347 -0.1213
12878TIP3    H260126   2.600   0.925  16.153 -0.9417  1.2271  0.5024
12879TIP3   OH260127   0.625   0.391   4.839 -0.4048  0.3723 -0.5694
12879TIP3    H160128   0.574   0.378   4.759  1.7939 -0.7394 -1.8704
12879TIP3    H260129   0.683   0.464   4.818 -2.6177  3.0218  1.5979
12880TIP3   OH260130   1.835   4.616  12.622  0.3707 -0.4271 -0.0872
12880TIP3    H160131   1.861   4.582  12.708 -1.0166 -0.5633  0.2976
12880TIP3    H260132   1.851   4.710  12.628  0.1084 -0.4111  0.3847
12881TIP3   OH260133   5.778   4.581   4.976  0.1082 -0.7695  0.1990
12881TIP3    H160134   5.690   4.606   5.005  0.0400 -0.0765 -0.5836
12881TIP3    H260135   5.794   4.634   4.899  1.9606  0.4968  1.3704
12882TIP3   OH260136   1.879   2.585  16.777 -0.1021  0.2951 -0.2861
12882TIP3    H160137   1.955   2.603  16.721  0.3659  1.2455  0.6251
12882TIP3    H260138   1.916   2.546  16.856 -0.3408  2.1441  0.8112
12883TIP3   OH260139   6.020   3.107   0.800 -0.5759 -0.4160 -0.0431
12883TIP3    H160140   6.101   3.147   0.768  0.0603  0.1609  2.1229
12883TIP3    H260141   6.043   3.016   0.818 -0.4768 -0.3293  0.2805
12884TIP3   OH260142   1.507   1.790   6.152  0.0532 -0.3078  0.9749
12884TIP3    H160143   1.533   1.706   6.117  1.0741  0.8655 -1.2957
12884TIP3    H260144   1.421   1.807   6.114  1.1747  0.9818 -1.1814
12885TIP3   OH260145   2.070   0.441   3.087  0.0465 -0.5055  0.1890
12885TIP3    H160146   2.057   0.352   3.121  0.1305 -0.7988 -0.5277
12885TIP3    H260147   2.105   0.428   2.999 -0.5889  0.2302 -0.1833
12886TIP3   OH260148   0.383   0.719  10.699  0.1657  0.2687 -0.3110
12886TIP3    H160149   0.449   0.655  10.670 -0.2742 -1.0381  1.4053
12886TIP3    H260150   0.299   0.681  10.671 -0.1207 -0.0760  0.9609
12887TIP3   OH260151   5.145   2.756  11.658  0.0518  0.9838 -0.0978
12887TIP3    H160152   5.214   2.821  11.643  0.3271  0.9890  1.0837
12887TIP3    H260153   5.129   2.759  11.752  0.0319 -0.6199 -0.0146
12888TIP3   OH260154   4.489   6.009  16.735 -0.1773 -0.8087 -0.1735
12888TIP3    H160155   4.409   6.030  16.687  1.1982  1.4236 -1.6773
12888TIP3    H260156   4.502   5.916  16.719 -1.7162 -0.9121 -1.0878
12889TIP3   OH260157   4.231   0.007   5.888 -0.1582 -0.0220  0.0191
12889TIP3    H160158   4.242  -0.085   5.911 -0.5208 -0.3504 -1.0649
12889TIP3    H260159   4.208   0.006   5.795  0.0105  1.1740 -0.0499
12890TIP3   OH260160   3.260   0.311  11.954 -0.3299 -0.5431  0.2061
12890TIP3    H160161   3.347   0.290  11.988  0.3584  1.7583  0.0177
12890TIP3    H260162   3.205   0.239  11.984  1.0647 -0.6456  2.8009
12891TIP3   OH260163   6.371   1.184   0.862 -0.1591 -0.0695 -0.1960
12891TIP3    H160164   6.447   1.186   0.803 -0.0529 -1.7490 -0.1870
12891TIP3    H260165   6.296   1.171   0.804 -0.2804  0.2480 -0.1093
12892TIP3   OH260166   3.048   6.580  11.532 -0.7467 -0.0407 -0.2022
12892TIP3    H160167   3.053   6.519  11.458 -0.1421  0.2535 -0.4123
12892TIP3    H260168   3.120   6.555  11.589  1.1079  2.0034 -1.4951
12893TIP3   OH260169   4.637   1.444  16.658 -0.4474  0.4515  0.4340
12893TIP3    H160170   4.569   1.511  16.661 -0.0878  0.8512 -0.0379
12893TIP3    H260171   4.634   1.410  16.568 -0.3931  0.0893  0.5689
12894TIP3   OH260172   6.039   6.363  14.049  0.2232 -0.4022  0.4814
12894TIP3    H160173   5.955   6.319  14.066 -0.4152  0.8965  0.8370
12894TIP3    H260174   6.016   6.456  14.045  1.7116  0.0004  0.9191
12895TIP3   OH260175   5.373   5.849  12.157  0.0993 -0.0565  0.4371
12895TIP3    H160176   5.391   5.756  12.168  1.3345  0.2522  1.2140
12895TIP3    H260177   5.401   5.868  12.067  0.1300 -0.3631  0.3811
12896TIP3   OH260178   5.746   0.747   4.578  0.5675 -0.1096 -0.4057
12896TIP3    H160179   5.720   0.674   4.634 -1.0533  0.4281 -0.3925
12896TIP3    H260180   5.747   0.710   4.489 -0.9666 -0.0293 -0.4912
12897TIP3   OH260181   1.143   5.664   5.843  0.0959  0.1492 -0.5311
12897TIP3    H160182   1.123   5.623   5.927  1.8996  1.2567  0.5105
12897TIP3    H260183   1.135   5.594   5.778  0.5315 -1.1910  0.8234
12898TIP3   OH260184   2.341   0.387   3.965  0.3083 -0.6457  0.4267
12898TIP3    H160185   2.336   0.302   3.922  0.1323  0.3228 -1.5851
12898TIP3    H260186   2.423   0.425   3.933 -0.2853  0.4869  0.1965
12899TIP3   OH260187   4.306   6.655   3.741 -0.2822 -0.0604  0.1199
12899TIP3    H160188   4.287   6.743   3.708 -1.9094 -0.6553 -0.5939
12899TIP3    H260189   4.289   6.597   3.667 -1.3202 -1.1595  1.1768
12900TIP3   OH260190   0.007   1.427  14.369  0.0851  0.3392 -0.2744
12900TIP3    H160191   0.026   1.521  14.364 -0.3590  0.3895 -1.1368
12900TIP3    H260192   0.042   1.391  14.288  1.3136 -0.4537  0.5658
12901TIP3   OH260193   2.797   4.522   1.463 -0.1141  0.2524 -0.1434
12901TIP3    H160194   2.792   4.514   1.558 -0.4396 -0.2069 -0.2006
12901TIP3    H260195   2.854   4.598   1.449 -2.9368  2.6539  0.4727
12902TIP3   OH260196   5.457   6.552   5.229  0.3630  0.2370 -0.4812
12902TIP3    H160197   5.426   6.635   5.265 -0.5664 -0.5432  0.6191
12902TIP3    H260198   5.510   6.576   5.154 -1.4398  1.7654 -1.3404
12903TIP3   OH260199   4.957   3.941  15.694  0.1017  0.1111  0.9059
12903TIP3    H160200   4.925   3.891  15.619 -3.6084  1.7988  1.1535
12903TIP3    H260201   4.979   3.875  15.760 -1.6640 -1.2930  0.1587
12904TIP3   OH260202   1.648   3.644   2.858  0.2872  0.1604 -0.4363
12904TIP3    H160203   1.627   3.597   2.777  0.6012 -0.9574  0.1057
12904TIP3    H260204   1.609   3.731   2.847 -1.0088 -0.4786 -1.1599
12905TIP3   OH260205   5.639   6.013   3.605  0.0201 -0.0068  0.0647
12905TIP3    H160206   5.641   6.108   3.618 -1.4356  0.0478  0.0917
12905TIP3    H260207   5.694   5.978   3.675  0.4366  0.8081  0.1507
12906TIP3   OH260208   6.345   3.829  11.870 -0.1152 -0.8298  0.3809
12906TIP3    H160209   6.368   3.911  11.826 -0.7380 -1.2996 -0.8827
12906TIP3    H260210   6.317   3.856  11.958 -0.1576  0.2970  0.0450
12907TIP3   OH260211   0.453   5.050  15.199  0.1012 -0.1970 -0.3572
12907TIP3    H160212   0.374   5.102  15.182 -0.0955 -0.6587 -0.8873
12907TIP3    H260213   0.525   5.113  15.191  0.0801 -0.4184 -3.4493
12908TIP3   OH260214   3.173   0.124  13.925  0.2922  0.1287 -0.8866
12908TIP3    H160215   3.167   0.161  13.836 -0.7526  0.4957 -0.6769
12908TIP3    H260216   3.258   0.081  13.927  0.4553  0.3648 -1.9782
12909TIP3   OH260217   5.337   3.522  15.698 -0.0654  0.9209 -0.2002
12909TIP3    H160218   5.295   3.512  15.613  0.9648 -0.8520 -0.5464
12909TIP3    H260219   5.329   3.615  15.718 -1.9651  1.0567 -1.3531
12910TIP3   OH260220   3.451   1.108  12.352 -1.0119  0.2079 -0.7515
12910TIP3    H160221   3.356   1.102  12.338 -1.1098  0.8793 -0.4010
12910TIP3    H260222   3.484   1.022  12.325 -1.8543 -0.4470  0.2061
12911TIP3   OH260223   5.380   6.362   4.369  0.3910 -0.0149 -0.2261
12911TIP3    H160224   5.366   6.457   4.365  1.1342  0.0703 -1.0998
12911TIP3    H260225   5.466   6.349   4.328 -0.1460 -1.1739 -1.0140
12912TIP3   OH260226   1.921   0.202  14.923 -0.0222  0.3163  0.3264
12912TIP3    H160227   1.887   0.153  14.848 -0.8776  4.4094 -2.2778
12912TIP3    H260228   1.847   0.208  14.983 -0.2142 -0.6764  0.2043
12913TIP3   OH260229   0.487   3.270   5.144 -0.3089  0.0550 -0.2987
12913TIP3    H160230   0.577   3.254   5.175  0.0276  2.1197 -0.0700
12913TIP3    H260231   0.492   3.355   5.099 -2.2753  0.5436  0.3203
12914TIP3   OH260232   5.844   3.492  14.407  0.2649  0.1329 -0.8698
12914TIP3    H160233   5.932   3.463  14.429 -0.1530 -1.4652 -1.1933
12914TIP3    H260234   5.787   3.444  14.466 -0.5419 -0.6995 -2.2923
12915TIP3   OH260235   2.125   3.057   3.372  0.1073 -0.3054 -1.1694
12915TIP3    H160236   2.071   3.014   3.307 -2.1777  0.6096  0.0195
12915TIP3    H260237   2.109   3.009   3.453 -1.7986  2.0522 -0.0123
12916TIP3   OH260238   1.482   6.233   0.377 -0.2129  0.2163 -0.1541
12916TIP3    H160239   1.394   6.272   0.367 -0.5367 -0.4804 -0.0542
12916TIP3    H260240   1.476   6.182   0.457  0.4893  0.6841  0.2032
12917TIP3   OH260241   1.730   6.137   2.607  0.2320  0.2156 -0.6489
12917TIP3    H160242   1.740   6.180   2.692  2.0470  0.1394 -0.7951
12917TIP3    H260243   1.752   6.205   2.544  1.7003 -0.4978 -0.9319
12918TIP3   OH260244   1.577   1.541  16.757  0.0398  0.0948 -0.4945
12918TIP3    H160245   1.490   1.531  16.796  0.3756 -0.0739  0.2315
12918TIP3    H260246   1.635   1.552  16.832  0.8577 -1.3920 -0.8661
12919TIP3   OH260247   5.828   4.917   4.002 -0.6223 -0.2562  0.0766
12919TIP3    H160248   5.781   4.967   4.070 -0.7006  0.6033 -0.5923
12919TIP3    H260249   5.866   4.984   3.946 -0.4710 -0.9641 -0.6744
12920TIP3   OH260250   6.015   3.303  11.460  0.1020  0.1411 -0.1111
12920TIP3    H160251   5.959   3.354  11.402 -0.6414  0.6249  0.9841
12920TIP3    H260252   5.996   3.337  11.548 -0.8222 -2.3185  0.7617
12921TIP3   OH260253   3.230   2.020  16.176 -0.6243 -0.1667 -0.0036
12921TIP3    H160254   3.259   2.112  16.179 -0.3122 -0.2818  0.6880
12921TIP3    H260255   3.290   1.978  16.114  0.9551 -0.4694  1.6212
12922TIP3   OH260256   5.688   5.494  10.267  0.3852  0.1335 -0.0149
12922TIP3    H160257   5.745   5.459  10.198  0.6298 -0.9024  0.6975
12922TIP3    H260258   5.720   5.454  10.347 -2.0959 -1.4556  0.2719
12923TIP3   OH260259   5.793   6.227   1.387 -0.2955 -0.4527 -0.7260
12923TIP3    H160260   5.855   6.196   1.321 -0.7861  0.1082 -1.4648
12923TIP3    H260261   5.845   6.280   1.447  0.2293 -1.2887 -0.4229
12924TIP3   OH260262   1.515   6.014  13.978  0.0937  0.1537 -0.3644
12924TIP3    H160263   1.592   5.983  13.932 -1.3895 -0.5461 -2.5227
12924TIP3    H260264   1.454   5.940  13.977 -0.6374  0.6628  1.3273
12925TIP3   OH260265   5.795   4.262  10.641 -0.0919 -0.0266  0.0206
12925TIP3    H160266   5.767   4.232  10.554 -1.5718  0.3312  0.3554
12925TIP3    H260267   5.870   4.320  10.623  1.9221 -2.6481 -0.7526
12926TIP3   OH260268   3.880   4.149   3.318 -0.1378  0.0260  0.1841
12926TIP3    H160269   3.862   4.125   3.227  0.1896  1.4117 -0.2697
12926TIP3    H260270   3.820   4.222   3.336 -0.7551 -0.7440  1.3496
12927TIP3   OH260271   4.156   4.823  14.260 -0.4810 -0.6418  0.3784
12927TIP3    H160272   4.135   4.740  14.218 -1.1980 -1.0232  1.4555
12927TIP3    H260273   4.138   4.889  14.193  0.1741 -1.3475 -0.5119
12928TIP3   OH260274   2.309   4.411  11.118 -0.0074  0.5633 -0.1621
12928TIP3    H160275   2.333   4.333  11.168  0.5997  0.3226 -0.8200
12928TIP3    H260276   2.346   4.484  11.168  2.6441  0.1752 -1.4129
12929TIP3   OH260277   1.158   6.500  14.212  0.5919  0.6354 -0.0358
12929TIP3    H160278   1.205   6.429  14.256 -0.0408 -0.2530 -0.7766
12929TIP3    H260279   1.204   6.511  14.129  0.1320  0.4673 -0.3142
12930TIP3   OH260280   0.682   4.612   0.429  0.0819  0.5823  0.2247
12930TIP3    H160281   0.678   4.584   0.521  0.2611  0.1987  0.1174
12930TIP3    H260282   0.775   4.613   0.409 -0.0324 -1.0149 -0.4610
12931TIP3   OH260283   3.059   1.168   3.742 -0.1730 -0.4367  0.4097
12931TIP3    H160284   3.109   1.212   3.674 -0.8894 -0.5244 -0.1927
12931TIP3    H260285   3.097   1.199   3.824  2.1121 -1.9404  0.0099
12932TIP3   OH260286   1.850   3.932   0.508 -0.3910 -0.1275 -0.3495
12932TIP3    H160287   1.926   3.909   0.455 -0.0117 -0.0699  0.1588
12932TIP3    H260288   1.801   3.994   0.455  0.0735  0.0648 -0.5577
12933TIP3   OH260289   6.644   3.194  16.562 -0.1995  0.5673 -0.4635
12933TIP3    H160290   6.664   3.273  16.612 -0.5122  0.2361  0.1875
12933TIP3    H260291   6.727   3.170  16.521  0.9457 -1.0058  2.5066
12934TIP3   OH260292   3.752   0.039   5.175  0.2369 -0.1791  0.0563
12934TIP3    H160293   3.775  -0.019   5.102 -2.0476 -0.4038 -0.5506
12934TIP3    H260294   3.826   0.030   5.236  1.7401 -0.7461 -1.7496
12935TIP3   OH260295   1.745   1.294  16.438 -0.6276 -0.5351  0.6377
12935TIP3    H160296   1.677   1.319  16.501 -2.8591 -0.7162 -1.5361
12935TIP3    H260297   1.751   1.368  16.378 -1.0591 -1.6788 -0.8815
12936TIP3   OH260298   4.487   3.885   0.278 -0.4360 -0.2132  0.2566
12936TIP3    H160299   4.546   3.961   0.271  2.0880 -1.7304  2.8358
12936TIP3    H260300   4.541   3.811   0.249 -1.0544 -1.6516  2.5356
12937TIP3   OH260301   4.131   3.685   3.763 -0.0486  0.8087 -0.4514
12937TIP3    H160302   4.143   3.775   3.794  1.8425  0.4453 -0.0317
12937TIP3    H260303   4.125   3.694   3.667 -2.7772  1.6192 -0.2765
12938TIP3   OH260304   2.585   0.137  16.459 -0.1350  0.3330 -0.3630
12938TIP3    H160305   2.529   0.211  16.434 -0.0456  0.0073 -1.5679
12938TIP3    H260306   2.662   0.178  16.498 -0.1130  0.8794 -0.9545
12939TIP3   OH260307   0.750   4.802  13.032 -0.2643 -0.9662 -0.3784
12939TIP3    H160308   0.770   4.718  13.073 -0.3556 -0.1330  1.5175
12939TIP3    H260309   0.807   4.806  12.955 -2.2632 -3.9064 -2.1785
12940TIP3   OH260310   5.647   6.229   0.833 -0.3107 -0.7307 -0.0204
12940TIP3    H160311   5.707   6.164   0.870 -0.3564  0.1651  1.7209
12940TIP3    H260312   5.693   6.312   0.841 -1.5433 -0.0975  0.8742
12941TIP3   OH260313   3.741   3.092  14.372 -0.3449 -0.3803  0.4063
12941TIP3    H160314   3.673   3.067  14.435 -0.0104  0.2218  1.0146
12941TIP3    H260315   3.777   3.008  14.342  1.2201 -0.6878  2.9243
12942TIP3   OH260316   3.137   6.395  17.045  0.0970  0.2548  0.2126
12942TIP3    H160317   3.118   6.372  17.136  0.6786  2.6789  1.0183
12942TIP3    H260318   3.088   6.476  17.031  0.9977  0.5675 -1.2583
12943TIP3   OH260319   1.120   3.567   3.372 -0.7982 -0.5360 -0.1883
12943TIP3    H160320   1.196   3.610   3.332  0.2479 -0.7086  1.5293
12943TIP3    H260321   1.151   3.479   3.392 -0.6760  0.0240  2.4784
12944TIP3   OH260322   5.222   1.072  13.524 -0.0519  0.0932 -0.0416
12944TIP3    H160323   5.213   1.149  13.579  0.2045  0.4324 -0.4697
12944TIP3    H260324   5.316   1.056  13.519 -0.0426  0.3754 -0.8014
12945TIP3   OH260325   4.795   1.543   0.097 -0.4095 -0.0124  0.9141
12945TIP3    H160326   4.809   1.472   0.035  2.3068 -0.5551  2.0138
12945TIP3    H260327   4.785   1.500   0.182 -2.6863  0.7828  1.1035
12946TIP3   OH260328   4.556   2.746   1.310  0.2200 -0.3000 -0.0459
12946TIP3    H160329   4.592   2.703   1.387  0.5540  1.9425  1.1234
12946TIP3    H260330   4.464   2.760   1.331  0.1521 -0.2757 -0.3492
12947TIP3   OH260331   2.727   3.303   4.624  0.0500 -0.1208  0.5227
12947TIP3    H160332   2.770   3.226   4.662 -1.0498 -0.7920  0.4376
12947TIP3    H260333   2.685   3.271   4.544  0.8154  0.8960 -0.3088
12948TIP3   OH260334   5.490   1.737  13.681  0.4209 -0.1479  0.2083
12948TIP3    H160335   5.483   1.738  13.776  0.5213 -3.1792  0.3152
12948TIP3    H260336   5.569   1.788  13.662 -0.2691  1.5468  1.5981
12949TIP3   OH260337   4.770   3.163   1.065 -0.0143 -0.3643  0.2993
12949TIP3    H160338   4.769   3.073   1.098 -2.0603 -0.1912  0.8431
12949TIP3    H260339   4.734   3.156   0.976 -0.3129 -0.0862  0.3945
12950TIP3   OH260340   3.578   4.751  15.124  0.2888 -0.2783  0.3670
12950TIP3    H160341   3.624   4.729  15.044  0.8513 -0.8740  0.8429
12950TIP3    H260342   3.490   4.714  15.113 -0.4678  1.7045 -0.9579
12951TIP3   OH260343   6.699   5.260   3.453  0.8637 -0.1748 -0.2437
12951TIP3    H160344   6.661   5.258   3.541 -0.7544 -1.2043 -0.9213
12951TIP3    H260345   6.760   5.334   3.455  1.6140 -0.7623  2.0098
12952TIP3   OH260346   3.061   1.810  13.805  0.0827  0.4720  0.0032
12952TIP3    H160347   3.107   1.893  13.816  0.7176  0.2963 -1.1959
12952TIP3    H260348   3.112   1.762  13.740 -0.6011 -0.6224  0.2412
12953TIP3   OH260349   2.663   4.774   2.338 -0.3562  0.1487  0.6044
12953TIP3    H160350   2.599   4.705   2.318 -0.2183 -0.6613  2.7157
12953TIP3    H260351   2.614   4.839   2.389 -1.1940  3.1412 -3.5122
12954TIP3   OH260352   0.099   4.357   0.763 -0.1654  0.0963 -0.5849
12954TIP3    H160353   0.006   4.364   0.741 -0.0082  0.1941 -1.2389
12954TIP3    H260354   0.129   4.448   0.771 -0.1749  0.0640 -0.1351
12955TIP3   OH260355   6.428   5.024  12.819 -0.5065  0.2853  0.0558
12955TIP3    H160356   6.371   5.100  12.816  0.3422  0.9193 -0.6336
12955TIP3    H260357   6.467   5.027  12.907  0.4434  1.3651 -0.3829
12956TIP3   OH260358   5.731   3.107   1.426 -0.0862 -0.7041  0.3752
12956TIP3    H160359   5.723   3.165   1.502  1.0788  0.0608 -0.0602
12956TIP3    H260360   5.705   3.021   1.459 -0.3732 -0.2260  1.4361
12957TIP3   OH260361   4.669   0.338  14.019  0.5351 -0.2764 -0.0802
12957TIP3    H160362   4.725   0.328  13.942  0.8119  0.6276 -0.0104
12957TIP3    H260363   4.730   0.351  14.092  0.2650  1.2399 -0.0822
12958TIP3   OH260364   4.643   6.282  12.592 -0.0412  0.3753 -0.5445
12958TIP3    H160365   4.609   6.199  12.559 -0.6116  0.5644 -0.4472
12958TIP3    H260366   4.663   6.265  12.684  1.5232 -0.1436 -0.9657
12959TIP3   OH260367   1.725   3.572  10.993  0.3104 -0.6952 -0.3436
12959TIP3    H160368   1.708   3.519  11.071 -0.9521  0.2544  0.0561
12959TIP3    H260369   1.698   3.517  10.919 -4.2940  0.4367  0.1890
12960TIP3   OH260370   6.075   5.904   5.761  0.3119 -0.2388 -0.5079
12960TIP3    H160371   6.104   5.968   5.696 -1.5192  1.6755  0.4553
12960TIP3    H260372   5.995   5.941   5.797  2.0493 -0.3260  4.0341
12961TIP3   OH260373   3.012   6.660  15.364 -0.4921  0.3078 -0.4022
12961TIP3    H160374   2.979   6.616  15.442 -0.7976 -0.1653 -0.7903
12961TIP3    H260375   3.050   6.591  15.311  2.3042  0.9874  0.5588
12962TIP3   OH260376   3.499   1.016  14.504 -0.1801 -0.0799  0.1393
12962TIP3    H160377   3.518   1.082  14.438 -1.5773  0.3833  0.1683
12962TIP3    H260378   3.449   0.949  14.457 -2.1051  0.7550  0.8946
12963TIP3   OH260379   0.199   4.901   2.996  0.0414  0.4350 -0.1803
12963TIP3    H160380   0.106   4.917   2.981 -0.0694  0.6952  0.7684
12963TIP3    H260381   0.203   4.816   3.040  0.1424  1.0236  0.9861
12964TIP3   OH260382   1.695   4.080   0.317 -0.0197  0.4275 -0.5344
12964TIP3    H160383   1.647   4.083   0.234  0.1804  1.4709 -0.6272
12964TIP3    H260384   1.652   4.147   0.371 -1.4470 -1.5555  0.9476
12965TIP3   OH260385   0.158   1.542  16.640 -0.1251 -0.1391  0.0338
12965TIP3    H160386   0.085   1.604  16.645 -0.4084 -0.3480 -1.1558
12965TIP3    H260387   0.230   1.592  16.602  0.1255 -0.1199  0.5402
12966TIP3   OH260388   3.546   6.176  11.814 -0.1529  0.2632 -0.0982
12966TIP3    H160389   3.493   6.220  11.748 -1.4245  0.1511  0.8243
12966TIP3    H260390   3.512   6.207  11.898  1.4990  0.4853  0.5411
12967TIP3   OH260391   3.185   0.244  13.673 -0.0837  0.0668  0.5276
12967TIP3    H160392   3.231   0.325  13.650  0.4908 -0.4985 -0.3637
12967TIP3    H260393   3.220   0.179  13.612 -1.1268 -0.6705  0.7026
12968TIP3   OH260394   1.276   6.366   0.094 -0.2540 -0.2735 -0.1871
12968TIP3    H160395   1.210   6.434   0.105 -1.4735 -1.3465 -0.7115
12968TIP3    H260396   1.266   6.310   0.170 -0.1447 -0.6134 -0.4206
12969TIP3   OH260397   4.988   3.473  14.356  0.2241 -0.0363  0.0132
12969TIP3    H160398   5.018   3.548  14.305  0.8045  1.9926  3.0868
12969TIP3    H260399   5.069   3.431  14.386 -0.0863 -0.2845  0.5145
12970TIP3   OH260400   2.430   4.865  11.449 -0.3352  0.3850  0.1417
12970TIP3    H160401   2.400   4.776  11.471  1.6568 -0.1531  0.8952
12970TIP3    H260402   2.521   4.853  11.420 -0.0956  2.1683  0.0414
12971TIP3   OH260403   1.366   3.736  16.216  0.0416 -0.3868 -0.2612
12971TIP3    H160404   1.430   3.678  16.256 -0.0769 -0.3294  0.0142
12971TIP3    H260405   1.350   3.699  16.129  0.6457 -0.2487 -0.4335
12972TIP3   OH260406   4.549   0.802  15.502 -0.2197  0.2077 -0.2293
12972TIP3    H160407   4.642   0.781  15.493  0.3772  1.8232  1.5373
12972TIP3    H260408   4.521   0.826  15.414  1.1976  0.2688 -0.6825
12973TIP3   OH260409   2.753   3.580  11.645 -0.0936  0.4893  0.5910
12973TIP3    H160410   2.805   3.519  11.593  0.7391  2.2675 -0.7213
12973TIP3    H260411   2.663   3.552  11.631  0.2223  0.0011 -0.5782
12974TIP3   OH260412   2.321   2.255   5.320  0.4987 -0.2425  0.8058
12974TIP3    H160413   2.291   2.297   5.400 -0.3625  0.8269 -0.0408
12974TIP3    H260414   2.249   2.198   5.294 -1.3722  2.9033 -1.6468
12975TIP3   OH260415   6.688   3.949   2.129  0.5152 -0.0611  0.2186
12975TIP3    H160416   6.594   3.947   2.147  0.6489  0.5659  1.0313
12975TIP3    H260417   6.722   3.868   2.168  0.3232 -0.2827 -0.0661
12976TIP3   OH260418   3.368   4.043  11.110 -0.2137 -0.5976  0.6815
12976TIP3    H160419   3.306   4.073  11.044  1.1163 -0.3577 -0.5111
12976TIP3    H260420   3.444   4.101  11.099  0.4101 -1.1927  1.7582
12977TIP3   OH260421   2.332   4.759   4.409  0.3336  0.0168  0.7241
12977TIP3    H160422   2.279   4.679   4.411  0.3295 -0.0221 -0.3798
12977TIP3    H260423   2.422   4.728   4.421  0.3138 -0.1472  0.4751
12978TIP3   OH260424   0.340   6.830  14.808 -0.4492 -0.2897  0.2588
12978TIP3    H160425   0.246   6.812  14.809 -1.0223  2.3768  1.3846
12978TIP3    H260426   0.378   6.766  14.868 -1.6603 -0.7683  0.5325
12979TIP3   OH260427   2.734   4.795  13.929 -0.5906  0.4847  0.2797
12979TIP3    H160428   2.728   4.872  13.873  1.5976  0.8733  0.4989
12979TIP3    H260429   2.770   4.727  13.872  1.5734  0.8615  1.1132
12980TIP3   OH260430   5.218   0.155   3.281 -0.2524 -0.4447  0.1504
12980TIP3    H160431   5.240   0.096   3.354  0.6529  0.1026  0.3318
12980TIP3    H260432   5.292   0.146   3.221  0.6721  1.6577  0.9026
12981TIP3   OH260433   5.853   1.542   1.753  0.6566 -0.2057 -0.1802
12981TIP3    H160434   5.936   1.517   1.712  0.5526 -0.7430 -0.0730
12981TIP3    H260435   5.877   1.569   1.841  0.8143  0.4407 -0.4099
12982TIP3   OH260436   2.278   6.152   6.181  0.0034  0.0952 -0.2578
12982TIP3    H160437   2.195   6.162   6.134  0.3475  1.2047 -0.6471
12982TIP3    H260438   2.282   6.058   6.202 -1.8827  0.2025  0.7904
12983TIP3   OH260439   6.204   5.086  11.808  0.4553  0.1642  0.0213
12983TIP3    H160440   6.199   5.089  11.712 -0.2648 -1.4978 -0.0231
12983TIP3    H260441   6.233   4.997  11.827 -0.4479  0.1491  1.3869
12984TIP3   OH260442   6.115   6.508   6.917  0.5737 -0.4890 -0.2768
12984TIP3    H160443   6.134   6.416   6.934  2.0449 -0.8024 -3.1283
12984TIP3    H260444   6.048   6.506   6.848 -0.4250  0.6274  0.6163
12985TIP3   OH260445   6.468   3.840   3.853  0.4031  0.3951  0.0706
12985TIP3    H160446   6.411   3.772   3.887  1.3182 -0.1283  0.6242
12985TIP3    H260447   6.529   3.794   3.795  0.6169  0.8350 -0.0591
12986TIP3   OH260448   2.610   6.684  12.977  0.3659 -0.4169 -0.7096
12986TIP3    H160449   2.532   6.738  12.967 -0.3324 -1.2058  0.1534
12986TIP3    H260450   2.640   6.666  12.888 -0.3953 -0.0340 -1.0475
12987TIP3   OH260451   6.603   3.350  16.208  0.0954  0.3957 -0.0495
12987TIP3    H160452   6.691   3.388  16.196  0.9973 -1.6301 -0.2226
12987TIP3    H260453   6.620   3.258  16.230 -2.0139 -0.1702 -0.6200
12988TIP3   OH260454   2.208   1.088  11.562 -0.0062  0.0439 -0.5112
12988TIP3    H160455   2.303   1.090  11.575  0.0284 -1.3944 -0.3983
12988TIP3    H260456   2.185   0.996  11.568 -1.1518  0.1546 -2.4486
12989TIP3   OH260457   5.607   2.884   2.207  0.4638 -0.3069  0.2503
12989TIP3    H160458   5.611   2.851   2.296  1.1542  0.9453  0.6981
12989TIP3    H260459   5.638   2.811   2.153  1.1197 -0.6884  1.1343
12990TIP3   OH260460   5.291   6.839   4.749  1.1361 -0.2838 -0.6754
12990TIP3    H160461   5.230   6.913   4.743  0.5154 -0.7700 -0.4174
12990TIP3    H260462   5.246   6.767   4.705  0.8793 -1.0607  0.7806
12991TIP3   OH260463   5.477   6.521   1.169  0.1853 -0.3814 -0.0728
12991TIP3    H160464   5.521   6.489   1.248  1.4863 -2.0216 -1.3861
12991TIP3    H260465   5.526   6.600   1.145  1.1504 -1.0561 -0.3861
12992TIP3   OH260466   3.185   3.924  14.663  0.7201 -0.0539  0.4067
12992TIP3    H160467   3.228   4.007  14.641  0.8017 -0.2485 -0.1876
12992TIP3    H260468   3.092   3.944  14.660  0.5956 -0.6408 -2.6715
12993TIP3   OH260469   5.951   1.046  15.337 -0.1142  0.4163 -0.1317
12993TIP3    H160470   5.950   1.028  15.431 -0.7207 -0.3811 -0.2768
12993TIP3    H260471   5.999   0.971  15.299  0.4851  0.9376 -0.4266
12994TIP3   OH260472   2.331   1.344   2.923  0.2324  0.2896  0.6766
12994TIP3    H160473   2.380   1.315   3.000  0.1576 -0.6123  0.3912
12994TIP3    H260474   2.277   1.416   2.956  1.4712  1.0798  1.0782
12995TIP3   OH260475   5.769   5.361   0.158  0.4142  0.8071  0.0536
12995TIP3    H160476   5.793   5.453   0.151  1.6555  0.6015  1.1412
12995TIP3    H260477   5.825   5.316   0.095 -1.4628  0.9440 -1.8124
12996TIP3   OH260478   1.480   2.375   3.975 -0.3325  0.6771 -0.5059
12996TIP3    H160479   1.547   2.409   4.034 -0.6591  1.2074 -0.4324
12996TIP3    H260480   1.400   2.374   4.026 -0.4238  0.2355 -0.6543
12997TIP3   OH260481   3.616   4.725  11.553  0.1246 -0.7794  0.3192
12997TIP3    H160482   3.544   4.719  11.490 -0.1963  0.6619  0.5253
12997TIP3    H260483   3.680   4.660  11.522 -1.8902 -3.2449  1.0253
12998TIP3   OH260484   1.419   2.128  15.827  0.0787 -0.4777 -0.6112
12998TIP3    H160485   1.484   2.186  15.867 -1.1961  0.6935 -0.1097
12998TIP3    H260486   1.390   2.175  15.749  0.3575 -1.3279 -1.2309
12999TIP3   OH260487   4.985   0.899   1.194  0.0369  0.1097  0.4877
12999TIP3    H160488   4.921   0.929   1.259 -1.3821 -1.3658 -0.1615
12999TIP3    H260489   4.997   0.973   1.135 -0.6934  0.5665  0.9097
13000TIP3   OH260490   3.857   5.562  16.290 -0.2496 -0.0642  0.4456
13000TIP3    H160491   3.790   5.502  16.324  0.9290 -0.1549  2.7724
13000TIP3    H260492   3.823   5.649  16.310 -0.9692  0.0287 -1.0218
13001TIP3   OH260493   2.525   2.186  14.514 -0.4302 -0.1687 -0.4045
13001TIP3    H160494   2.551   2.116  14.574  1.7601  1.2707  0.4402
13001TIP3    H260495   2.558   2.158  14.429 -0.2703 -0.5139 -0.2325
13002TIP3   OH260496   3.592   6.793  15.204  0.3009  0.1254  0.0285
13002TIP3    H160497   3.649   6.809  15.129 -0.0525 -0.4516 -0.3725
13002TIP3    H260498   3.642   6.824  15.279  1.5523 -1.2241 -0.2050
13003TIP3   OH260499   5.061   4.208  16.708 -0.3479  0.2986  0.1200
13003TIP3    H160500   5.114   4.129  16.719 -0.9720  0.0529  1.7249
13003TIP3    H260501   4.972   4.175  16.694 -0.5585  0.7110  0.4677
13004TIP3   OH260502   4.268   4.425   3.598  0.2659 -0.6642  0.0339
13004TIP3    H160503   4.290   4.347   3.649  0.4811 -0.7738 -0.2254
13004TIP3    H260504   4.201   4.395   3.536  0.3332 -0.6372 -0.0519
13005TIP3   OH260505   2.202   4.249  13.835 -0.2763  0.2298 -0.1804
13005TIP3    H160506   2.108   4.239  13.849 -0.8713  2.8121 -1.6341
13005TIP3    H260507   2.211   4.337  13.797  2.7256  0.0374 -0.1296
13006TIP3   OH260508   4.308   1.357   1.860 -0.0606  0.4699  0.2276
13006TIP3    H160509   4.344   1.293   1.798 -0.2662 -0.5285  1.1074
13006TIP3    H260510   4.272   1.427   1.805  0.4055 -0.0447 -0.7484
13007TIP3   OH260511   0.715   1.632  12.665  0.0624  0.3702 -0.5060
13007TIP3    H160512   0.737   1.710  12.715 -0.2113  0.0468  0.1245
13007TIP3    H260513   0.639   1.595  12.709  0.1638 -0.2323 -0.8188
13008TIP3   OH260514   4.859   4.796   2.486  0.7147 -0.0878 -0.8312
13008TIP3    H160515   4.832   4.709   2.515  0.8708  0.1413  0.0170
13008TIP3    H260516   4.949   4.805   2.515  1.0834 -0.0807 -1.9249
13009TIP3   OH260517   6.010   2.068  10.462 -0.2134  0.2340 -0.0928
13009TIP3    H160518   6.008   2.163  10.467  1.9324  0.3146  0.5168
13009TIP3    H260519   6.089   2.049  10.411  0.1328 -1.2183  0.9310
13010TIP3   OH260520   3.315   3.955   1.063  0.0038  0.1525  0.3945
13010TIP3    H160521   3.410   3.951   1.058 -0.0937 -1.9203 -1.2633
13010TIP3    H260522   3.285   3.924   0.978 -2.1644  0.0631  1.1254
13011TIP3   OH260523   6.289   6.309   1.250  0.4093 -0.0163  0.6315
13011TIP3    H160524   6.348   6.295   1.176 -0.6276  0.4444 -0.3096
13011TIP3    H260525   6.330   6.380   1.300  0.2716  0.8253 -0.4279
13012TIP3   OH260526   6.364   4.802   2.992 -0.0024 -0.6629 -0.3484
13012TIP3    H160527   6.358   4.803   2.896  0.1008 -0.9790 -0.3616
13012TIP3    H260528   6.427   4.870   3.013 -0.8499  0.1641 -0.4361
13013TIP3   OH260529   0.592   3.700  11.750  0.1022  0.3621 -0.5898
13013TIP3    H160530   0.606   3.693  11.656 -0.6868  0.5836 -0.7333
13013TIP3    H260531   0.496   3.697  11.761  0.0868  1.8709  0.0577
13014TIP3   OH260532   0.181   4.829   4.138 -0.3478  0.7552  0.6672
13014TIP3    H160533   0.235   4.761   4.178 -0.2305  0.9485  0.8430
13014TIP3    H260534   0.093   4.792   4.138  0.2149 -0.8823 -2.5429
13015TIP3   OH260535   5.621   2.857   1.486  0.4181  0.1363  0.5446
13015TIP3    H160536   5.594   2.892   1.571  1.6732  0.4141  0.8551
13015TIP3    H260537   5.654   2.770   1.505  2.3461  0.8397  0.6687
13016TIP3   OH260538   5.546   0.215  15.704  0.2302 -0.9419  0.0117
13016TIP3    H160539   5.636   0.207  15.671 -0.2517 -0.3728 -1.4995
13016TIP3    H260540   5.498   0.256  15.633 -0.2984  3.0873  2.4327
13017TIP3   OH260541   1.749   5.711   1.263 -0.2087 -0.2762 -0.0405
13017TIP3    H160542   1.747   5.798   1.302 -0.9928 -0.4880  0.4374
13017TIP3    H260543   1.820   5.713   1.200  0.8310  0.2128  1.1199
13018TIP3   OH260544   2.717   3.261  11.282  0.2086  0.3616  0.3904
13018TIP3    H160545   2.689   3.201  11.212 -0.6417 -0.1723  1.1633
13018TIP3    H260546   2.796   3.303  11.247 -1.2180  1.5181 -1.6654
13019TIP3   OH260547   1.379   0.434  12.090 -0.1326 -0.7331 -0.0372
13019TIP3    H160548   1.349   0.524  12.078  0.3055 -0.7658 -1.6721
13019TIP3    H260549   1.303   0.387  12.123  0.0510  0.5127  2.3367
13020TIP3   OH260550   2.120   3.635  15.477  0.2114  0.2847 -0.3510
13020TIP3    H160551   2.125   3.706  15.540  1.5893 -0.1833  0.1177
13020TIP3    H260552   2.102   3.678  15.393 -1.3576  0.9361  0.2819
13021TIP3   OH260553   6.751   0.250   5.490  0.1977 -0.3793 -0.3016
13021TIP3    H160554   6.732   0.344   5.487 -1.3255 -0.6682 -3.6739
13021TIP3    H260555   6.716   0.222   5.575 -0.4267  1.8542  0.2550
13022TIP3   OH260556   5.020   2.188   0.960  0.3436  0.0820 -0.0900
13022TIP3    H160557   5.085   2.243   1.001 -0.6915  0.7804  0.6596
13022TIP3    H260558   4.979   2.244   0.894 -0.4427  0.1035  0.4051
13023TIP3   OH260559   2.868   5.273  15.627  0.0070 -0.2207  0.2695
13023TIP3    H160560   2.926   5.197  15.625  0.3464  0.0544 -0.4993
13023TIP3    H260561   2.925   5.348  15.610 -0.6985 -0.0332 -1.4137
13024TIP3   OH260562   2.821   4.679  11.976  0.3951  0.0198  0.9172
13024TIP3    H160563   2.755   4.635  11.923 -0.2824 -1.7382  3.0348
13024TIP3    H260564   2.772   4.714  12.050  1.4686  1.1817  1.1008
13025TIP3   OH260565   2.749   1.775   0.424  0.2695 -0.0998 -0.2622
13025TIP3    H160566   2.678   1.839   0.421 -0.1482 -0.5711 -1.7587
13025TIP3    H260567   2.818   1.814   0.371  1.1503  0.3564  1.1926
13026TIP3   OH260568   2.901   3.826   3.022 -0.3036  0.6156  0.5777
13026TIP3    H160569   2.830   3.811   3.085 -0.1996 -2.3418  0.1484
13026TIP3    H260570   2.980   3.796   3.067 -0.1038 -0.7295 -0.5964
13027TIP3   OH260571   6.747   0.010   4.793 -0.1396 -0.7935  0.8661
13027TIP3    H160572   6.802   0.070   4.741 -0.2135 -0.2409  1.4126
13027TIP3    H260573   6.810  -0.040   4.846 -0.1304 -0.4338  1.2036
13028TIP3   OH260574   3.067   0.348  15.560 -0.2904 -0.8109 -0.0144
13028TIP3    H160575   2.971   0.351  15.565 -0.2179 -0.1422  2.3199
13028TIP3    H260576   3.094   0.439  15.554  0.2047 -0.9903 -0.5983
13029TIP3   OH260577   0.254   3.619  15.901  0.0600  0.3554 -0.0373
13029TIP3    H160578   0.345   3.634  15.929 -0.7382  1.2233  2.3200
13029TIP3    H260579   0.224   3.705  15.872 -0.1003  0.1360 -0.5192
13030TIP3   OH260580   0.258   5.364  10.897 -0.8515 -0.5379 -0.3733
13030TIP3    H160581   0.348   5.334  10.894 -0.4615  0.3881  0.9761
13030TIP3    H260582   0.210   5.295  10.943 -0.4649 -0.2647  0.4611
13031TIP3   OH260583   0.246   0.930   3.795  0.4270 -0.4984 -0.5104
13031TIP3    H160584   0.227   0.859   3.856  1.2160  1.0932  1.7481
13031TIP3    H260585   0.335   0.913   3.765  0.9062 -0.1062  0.6318
13032TIP3   OH260586   1.550   6.102  11.600 -0.2267  0.0151  0.1555
13032TIP3    H160587   1.622   6.051  11.637 -0.4220  0.8060  1.6920
13032TIP3    H260588   1.472   6.064  11.638 -0.2890  2.5608  2.8681
13033TIP3   OH260589   3.487   5.206   6.299 -0.2181 -0.0647 -0.2834
13033TIP3    H160590   3.453   5.286   6.260  0.2631 -0.9211 -2.6770
13033TIP3    H260591   3.571   5.192   6.254  1.0555 -0.4927  2.0593
13034TIP3   OH260592   0.888   4.770  15.898 -0.1608  0.5772  0.4718
13034TIP3    H160593   0.809   4.784  15.951  0.4102  1.1755  1.1887
13034TIP3    H260594   0.918   4.683  15.922 -2.0242 -0.7829 -1.7358
13035TIP3   OH260595   2.465   2.184   0.386  0.4116 -0.5570 -0.5522
13035TIP3    H160596   2.408   2.246   0.432 -0.8570 -0.3493 -2.2766
13035TIP3    H260597   2.404   2.119   0.350  1.2628 -0.4667 -2.2549
13036TIP3   OH260598   5.681   3.797   3.031 -0.4653  0.1312  0.0648
13036TIP3    H160599   5.630   3.858   2.978  0.0129  0.7264  0.2727
13036TIP3    H260600   5.719   3.737   2.968  1.1035  1.5769 -0.4451
13037TIP3   OH260601   6.490   2.182  13.184 -0.2406 -0.0787  0.5778
13037TIP3    H160602   6.556   2.119  13.215 -0.2829 -0.6954 -0.5090
13037TIP3    H260603   6.522   2.207  13.097 -0.8340  0.5266  0.5352
13038TIP3   OH260604   2.874   6.268   3.786  0.0771 -0.1178  0.1805
13038TIP3    H160605   2.862   6.174   3.768 -0.1027  0.1355 -1.0772
13038TIP3    H260606   2.787   6.300   3.807  0.0629 -0.1328  0.1445
13039TIP3   OH260607   1.326   6.355  16.057 -0.0647 -0.1155 -0.0316
13039TIP3    H160608   1.314   6.370  16.151 -0.2056 -0.8817  0.0702
13039TIP3    H260609   1.337   6.443  16.021  1.7479  0.1265  0.9500
13040TIP3   OH260610   1.276   0.344   1.013  0.5758  0.1641 -0.9763
13040TIP3    H160611   1.281   0.439   1.026  0.6891  0.1151 -0.6511
13040TIP3    H260612   1.210   0.333   0.945 -0.9164  0.3774  0.3656
13041TIP3   OH260613   5.596   0.506  15.424 -0.2495  0.7889 -0.5274
13041TIP3    H160614   5.656   0.550  15.363  2.4099  0.8528  1.9464
13041TIP3    H260615   5.597   0.560  15.503 -0.0468 -1.5520  1.1774
13042TIP3   OH260616   0.699   5.842   0.456 -0.8542  0.1103 -0.5224
13042TIP3    H160617   0.605   5.833   0.441 -1.1566 -0.5463  1.4921
13042TIP3    H260618   0.736   5.757   0.433 -0.4893  0.7616 -2.6198
13043TIP3   OH260619   6.436   4.816   4.692 -0.3552  0.0191 -0.1828
13043TIP3    H160620   6.365   4.763   4.656  1.1670 -1.3752 -1.3005
13043TIP3    H260621   6.402   4.905   4.691 -1.6749 -0.4527 -1.8100
13044TIP3   OH260622   3.768   5.733   4.618 -0.2950 -0.2993  0.5674
13044TIP3    H160623   3.785   5.639   4.605 -0.0697 -0.3217  0.9770
13044TIP3    H260624   3.848   5.765   4.659  1.6247  1.0645 -3.6863
13045TIP3   OH260625   2.467   3.017  15.356 -0.2507 -0.0477 -0.2416
13045TIP3    H160626   2.396   2.971  15.401 -1.3596  1.0084 -0.8442
13045TIP3    H260627   2.529   3.040  15.425 -0.3242 -1.2547  0.2505
13046TIP3   OH260628   4.903   5.846   2.563  0.0086 -0.1543  0.2222
13046TIP3    H160629   4.907   5.754   2.589 -0.1309 -0.2324 -0.0310
13046TIP3    H260630   4.849   5.846   2.484  0.3617  0.0957 -0.0186
13047TIP3   OH260631   5.945   1.551  14.423 -0.6821 -0.2373  0.6178
13047TIP3    H160632   5.998   1.476  14.449 -0.4809 -0.1089  0.5799
13047TIP3    H260633   5.858   1.515  14.409 -0.3633 -0.6621 -0.4333
13048TIP3   OH260634   1.518   1.669  11.134  0.2166  0.2199  0.3825
13048TIP3    H160635   1.510   1.584  11.093  2.1573  0.8375 -1.4744
13048TIP3    H260636   1.597   1.707  11.095 -0.3456  2.6916  1.4462
13049TIP3   OH260637   1.482   0.402   3.338  0.7044 -0.1117  0.1261
13049TIP3    H160638   1.514   0.377   3.251  0.3176 -0.3618  0.0550
13049TIP3    H260639   1.407   0.459   3.321  1.8093  1.4601  0.2772
13050TIP3   OH260640   2.135   1.610   4.416 -0.0612  0.2342 -0.0658
13050TIP3    H160641   2.064   1.620   4.352 -0.4845 -0.5177  0.2793
13050TIP3    H260642   2.138   1.516   4.435  0.4627  0.3684  0.5622
13051TIP3   OH260643   3.905   5.630  14.733  0.3362 -0.1175 -0.4550
13051TIP3    H160644   3.914   5.685  14.655  1.7438 -0.3288 -0.4651
13051TIP3    H260645   3.880   5.691  14.803  0.6119  0.3251 -0.7384
13052TIP3   OH260646   3.266   1.919  17.006 -0.3422 -0.5430 -0.0716
13052TIP3    H160647   3.229   1.978  16.940  0.6995 -0.0683 -0.2511
13052TIP3    H260648   3.216   1.938  17.085 -0.9178 -0.3866 -0.4647
13053TIP3   OH260649   3.663   3.773  13.965  0.5058  0.6771  0.0079
13053TIP3    H160650   3.641   3.864  13.986  2.3524  1.4424 -1.0665
13053TIP3    H260651   3.726   3.780  13.893 -0.9546 -1.5709 -1.6136
13054TIP3   OH260652   3.650   0.567   5.031  0.3605  0.1067  0.3995
13054TIP3    H160653   3.744   0.580   5.021  0.5374 -0.9902  0.5680
13054TIP3    H260654   3.641   0.495   5.093 -0.5868  0.1323  0.3186
13055TIP3   OH260655   0.404   3.430   0.702  0.7768 -0.3705 -0.2785
13055TIP3    H160656   0.467   3.440   0.773  0.0933 -0.6855  0.3832
13055TIP3    H260657   0.451   3.460   0.624  0.2285  4.3505  0.8539
13056TIP3   OH260658   1.746   3.281   1.811  0.5673  0.0397  0.3558
13056TIP3    H160659   1.762   3.190   1.835  1.0259  0.5523  2.1057
13056TIP3    H260660   1.725   3.325   1.894  1.0876  1.6855 -0.3420
13057TIP3   OH260661   6.284   6.743   1.251 -0.4684 -0.4601  0.8007
13057TIP3    H160662   6.275   6.812   1.317  1.2056  1.4321 -0.7988
13057TIP3    H260663   6.352   6.775   1.192 -3.0464 -1.1464 -2.9121
13058TIP3   OH260664   2.069   4.692   0.094 -0.2388  0.0774 -0.0471
13058TIP3    H160665   2.131   4.765   0.098  1.5619 -1.3481 -0.2986
13058TIP3    H260666   2.068   4.656   0.182 -0.6997  0.0733 -0.0526
13059TIP3   OH260667   1.845   0.496  14.804 -0.1229  0.0497 -0.3372
13059TIP3    H160668   1.761   0.468  14.768 -0.8929  0.8157  0.8080
13059TIP3    H260669   1.899   0.416  14.804 -0.7043 -0.3681 -1.4221
13060TIP3   OH260670   5.116   2.222  15.802 -0.2477  0.4426  0.0041
13060TIP3    H160671   5.086   2.135  15.778  1.4608 -0.5266  1.2049
13060TIP3    H260672   5.186   2.241  15.739  1.1866 -0.2317  1.3055
13061TIP3   OH260673   2.778   0.582   4.197  0.2858  0.4143 -0.1094
13061TIP3    H160674   2.853   0.562   4.141 -0.1990 -1.7522 -0.0944
13061TIP3    H260675   2.711   0.615   4.137  0.7942  1.0847 -0.3177
13062TIP3   OH260676   6.641   4.525  13.137  0.2814 -0.0659  0.4514
13062TIP3    H160677   6.735   4.525  13.119  0.2287  1.4971  0.0881
13062TIP3    H260678   6.634   4.559  13.226 -0.0290  2.0061 -0.3089
13063TIP3   OH260679   5.553   0.614   2.336 -0.1684 -0.2887 -0.0510
13063TIP3    H160680   5.582   0.668   2.263 -1.9637 -2.9910 -3.0422
13063TIP3    H260681   5.499   0.672   2.390 -2.4252  0.9201 -3.3389
13064TIP3   OH260682   0.770   4.345  10.932  0.4177 -0.5426  0.4984
13064TIP3    H160683   0.811   4.403  10.997  0.7034 -4.5865  4.3743
13064TIP3    H260684   0.834   4.274  10.920 -2.5604 -3.6790  1.6703
13065TIP3   OH260685   0.735   3.816  14.633 -0.0883 -0.6054 -0.5847
13065TIP3    H160686   0.705   3.746  14.575  2.4819 -2.3948  0.0647
13065TIP3    H260687   0.722   3.782  14.721 -0.6346  0.6031 -0.1684
13066TIP3   OH260688   2.376   1.619   3.051 -0.4901  0.1260 -0.1039
13066TIP3    H160689   2.401   1.670   3.128  3.6130  1.5100 -2.0731
13066TIP3    H260690   2.324   1.680   2.998  1.7502  1.3363 -1.0230
13067TIP3   OH260691   3.882   5.583  11.965  0.3672 -0.5877 -0.7447
13067TIP3    H160692   3.968   5.599  12.005  0.4163 -0.2601 -0.9787
13067TIP3    H260693   3.866   5.660  11.911 -0.0768 -0.6480 -0.7040
13068TIP3   OH260694   5.132   6.828   2.424 -0.2205 -0.0046 -0.3958
13068TIP3    H160695   5.147   6.763   2.493 -0.5878 -0.8933 -1.1269
13068TIP3    H260696   5.219   6.857   2.399  0.3169 -3.0097 -2.6316
13069TIP3   OH260697   2.670   6.577  12.199  0.2638  0.1956  0.0294
13069TIP3    H160698   2.724   6.641  12.245  1.0510  0.6818 -1.4804
13069TIP3    H260699   2.703   6.579  12.109 -1.9052  0.1000 -0.8359
13070TIP3   OH260700   6.223   2.484   5.246 -0.5184  0.0869 -0.5570
13070TIP3    H160701   6.157   2.419   5.270  0.1831 -0.3401  0.2539
13070TIP3    H260702   6.248   2.460   5.156  0.5250 -1.4719  0.1153
13071TIP3   OH260703   2.786   0.279  13.835  0.3723 -0.1891  0.1440
13071TIP3    H160704   2.798   0.190  13.802 -2.3386  0.2496 -2.4463
13071TIP3    H260705   2.821   0.335  13.766 -0.2799  0.7762  0.5768
13072TIP3   OH260706   5.785   5.980  13.201  0.6971  0.0742 -0.0082
13072TIP3    H160707   5.869   6.012  13.233  0.2821  1.0552  0.1487
13072TIP3    H260708   5.793   5.982  13.106  0.9739 -0.1863  0.0094
13073TIP3   OH260709   6.219   3.517  17.030  0.1835  0.3132 -0.0415
13073TIP3    H160710   6.254   3.598  17.068  2.4842  0.0736 -1.4169
13073TIP3    H260711   6.124   3.522  17.044  0.1404  3.6334 -0.7421
13074TIP3   OH260712   2.424   3.287  13.783 -0.3459 -0.1040  0.0079
13074TIP3    H160713   2.503   3.232  13.779 -0.4979 -0.3892  0.7213
13074TIP3    H260714   2.447   3.358  13.843 -0.2247  0.5111 -0.7429
13075TIP3   OH260715   6.792   1.472  17.030 -0.4743  0.0154 -0.9018
13075TIP3    H160716   6.799   1.508  16.941 -2.1896 -0.8472 -1.4252
13075TIP3    H260717   6.848   1.395  17.029 -0.9999 -0.3702 -1.4585
13076TIP3   OH260718   5.771   2.263  16.861  0.1224 -0.2368 -0.1206
13076TIP3    H160719   5.732   2.313  16.932 -0.5823  0.3006 -0.8744
13076TIP3    H260720   5.701   2.206  16.829  0.1324  0.2634 -1.0525
13077TIP3   OH260721   5.876   5.213  11.052 -0.3299  0.3112 -0.1675
13077TIP3    H160722   5.829   5.263  11.118  0.9451 -0.7910  1.7095
13077TIP3    H260723   5.932   5.277  11.008 -0.0264  0.8538  0.9600
13078TIP3   OH260724   5.743   0.014  12.917 -0.0448 -0.9391  0.3270
13078TIP3    H160725   5.798  -0.004  12.993  0.3659  0.2228  0.3233
13078TIP3    H260726   5.747  -0.065  12.864  0.6053 -1.3234  0.9489
13079TIP3   OH260727   4.703   4.588  15.519  0.3070 -0.3613 -0.3886
13079TIP3    H160728   4.701   4.505  15.567 -2.3063  0.9776  2.1412
13079TIP3    H260729   4.667   4.567  15.433 -2.2249 -1.6228  0.8697
13080TIP3   OH260730   3.852   6.831   1.300  0.1064 -0.2961 -0.1053
13080TIP3    H160731   3.932   6.882   1.284  1.2589 -2.0497 -0.2874
13080TIP3    H260732   3.883   6.740   1.309 -1.9210 -1.0963 -0.5804
13081TIP3   OH260733   5.187   2.270  11.666  0.4393 -0.4640 -0.0998
13081TIP3    H160734   5.122   2.267  11.596 -0.0230  1.2387  0.2141
13081TIP3    H260735   5.182   2.184  11.706 -0.0318 -1.1211 -1.4903
13082TIP3   OH260736   2.984   1.104   5.452 -0.0569 -0.5858 -0.4841
13082TIP3    H160737   2.994   1.023   5.403  1.6989  0.4288 -1.9412
13082TIP3    H260738   3.067   1.150   5.439 -1.1745  1.6729 -0.1321
13083TIP3   OH260739   5.297   2.657   5.025  0.2005  0.1548 -0.1725
13083TIP3    H160740   5.230   2.592   5.003  0.9701 -0.1567 -1.6981
13083TIP3    H260741   5.378   2.606   5.032  0.4744  0.6763  0.6692
13084TIP3   OH260742   4.499   5.260  13.524  0.3072  0.2132 -0.7100
13084TIP3    H160743   4.544   5.280  13.442  1.9268  0.2802  0.1598
13084TIP3    H260744   4.537   5.177  13.553 -0.4561  0.0436 -0.1550
13085TIP3   OH260745   5.366   2.453   5.604  0.0492 -0.2041  0.1062
13085TIP3    H160746   5.455   2.441   5.570  0.5180 -2.7020  1.9492
13085TIP3    H260747   5.378   2.464   5.698 -1.5563  0.3895  0.2711
13086TIP3   OH260748   3.985   4.784  15.451 -0.8003 -0.3100 -0.0170
13086TIP3    H160749   3.917   4.725  15.417 -1.4436 -0.0896  0.8586
13086TIP3    H260750   4.043   4.800  15.376 -1.0499 -1.4384 -0.4660
13087TIP3   OH260751   4.700   4.434  14.489 -0.0179  0.3537 -0.0646
13087TIP3    H160752   4.775   4.389  14.450 -1.3264 -3.4114  1.3041
13087TIP3    H260753   4.738   4.489  14.558  1.5655 -0.3205 -0.3647
13088TIP3   OH260754   1.011   0.896  16.012  0.3556  0.2848  0.0612
13088TIP3    H160755   1.022   0.979  15.966  2.1685 -0.6462 -1.3598
13088TIP3    H260756   0.977   0.836  15.945  1.8876 -0.7925  0.1767
13089TIP3   OH260757   0.145   6.408  16.957  0.3551  0.2917 -0.4689
13089TIP3    H160758   0.051   6.412  16.972  0.0551 -2.4013 -1.0315
13089TIP3    H260759   0.184   6.448  17.034 -1.2509 -0.0562  0.5635
13090TIP3   OH260760   5.413   3.099   3.560 -0.2082  0.0934  0.3583
13090TIP3    H160761   5.356   3.038   3.513 -1.5020  0.9997  0.7042
13090TIP3    H260762   5.386   3.092   3.651  0.4791  0.2871  0.5811
13091TIP3   OH260763   2.531   0.199  13.577  0.0495  0.0624  0.4494
13091TIP3    H160764   2.593   0.228  13.511 -0.5766  0.6626  0.1153
13091TIP3    H260765   2.497   0.280  13.615 -0.3213 -0.2655  0.8218
13092TIP3   OH260766   0.252   6.442  12.278 -0.0796 -0.1577  0.6921
13092TIP3    H160767   0.218   6.498  12.207 -0.9321  0.5468  1.6173
13092TIP3    H260768   0.346   6.460  12.279  0.3198 -1.6933 -1.5363
13093TIP3   OH260769   2.895   1.820   4.668 -0.5212 -0.1122 -0.2680
13093TIP3    H160770   2.910   1.730   4.639  0.8315 -0.3608  1.1140
13093TIP3    H260771   2.934   1.825   4.755 -2.5390  1.2111  0.6618
13094TIP3   OH260772   3.560   3.941  13.578 -0.0873  0.0029 -0.2258
13094TIP3    H160773   3.648   3.935  13.540  0.2222  1.4972  0.2308
13094TIP3    H260774   3.516   3.862  13.545  1.3295 -0.6583 -0.6537
13095TIP3   OH260775   6.489   0.693   5.359 -0.2904 -0.8323 -0.0332
13095TIP3    H160776   6.421   0.757   5.341 -0.3054 -0.7825  0.1977
13095TIP3    H260777   6.473   0.665   5.449  0.1789 -0.5895  0.1301
13096TIP3   OH260778   0.775   6.374   4.274 -0.7061 -0.3334  0.0208
13096TIP3    H160779   0.786   6.417   4.189  2.7207 -0.2475  0.3463
13096TIP3    H260780   0.752   6.284   4.253 -0.6852 -0.1199 -0.9707
13097TIP3   OH260781   3.594   5.155  12.855  0.3850 -0.5285 -0.3278
13097TIP3    H160782   3.532   5.117  12.917  0.8287  0.2000  0.5952
13097TIP3    H260783   3.586   5.102  12.776 -1.9232 -0.0185 -0.4981
13098TIP3   OH260784   2.884   2.598   5.507  0.1920  0.0985  0.3971
13098TIP3    H160785   2.820   2.590   5.436  1.4585 -1.0079 -0.6868
13098TIP3    H260786   2.899   2.692   5.515 -2.6129  0.5399  1.7231
13099TIP3   OH260787   4.135   3.654  15.297 -0.2534  0.4685  0.8165
13099TIP3    H160788   4.230   3.661  15.286 -0.5259  2.5816 -0.7231
13099TIP3    H260789   4.114   3.712  15.370 -0.4165  0.4324  0.7994
13100TIP3   OH260790   5.122   2.652   1.295 -0.1514 -0.1563  0.2505
13100TIP3    H160791   5.151   2.706   1.369  0.2545 -1.7234  1.2869
13100TIP3    H260792   5.107   2.566   1.334  0.4629 -1.1317 -1.5896
13101TIP3   OH260793   3.735   5.241   4.116 -0.4814  0.3739 -0.4929
13101TIP3    H160794   3.806   5.270   4.059 -0.1334  0.7386  0.1180
13101TIP3    H260795   3.774   5.171   4.169 -1.0031 -0.4517 -1.1921
13102TIP3   OH260796   1.570   6.380  15.232 -0.0504 -0.3462  0.7364
13102TIP3    H160797   1.665   6.367  15.240  0.3700  0.2521 -2.1042
13102TIP3    H260798   1.538   6.298  15.193 -0.8890 -0.8881  2.4909
13103TIP3   OH260799   4.952   0.793  11.125 -0.0622 -0.2592 -0.1806
13103TIP3    H160800   5.023   0.842  11.083 -1.8940  3.4105  0.5218
13103TIP3    H260801   4.976   0.792  11.218  0.9773 -2.7933 -0.4046
13104TIP3   OH260802   3.094   1.136   4.963 -0.0517  0.4421  0.2090
13104TIP3    H160803   3.093   1.132   4.867 -1.4669  0.7625  0.1903
13104TIP3    H260804   3.151   1.064   4.989 -1.5313 -1.1946 -0.8294
13105TIP3   OH260805   5.845   5.108  14.483  0.2393  0.1526 -0.1217
13105TIP3    H160806   5.763   5.147  14.452  1.1394  0.2850 -2.5141
13105TIP3    H260807   5.908   5.124  14.413  1.9098 -1.3942  0.9278
13106TIP3   OH260808   6.501   2.523  15.021 -0.1531 -0.0255 -0.0275
13106TIP3    H160809   6.476   2.473  14.944  0.8974  0.3471 -0.6414
13106TIP3    H260810   6.432   2.588  15.031 -0.7641 -0.6484 -0.1023
13107TIP3   OH260811   2.415   3.870  12.195 -0.4355 -0.2353 -0.1928
13107TIP3    H160812   2.405   3.959  12.230 -1.6878 -0.2559 -0.4466
13107TIP3    H260813   2.459   3.822  12.265  1.2914  0.8438 -0.4862
13108TIP3   OH260814   3.745   2.858  15.982 -0.4605  0.3220 -0.5135
13108TIP3    H160815   3.778   2.768  15.981  0.4221  0.5955  1.2204
13108TIP3    H260816   3.762   2.890  16.070  2.1250  3.2534 -1.8609
13109TIP3   OH260817   4.615   5.444   0.022 -0.3823 -0.4420 -0.3373
13109TIP3    H160818   4.616   5.478   0.112 -0.0818  1.3053 -0.9639
13109TIP3    H260819   4.708   5.439  -0.002 -0.5120  0.8685 -1.1682
13110TIP3   OH260820   5.105   5.632  14.813  0.5020  0.4834  0.0857
13110TIP3    H160821   5.017   5.638  14.777  0.5200  0.2767  0.0098
13110TIP3    H260822   5.103   5.557  14.872  0.1749  1.4577  1.3545
13111TIP3   OH260823   0.428   3.107   4.461 -0.5763 -0.3934  0.2821
13111TIP3    H160824   0.423   3.199   4.434  0.4016 -0.1667  0.8260
13111TIP3    H260825   0.341   3.072   4.444 -0.6644  0.3595 -0.9194
13112TIP3   OH260826   0.402   4.459   2.527  0.3589 -0.5875  0.0220
13112TIP3    H160827   0.399   4.535   2.585  2.0986  0.6890 -1.4855
13112TIP3    H260828   0.432   4.388   2.583  1.1424  0.4106  0.9163
13113TIP3   OH260829   0.834   5.653  16.594  0.2502  1.0984  0.8162
13113TIP3    H160830   0.762   5.652  16.657  0.0132 -0.4968  0.5657
13113TIP3    H260831   0.878   5.569  16.607  1.6839  1.7772  0.5152
13114TIP3   OH260832   3.810   6.278   2.891  0.0698 -0.1319 -0.1194
13114TIP3    H160833   3.741   6.213   2.901  0.9539 -1.2402 -0.8632
13114TIP3    H260834   3.782   6.332   2.817 -0.1594 -0.3629 -0.2028
13115TIP3   OH260835   3.991   4.435   5.048  0.1560  0.6640  0.2316
13115TIP3    H160836   3.902   4.451   5.080 -0.3169 -0.3944 -0.5136
13115TIP3    H260837   3.982   4.433   4.952  1.2828  2.2407  0.0391
13116TIP3   OH260838   3.169   3.036   2.504  0.9975  0.0811 -0.1833
13116TIP3    H160839   3.095   3.085   2.468  1.4651  0.7563 -0.2314
13116TIP3    H260840   3.153   3.037   2.599  1.0228  0.3533 -0.1811
13117TIP3   OH260841   3.312   5.358  17.099 -0.0542  0.4069  0.0847
13117TIP3    H160842   3.297   5.265  17.079  0.8625  0.6072 -1.7287
13117TIP3    H260843   3.231   5.387  17.140  0.1243 -1.5062  1.9626
13118TIP3   OH260844   4.388   0.738  14.627 -0.4226  0.2456 -0.1477
13118TIP3    H160845   4.370   0.823  14.585  4.0833  0.5685 -1.9706
13118TIP3    H260846   4.356   0.674  14.564  0.8274  0.7149 -1.3162
13119TIP3   OH260847   2.538   4.758   0.380  0.1057 -0.0308 -0.3097
13119TIP3    H160848   2.469   4.777   0.318  0.3983 -0.2511 -0.7054
13119TIP3    H260849   2.514   4.673   0.417  0.0429  0.0026 -0.2726
13120TIP3   OH260850   5.762   5.798  11.980  0.0112  0.2856  0.5626
13120TIP3    H160851   5.812   5.729  11.937  1.2931  1.1866  0.5604
13120TIP3    H260852   5.793   5.797  12.071  0.4555  1.2049  0.4342
13121TIP3   OH260853   1.537   3.647  10.426  0.0117 -0.1539  0.1516
13121TIP3    H160854   1.478   3.577  10.453 -0.8586 -0.2623 -1.8769
13121TIP3    H260855   1.623   3.606  10.421 -0.3092 -0.8166  0.0134
13122TIP3   OH260856   0.828   0.925  11.864  0.3341 -0.4138  0.5406
13122TIP3    H160857   0.872   0.998  11.821 -0.0601 -1.2262 -1.3545
13122TIP3    H260858   0.804   0.958  11.951 -0.1060  1.8072 -0.3764
13123TIP3   OH260859   6.830   2.886   3.033 -0.3246 -0.4903 -0.1158
13123TIP3    H160860   6.797   2.821   3.094 -2.0536  0.7352  0.3459
13123TIP3    H260861   6.842   2.839   2.950 -2.1627 -1.2887  0.0279
13124TIP3   OH260862   1.585   5.890   0.472  0.3626  0.1417  0.5458
13124TIP3    H160863   1.654   5.946   0.437  0.8530 -0.6907  0.1542
13124TIP3    H260864   1.569   5.925   0.560  1.7976 -0.0884  0.9205
13125TIP3   OH260865   0.328   2.717   2.726  0.6954  0.0592 -0.5554
13125TIP3    H160866   0.400   2.735   2.666  0.6695 -1.6008 -1.1398
13125TIP3    H260867   0.349   2.767   2.805  2.1724  0.0616 -0.9260
13126TIP3   OH260868   6.413   0.460  16.524  0.3525 -0.1485 -0.5500
13126TIP3    H160869   6.444   0.425  16.440 -1.8775 -1.1001 -1.0415
13126TIP3    H260870   6.474   0.531  16.545  2.2088 -1.2691 -1.9031
13127TIP3   OH260871   0.481   5.219  12.331  0.0765 -0.5040  0.4138
13127TIP3    H160872   0.405   5.173  12.365 -2.6350  2.8117 -0.5854
13127TIP3    H260873   0.488   5.191  12.240 -0.0290 -0.7313  0.4763
13128TIP3   OH260874   1.452   5.945  11.233 -0.0332 -0.2381  0.6165
13128TIP3    H160875   1.496   5.973  11.153 -1.8358  0.2215 -0.2604
13128TIP3    H260876   1.419   5.857  11.213  0.0585 -0.3797  1.0779
13129TIP3   OH260877   1.274   3.408   4.001 -0.1048  0.0231 -0.2047
13129TIP3    H160878   1.366   3.429   3.993 -0.2872  0.2726 -2.0547
13129TIP3    H260879   1.238   3.477   4.056  0.0512  2.4724 -2.9519
13130TIP3   OH260880   6.718   2.563   4.730  0.0598  0.6058  0.1749
13130TIP3    H160881   6.733   2.639   4.786  0.9811  0.1273  0.5912
13130TIP3    H260882   6.751   2.489   4.780 -2.0093 -0.2802  0.3447
13131TIP3   OH260883   4.732   3.876   1.372  0.2674  0.4864 -0.1179
13131TIP3    H160884   4.775   3.927   1.441 -0.5176 -0.6565  1.2584
13131TIP3    H260885   4.788   3.799   1.361  0.0981  0.4025 -0.3840
13132TIP3   OH260886   0.875   0.995  16.747 -0.1231 -0.1465 -0.6498
13132TIP3    H160887   0.826   1.078  16.746 -2.1290 -1.2110  1.1493
13132TIP3    H260888   0.847   0.951  16.666  0.5799  0.6683 -1.3677
13133TIP3   OH260889   3.448   3.570   3.051 -0.6306  1.0526 -0.3099
13133TIP3    H160890   3.490   3.486   3.066  0.7082  1.6363 -0.6638
13133TIP3    H260891   3.382   3.552   2.984 -0.4939  0.2520 -0.2374
13134TIP3   OH260892   6.712   3.524  14.545  0.4292 -0.4249 -0.3268
13134TIP3    H160893   6.697   3.617  14.527 -1.5387 -0.6090  0.1679
13134TIP3    H260894   6.678   3.479  14.468  0.9840 -0.7681 -0.3771
13135TIP3   OH260895   0.161   0.819   1.100 -0.4964  0.3828 -0.3211
13135TIP3    H160896   0.115   0.903   1.093 -0.5047  0.4938  0.8407
13135TIP3    H260897   0.226   0.834   1.169 -0.2203 -0.4457 -0.4002
13136TIP3   OH260898   2.903   2.398  11.566 -0.5576 -0.3655 -0.1671
13136TIP3    H160899   2.936   2.465  11.507  0.6277 -0.9361 -0.1782
13136TIP3    H260900   2.836   2.443  11.618  4.1764  2.8429  4.2186
13137TIP3   OH260901   1.232   6.054  13.895 -0.0563 -0.5174  0.2620
13137TIP3    H160902   1.275   5.997  13.960  0.9747 -0.8555 -0.6835
13137TIP3    H260903   1.194   6.125  13.947  0.4425 -0.9702  1.2719
13138TIP3   OH260904   6.715   1.156   5.522 -0.0015  0.3956  0.3770
13138TIP3    H160905   6.799   1.117   5.496 -0.3064 -1.0418  1.4313
13138TIP3    H260906   6.654   1.128   5.453 -0.2610 -1.2405  1.2280
13139TIP3   OH260907   4.362   1.247  12.807 -0.0773 -0.3644  0.1900
13139TIP3    H160908   4.312   1.328  12.817 -1.7168 -1.1379 -1.3009
13139TIP3    H260909   4.305   1.188  12.758  2.5968 -0.9789 -2.5397
13140TIP3   OH260910   6.212   6.434   1.801 -0.5471 -0.4932  0.4016
13140TIP3    H160911   6.285   6.408   1.857 -0.9294  0.5219  1.4093
13140TIP3    H260912   6.246   6.505   1.747 -0.4365 -0.8789 -0.0477
13141TIP3   OH260913   0.557   5.755  12.718 -0.8926  0.3158  0.3378
13141TIP3    H160914   0.569   5.850  12.715 -0.4505  0.2571  0.0464
13141TIP3    H260915   0.633   5.720  12.671 -1.0591 -0.1816  0.4296
13142TIP3   OH260916   1.836   3.104  13.867  0.5650 -0.0593 -0.5730
13142TIP3    H160917   1.815   3.108  13.960  0.5861 -0.1963 -0.5620
13142TIP3    H260918   1.775   3.039  13.831  1.9318 -1.5945 -0.2642
13143TIP3   OH260919   6.810   3.361   2.660 -0.8092 -0.5627 -0.3430
13143TIP3    H160920   6.799   3.268   2.680 -4.7062  0.1594  1.7970
13143TIP3    H260921   6.731   3.384   2.612 -0.1178  1.7442 -0.4560
13144TIP3   OH260922   0.428   2.727   0.527  0.1211  0.0958  0.6852
13144TIP3    H160923   0.450   2.649   0.476 -0.1566 -0.4530  1.3826
13144TIP3    H260924   0.481   2.719   0.606  0.7849  1.0973  0.3526
13145TIP3   OH260925   4.527   4.756  14.744  0.7608 -0.0141  0.0730
13145TIP3    H160926   4.480   4.838  14.734 -1.2740 -1.0747  0.3080
13145TIP3    H260927   4.521   4.714  14.657 -0.6258 -1.0733  0.6432
13146TIP3   OH260928   1.167   0.882   3.624 -0.0737 -0.4446  0.3599
13146TIP3    H160929   1.154   0.961   3.677  3.1052  0.5689 -0.1465
13146TIP3    H260930   1.200   0.817   3.686  2.3124  0.3205  0.0035
13147TIP3   OH260931   0.538   2.132   4.551  0.1855 -0.2291  0.1975
13147TIP3    H160932   0.550   2.132   4.456 -2.1550  2.2798 -0.2414
13147TIP3    H260933   0.572   2.217   4.579 -1.3716  0.1134  1.1866
13148TIP3   OH260934   6.321   1.928  15.841  0.8266  0.1235 -0.5749
13148TIP3    H160935   6.396   1.987  15.832  1.0805  0.0321  0.7573
13148TIP3    H260936   6.323   1.900  15.932 -1.6457  1.1976 -0.1132
13149TIP3   OH260937   4.567   1.447   4.809 -0.0391  0.0026 -0.5743
13149TIP3    H160938   4.651   1.402   4.812  0.3577  0.7279 -0.8384
13149TIP3    H260939   4.519   1.413   4.885  0.7290  0.0635 -0.0559
13150TIP3   OH260940   0.828   1.499   4.748  0.2072 -0.4255  0.3281
13150TIP3    H160941   0.766   1.570   4.762  0.4072  0.1504 -1.5006
13150TIP3    H260942   0.856   1.508   4.657  0.4399 -2.6830  0.1055
13151TIP3   OH260943   2.235   0.426   2.594  0.2384  0.2389  0.2502
13151TIP3    H160944   2.252   0.517   2.619  0.5850 -0.1351  1.4656
13151TIP3    H260945   2.162   0.431   2.533 -1.6596  1.1525  2.4353
13152TIP3   OH260946   3.685   5.874  13.184  0.1958  0.4361 -0.1679
13152TIP3    H160947   3.729   5.837  13.108  2.2938  0.0799  1.1234
13152TIP3    H260948   3.716   5.965  13.188 -1.1958  0.9527 -0.6415
13153TIP3   OH260949   0.540   6.092   4.918  0.4934  0.0121  0.2265
13153TIP3    H160950   0.591   6.102   4.838  0.3515 -0.8186  0.0330
13153TIP3    H260951   0.552   6.001   4.944  0.8550  0.3579  1.3663
13154TIP3   OH260952   2.203   5.969  11.923  0.2079  0.0009 -0.0791
13154TIP3    H160953   2.254   6.034  11.874 -0.2131  2.0567  2.0408
13154TIP3    H260954   2.149   6.021  11.982 -2.2323 -2.2373 -0.1985
13155TIP3   OH260955   1.709   4.931   0.788 -0.1632  0.4667  0.4326
13155TIP3    H160956   1.717   4.943   0.883 -1.4315  0.0311  0.6068
13155TIP3    H260957   1.758   4.851   0.770 -1.7543 -0.6894  1.0703
13156TIP3   OH260958   2.400   1.747   0.540 -0.4764 -0.3377 -0.4302
13156TIP3    H160959   2.349   1.766   0.619  0.7990 -1.6093  0.7529
13156TIP3    H260960   2.475   1.698   0.571  1.2925  1.1001 -2.1833
13157TIP3   OH260961   6.013   4.158   3.305  0.7510  0.5979  0.2853
13157TIP3    H160962   5.928   4.185   3.340  0.5416  0.1539  0.1285
13157TIP3    H260963   6.032   4.075   3.349  0.2628 -0.2090 -0.9712
13158TIP3   OH260964   3.666   1.970   3.276 -0.3598 -0.2124 -0.2959
13158TIP3    H160965   3.712   1.921   3.207 -0.7090 -1.3959  0.2893
13158TIP3    H260966   3.693   1.928   3.357  1.7091  2.4874  0.5604
13159TIP3   OH260967   6.568   6.724   3.860  0.6078  0.1614  0.5666
13159TIP3    H160968   6.499   6.741   3.795  2.9444  0.0742 -2.1152
13159TIP3    H260969   6.556   6.632   3.884  0.4163 -0.1696 -0.7058
13160TIP3   OH260970   2.261   1.941  16.285 -0.5398  0.3891 -0.1843
13160TIP3    H160971   2.278   1.995  16.362 -2.3424  1.0203 -0.1754
13160TIP3    H260972   2.322   1.868  16.293  0.2212  1.1257  1.1415
13161TIP3   OH260973   6.538   1.283  11.863  0.2114  0.1708  0.3576
13161TIP3    H160974   6.488   1.241  11.934  0.5371 -0.1711  0.3836
13161TIP3    H260975   6.471   1.329  11.812  0.0162  0.7531  1.1099
13162TIP3   OH260976   5.067   2.525   5.251 -0.1549 -0.6480  0.2549
13162TIP3    H160977   5.149   2.556   5.288  1.3302 -0.7436 -2.6701
13162TIP3    H260978   5.093   2.472   5.176 -2.8881 -1.2840 -0.3580
13163TIP3   OH260979   4.133   5.207   1.632  0.2152  0.0733  0.3900
13163TIP3    H160980   4.185   5.158   1.695  0.6674  0.3062  0.1988
13163TIP3    H260981   4.058   5.150   1.614 -0.1203  0.1724  1.4234
13164TIP3   OH260982   4.001   6.076   2.976  0.1871  0.2587 -0.5251
13164TIP3    H160983   3.977   6.169   2.979  0.4330  0.2880  0.9982
13164TIP3    H260984   4.089   6.075   2.939  1.2547  0.8835  1.8699
13165TIP3   OH260985   2.785   1.299   0.516  0.7098 -0.7972  0.6945
13165TIP3    H160986   2.719   1.245   0.559  0.4079 -1.7559 -0.9046
13165TIP3    H260987   2.842   1.236   0.471  0.8710  0.1668 -0.4991
13166TIP3   OH260988   0.093   3.616  13.551  0.6795  0.0237 -0.4447
13166TIP3    H160989   0.173   3.604  13.500  1.2938  3.8287 -0.6600
13166TIP3    H260990   0.111   3.692  13.605 -2.0245 -0.4395  1.2789
13167TIP3   OH260991   1.669   4.679  16.165  0.2188 -0.1896  0.1413
13167TIP3    H160992   1.744   4.620  16.171 -1.2468 -2.1103  0.3377
13167TIP3    H260993   1.593   4.622  16.166 -1.3349  1.7684  1.4599
13168TIP3   OH260994   4.079   2.486   4.391 -0.2599 -0.5241 -0.2094
13168TIP3    H160995   4.135   2.408   4.396  0.1794 -0.2384 -0.5777
13168TIP3    H260996   4.117   2.538   4.321 -0.8051 -0.1702 -0.2474
13169TIP3   OH260997   5.867   3.799  16.310 -0.2078  0.1117 -0.0147
13169TIP3    H160998   5.861   3.704  16.294 -1.4819  0.1935 -0.1038
13169TIP3    H260999   5.879   3.836  16.222 -2.4828  0.2045 -0.3570
13170TIP3   OH261000   3.354   3.531  16.756 -0.1098 -0.1197 -0.4892
13170TIP3    H161001   3.283   3.513  16.695 -1.1718 -1.1057  0.9660
13170TIP3    H261002   3.399   3.607  16.719 -3.2676  1.9691 -0.3662
13171TIP3   OH261003   2.802   2.591   3.208 -0.0533  0.3519  0.4079
13171TIP3    H161004   2.750   2.565   3.284 -0.2603  1.4122  0.6468
13171TIP3    H261005   2.742   2.586   3.134 -0.5834  1.7362  0.7073
13172TIP3   OH261006   1.218   0.253  11.766  0.4446 -0.3170 -0.8688
13172TIP3    H161007   1.167   0.185  11.809 -0.0662  0.6105  0.0624
13172TIP3    H261008   1.156   0.325  11.753  0.4070 -0.7527 -3.7999
13173TIP3   OH261009   4.067   2.039   1.784 -0.2594 -0.2249  0.4312
13173TIP3    H161010   4.072   2.004   1.873  0.7018 -0.8529  0.1467
13173TIP3    H261011   4.155   2.027   1.748  0.0043  2.0977  0.1409
13174TIP3   OH261012   0.537   6.792   2.485  0.1607  0.1994 -0.5402
13174TIP3    H161013   0.444   6.773   2.495  0.0667  0.4275 -0.9446
13174TIP3    H261014   0.578   6.706   2.478  0.0099  0.0926 -0.1417
13175TIP3   OH261015   1.054   2.993   4.175 -0.0796  0.1203 -0.4746
13175TIP3    H161016   1.074   2.901   4.190  0.1899  0.0873 -1.0136
13175TIP3    H261017   1.138   3.032   4.152 -0.2349  0.4549 -0.4825
13176TIP3   OH261018   2.872   1.364   3.409 -0.0460 -0.1085  0.0384
13176TIP3    H161019   2.861   1.342   3.501 -0.6744  0.8604  0.2170
13176TIP3    H261020   2.953   1.414   3.405 -0.4182  0.5204  0.2035
13177TIP3   OH261021   1.777   6.359  11.003  0.2119 -0.1247  0.2160
13177TIP3    H161022   1.685   6.367  11.030  0.1758  0.8440 -0.1787
13177TIP3    H261023   1.787   6.424  10.934  1.0119 -0.7304 -0.2531
13178TIP3   OH261024   1.854   0.885   0.053 -0.1633 -0.2010  0.5475
13178TIP3    H161025   1.813   0.862   0.136 -1.3232 -2.1440 -0.4870
13178TIP3    H261026   1.792   0.855  -0.014  1.3273  0.0748 -1.0522
13179TIP3   OH261027   1.284   2.720   4.518  0.0024  0.0885  0.4223
13179TIP3    H161028   1.206   2.772   4.502  0.3897  0.8359  0.9050
13179TIP3    H261029   1.345   2.746   4.449 -0.8271 -1.9364 -1.1849
13180TIP3   OH261030   0.502   3.741  16.378 -1.2208  0.3241 -0.0602
13180TIP3    H161031   0.469   3.782  16.458  0.4467 -0.9424  1.3663
13180TIP3    H261032   0.503   3.647  16.398  0.2146  0.0639 -1.1654
13181TIP3   OH261033   6.632   3.564   0.830 -0.4566 -0.6223  0.0379
13181TIP3    H161034   6.718   3.540   0.863 -0.8465 -2.6117 -0.2667
13181TIP3    H261035   6.644   3.652   0.793  1.3561 -0.7519  0.2272
13182TIP3   OH261036   4.516   6.447   2.379  0.2345  0.4507 -0.1119
13182TIP3    H161037   4.594   6.495   2.407 -0.9096  2.7768 -0.6771
13182TIP3    H261038   4.519   6.450   2.284  0.3314 -1.0048 -0.1732
13183TIP3   OH261039   5.193   5.026   5.834  0.1846 -0.2388  0.5305
13183TIP3    H161040   5.287   5.041   5.826  0.1176  0.5702  1.1573
13183TIP3    H261041   5.170   4.980   5.754  1.0674 -0.2157  0.2452
13184TIP3   OH261042   0.578   1.458   0.251 -0.5914  0.1193  0.0759
13184TIP3    H161043   0.494   1.428   0.287 -0.5686 -0.1327 -0.0827
13184TIP3    H261044   0.592   1.404   0.173 -0.7037  0.7530 -0.3934
13185TIP3   OH261045   1.207   4.389   4.693 -0.0797 -0.2020  0.7395
13185TIP3    H161046   1.117   4.356   4.685  0.1699 -1.0069  1.1325
13185TIP3    H261047   1.254   4.318   4.738  0.9632 -0.1672 -0.2765
13186TIP3   OH261048   5.460   6.624   0.510  0.1661  0.7109  0.1544
13186TIP3    H161049   5.455   6.708   0.464  1.5885  0.8070  0.1056
13186TIP3    H261050   5.517   6.642   0.585  0.2989 -0.1478  0.2655
13187TIP3   OH261051   4.999   1.404   2.536 -0.3863 -0.2953  0.3649
13187TIP3    H161052   5.048   1.348   2.476  0.7326 -0.8411  1.7375
13187TIP3    H261053   4.925   1.435   2.484 -0.3236 -2.0042 -0.8386
13188TIP3   OH261054   3.485   3.819  14.201 -0.0673  0.4894 -0.4387
13188TIP3    H161055   3.509   3.747  14.260  0.5028 -0.3186 -1.6223
13188TIP3    H261056   3.397   3.796  14.171 -0.1271  0.5950 -0.3409
13189TIP3   OH261057   0.487   2.566  15.730 -0.4366 -0.5329 -0.3826
13189TIP3    H161058   0.560   2.517  15.769 -0.2627 -0.7771 -1.0014
13189TIP3    H261059   0.481   2.533  15.641 -3.2973 -2.7529  0.4898
13190TIP3   OH261060   2.047   1.963   1.491  0.2195 -0.2150 -0.3278
13190TIP3    H161061   1.972   1.960   1.432 -0.2196  1.2968  0.0972
13190TIP3    H261062   2.111   1.904   1.451 -1.2674 -1.7628 -0.5530
13191TIP3   OH261063   2.953   4.815   6.297 -0.2531 -0.3732 -0.5019
13191TIP3    H161064   2.989   4.811   6.208 -0.7314 -1.0574 -0.6713
13191TIP3    H261065   2.931   4.907   6.309  1.1391 -0.0092 -0.5490
13192TIP3   OH261066   3.662   0.520  11.490 -0.0845 -0.3436 -0.1299
13192TIP3    H161067   3.681   0.445  11.546  0.8888 -0.8234 -1.0543
13192TIP3    H261068   3.577   0.500  11.450 -0.9282  0.1467  1.3655
13193TIP3   OH261069   5.260   4.680   0.558 -0.3361 -0.8593  0.8326
13193TIP3    H161070   5.275   4.774   0.565  3.0273 -1.0985 -0.9986
13193TIP3    H261071   5.165   4.671   0.552 -0.7214  2.7060 -1.6830
13194TIP3   OH261072   0.942   0.320   0.338  0.2738 -0.3640 -0.1052
13194TIP3    H161073   0.955   0.415   0.335  2.4207 -0.6144 -1.9549
13194TIP3    H261074   1.019   0.287   0.385  0.3824 -1.2464 -0.8672
13195TIP3   OH261075   2.732   1.018   5.568  0.3668  0.0424 -0.1315
13195TIP3    H161076   2.669   0.964   5.520 -0.2685  0.6736 -0.0276
13195TIP3    H261077   2.789   1.054   5.500  1.6200 -1.7543 -0.0985
13196TIP3   OH261078   5.727   1.918  12.399  0.0101  0.2075 -0.2347
13196TIP3    H161079   5.722   1.825  12.423 -1.3365  0.0560 -1.0259
13196TIP3    H261080   5.777   1.919  12.318  3.3677  0.5941  1.6475
13197TIP3   OH261081   1.093   3.984   4.359 -0.2639 -1.1206  0.3430
13197TIP3    H161082   1.123   4.029   4.280 -2.0635 -0.5661 -0.0814
13197TIP3    H261083   1.166   3.992   4.420  0.9743 -1.1157 -1.0809
13198TIP3   OH261084   6.657   4.748  12.468 -0.4999  0.0944  0.8185
13198TIP3    H161085   6.656   4.834  12.510  3.1586  1.0140 -0.6340
13198TIP3    H261086   6.679   4.687  12.539  1.7330  1.0987  1.0787
13199TIP3   OH261087   1.069   3.968   1.544 -0.4213  0.2057  0.1607
13199TIP3    H161088   1.044   3.876   1.531 -0.2853  0.4144 -1.8063
13199TIP3    H261089   1.138   3.965   1.610 -1.3459 -0.9478  1.1431
13200TIP3   OH261090   6.063   6.199  10.576 -0.4615 -0.2259 -0.4137
13200TIP3    H161091   6.147   6.156  10.559 -0.3008  0.4270 -1.4074
13200TIP3    H261092   6.019   6.143  10.639 -0.2942 -1.8675 -1.6875
13201TIP3   OH261093   5.657   6.595  12.126  0.1276  0.5907 -0.6165
13201TIP3    H161094   5.718   6.525  12.102 -0.9351 -0.3646 -0.6603
13201TIP3    H261095   5.712   6.665  12.159  1.1685 -0.8773  0.9259
13202TIP3   OH261096   0.235   1.188   4.858  0.3694 -0.3274 -0.6366
13202TIP3    H161097   0.270   1.116   4.804  0.6911 -2.5093  2.2710
13202TIP3    H261098   0.300   1.200   4.927 -0.8841  1.0663  0.3604
13203TIP3   OH261099   0.925   6.197  14.732  0.1780  0.1766  0.0727
13203TIP3    H161100   0.891   6.112  14.761 -0.8830  1.0078  1.4138
13203TIP3    H261101   0.894   6.206  14.642 -2.2190  0.3642  0.8517
13204TIP3   OH261102   1.719   2.089  14.311  0.1386  0.7530  0.1544
13204TIP3    H161103   1.704   2.160  14.374 -1.4255  1.6180 -1.1178
13204TIP3    H261104   1.634   2.046  14.303  0.2604  0.7649 -1.4434
13205TIP3   OH261105   0.863   0.442  14.971  0.1419  0.9302 -0.0447
13205TIP3    H161106   0.768   0.447  14.976  0.1428  0.3470  0.6847
13205TIP3    H261107   0.894   0.486  15.051  0.4039 -0.9400  0.9393
13206TIP3   OH261108   3.865   3.857  15.303  0.3603  0.1845  0.9866
13206TIP3    H161109   3.841   3.787  15.364 -1.2906  2.3010  2.9421
13206TIP3    H261110   3.782   3.886  15.264  0.6377  2.4369  1.8908
13207TIP3   OH261111   6.360   1.090   2.010 -0.2895  0.6835 -0.0228
13207TIP3    H161112   6.329   1.019   1.954 -0.0550  0.7218 -0.2056
13207TIP3    H261113   6.316   1.076   2.094 -1.4382  1.2227 -0.5122
13208TIP3   OH261114   6.700   0.027   1.241  0.3523 -0.1940 -0.0425
13208TIP3    H161115   6.638   0.014   1.313  0.8299 -1.7058  0.1271
13208TIP3    H261116   6.730   0.118   1.251  0.8865 -0.5543  2.0608
13209TIP3   OH261117   1.015   2.618  11.631  0.0434  0.3544  0.5201
13209TIP3    H161118   0.947   2.577  11.577 -0.1538 -0.6771  1.5144
13209TIP3    H261119   1.095   2.569  11.612  0.2590  0.8108  0.2270
13210TIP3   OH261120   2.466   4.457  15.882 -1.0287 -0.1406 -0.1423
13210TIP3    H161121   2.453   4.370  15.921  0.7636 -0.5516 -0.3869
13210TIP3    H261122   2.543   4.447  15.827 -0.8451  1.6061 -0.2478
13211TIP3   OH261123   4.948   0.005  14.877  0.4103  0.5787  0.2811
13211TIP3    H161124   4.890  -0.026  14.946  1.3051  0.0670  0.8249
13211TIP3    H261125   4.895  -0.001  14.797 -0.5925  1.0604  0.8873
13212TIP3   OH261126   5.181   0.182   4.031  0.3503 -0.0609  0.7723
13212TIP3    H161127   5.112   0.120   4.006 -0.7557  0.7763  1.6118
13212TIP3    H261128   5.137   0.267   4.030  1.3968  0.4979  1.3071
13213TIP3   OH261129   0.349   5.603   1.153  0.2714 -0.0108 -0.7549
13213TIP3    H161130   0.280   5.537   1.154  0.8147 -0.5864  0.0391
13213TIP3    H261131   0.334   5.656   1.231  0.6848 -0.0973 -0.6136
13214TIP3   OH261132   2.375   6.227   0.875 -0.0660  0.0018 -0.2327
13214TIP3    H161133   2.446   6.218   0.811  0.6550  0.8026  0.4342
13214TIP3    H261134   2.295   6.226   0.822  0.0618 -4.7998 -0.7319
13215TIP3   OH261135   1.090   6.414   5.433 -0.0929 -0.7092 -0.1116
13215TIP3    H161136   1.131   6.328   5.426 -0.1780 -0.8295  0.7521
13215TIP3    H261137   1.127   6.452   5.513  1.8999  1.1296 -1.7951
13216TIP3   OH261138   1.442   6.583   2.956 -0.5508 -0.4593  0.4184
13216TIP3    H161139   1.486   6.627   2.883 -1.2989 -1.4334 -0.6661
13216TIP3    H261140   1.434   6.492   2.927 -2.6702 -0.4538  0.8323
13217TIP3   OH261141   2.943   2.395   0.403  0.2357 -0.1047 -0.0195
13217TIP3    H161142   2.885   2.319   0.391 -1.4326  1.2092 -0.5899
13217TIP3    H261143   2.884   2.470   0.404  1.9814  1.3482 -1.0216
13218TIP3   OH261144   4.573   1.772   1.194 -0.1137 -0.2975  0.4417
13218TIP3    H161145   4.653   1.734   1.157  0.4865  1.0522  0.3167
13218TIP3    H261146   4.604   1.828   1.265 -1.1048 -1.3058  1.7241
13219TIP3   OH261147   4.668   6.482  10.850  0.5547 -0.3731  0.6172
13219TIP3    H161148   4.629   6.487  10.763  2.1755  2.3678 -0.0507
13219TIP3    H261149   4.596   6.506  10.910  0.0548  0.0583 -0.1480
13220TIP3   OH261150   6.241   4.782  12.860 -0.0029 -0.0435  0.6999
13220TIP3    H161151   6.327   4.744  12.878  1.1129  1.7264 -0.5402
13220TIP3    H261152   6.245   4.871  12.896 -0.5809  0.7348 -1.0217
13221TIP3   OH261153   4.752   2.614  15.205 -0.4292 -0.6422  0.2483
13221TIP3    H161154   4.770   2.686  15.265 -1.8913 -0.7066  0.7977
13221TIP3    H261155   4.837   2.572  15.193  0.1910  0.3376  0.9971
13222TIP3   OH261156   2.381   3.238  13.136 -0.2849  0.2709  0.0481
13222TIP3    H161157   2.313   3.192  13.185 -1.4655  1.5805 -0.2987
13222TIP3    H261158   2.415   3.303  13.196  0.0606  0.1877 -0.0554
13223TIP3   OH261159   6.549   4.269   1.345 -0.5195 -0.4087  0.1321
13223TIP3    H161160   6.579   4.358   1.365  1.0683 -1.2368  1.7365
13223TIP3    H261161   6.520   4.234   1.429 -1.4891 -1.3040 -0.5509
13224TIP3   OH261162   4.657   6.497   0.124 -0.0738  0.6281 -0.4567
13224TIP3    H161163   4.592   6.543   0.071 -1.1330  1.3895  1.4026
13224TIP3    H261164   4.732   6.556   0.127  0.3922  0.1487 -1.8595
13225TIP3   OH261165   1.876   5.923  15.347 -0.2929 -0.5843 -0.5563
13225TIP3    H161166   1.950   5.863  15.352 -0.5864 -0.8695  2.7523
13225TIP3    H261167   1.902   5.987  15.281  2.9479 -0.6755  0.4371
13226TIP3   OH261168   1.099   5.102  16.526  0.3470 -0.1067  0.3181
13226TIP3    H161169   1.062   5.085  16.613 -0.0921 -1.3371 -0.0815
13226TIP3    H261170   1.181   5.052  16.526 -0.4675 -1.5370 -0.5283
13227TIP3   OH261171   2.563   1.265   2.793  0.0970  0.2146 -0.1082
13227TIP3    H161172   2.552   1.173   2.772 -0.3602  0.0147  0.9510
13227TIP3    H261173   2.483   1.289   2.840  0.9840  0.6617  1.2416
13228TIP3   OH261174   4.515   0.958  15.918  0.1754  0.2924  0.7026
13228TIP3    H161175   4.499   1.049  15.892 -0.0009 -0.1518 -0.8870
13228TIP3    H261176   4.568   0.922  15.847  4.2847  0.3317  3.4278
13229TIP3   OH261177   2.368   5.710  16.186 -0.4079  0.3433 -0.0341
13229TIP3    H161178   2.320   5.635  16.219 -2.6349  2.0079  0.7751
13229TIP3    H261179   2.344   5.714  16.093  2.0921 -1.5827 -0.8576
13230TIP3   OH261180   0.437   0.369   1.000 -0.1326 -0.0666 -0.2636
13230TIP3    H161181   0.525   0.344   1.027 -0.3002  1.4543  1.9272
13230TIP3    H261182   0.449   0.408   0.913  1.2249 -0.5673 -0.3239
13231TIP3   OH261183   2.577   2.821   2.233 -0.0773 -0.4043  0.6942
13231TIP3    H161184   2.664   2.787   2.252 -0.5228 -0.9052  1.9508
13231TIP3    H261185   2.560   2.884   2.303 -0.6780 -0.2111  0.3823
13232TIP3   OH261186   1.023   2.791  12.538 -0.4349 -0.6409 -0.2713
13232TIP3    H161187   0.929   2.792  12.517 -0.7703  0.5464  1.1007
13232TIP3    H261188   1.041   2.700  12.562 -1.8440 -0.4545  1.7687
13233TIP3   OH261189   5.683   2.341  14.295  0.1699 -0.4655 -0.0026
13233TIP3    H161190   5.778   2.332  14.309  0.2452  1.6221  1.4417
13233TIP3    H261191   5.676   2.394  14.216  0.2107 -0.6751 -0.1466
13234TIP3   OH261192   2.022   1.080   3.527  0.1336  0.3482  0.0682
13234TIP3    H161193   1.927   1.082   3.534 -0.0480 -0.7540 -1.5539
13234TIP3    H261194   2.048   1.173   3.526 -0.9846  0.6727 -0.2568
13235TIP3   OH261195   6.037   2.348   2.637  0.2583 -0.2517 -0.4741
13235TIP3    H161196   5.946   2.365   2.660  0.3860  2.2431 -1.4308
13235TIP3    H261197   6.084   2.347   2.721 -0.1746  2.3047 -0.1083
13236TIP3   OH261198   0.817   0.441  16.023 -0.5947  0.3120 -0.3340
13236TIP3    H161199   0.872   0.375  15.981 -0.5199  0.7723 -0.9985
13236TIP3    H261200   0.869   0.473  16.096 -0.6656 -0.4140  0.0361
13237TIP3   OH261201   4.003   1.000   0.404 -0.1285  0.6009  0.1762
13237TIP3    H161202   3.908   1.015   0.412 -0.2659 -0.0395 -0.2036
13237TIP3    H261203   4.014   0.965   0.316  0.1662 -1.4852  0.9967
13238TIP3   OH261204   1.286   1.399  15.784 -0.2160 -0.5590 -0.5539
13238TIP3    H161205   1.338   1.406  15.864  2.3397 -0.8579 -2.0708
13238TIP3    H261206   1.267   1.305  15.775 -1.0631 -0.4533 -0.0178
13239TIP3   OH261207   4.600   3.742   0.724  0.4542 -0.7237 -0.0989
13239TIP3    H161208   4.564   3.814   0.671  0.4754 -0.8392 -0.2695
13239TIP3    H261209   4.623   3.674   0.661 -1.5220 -1.7470  0.2025
13240TIP3   OH261210   6.378   5.123   2.177  0.1922  0.0143 -0.4845
13240TIP3    H161211   6.456   5.068   2.172  0.8891  0.9043  0.2211
13240TIP3    H261212   6.307   5.068   2.145  0.6996 -1.6270  1.0888
13241TIP3   OH261213   4.566   2.387   2.272  0.8797  0.1936 -0.6281
13241TIP3    H161214   4.546   2.475   2.240  3.4346  0.6861 -1.0538
13241TIP3    H261215   4.535   2.387   2.363  2.2374  2.1391 -0.0855
13242TIP3   OH261216   2.103   3.680   3.711 -0.4171 -0.4149  0.8727
13242TIP3    H161217   2.043   3.716   3.776 -2.3549 -2.6979  0.4880
13242TIP3    H261218   2.183   3.731   3.721 -1.7398  1.4344  2.8013
13243TIP3   OH261219   2.830   3.454   4.263 -0.0034  0.0190  0.7942
13243TIP3    H161220   2.873   3.515   4.203  0.6285 -1.9983 -0.8888
13243TIP3    H261221   2.896   3.388   4.283 -1.2734 -1.2881  0.8652
13244TIP3   OH261222   2.067   0.714  13.850  0.3973 -0.4510 -0.6106
13244TIP3    H161223   2.026   0.640  13.895  0.2328 -0.3648 -0.6175
13244TIP3    H261224   2.008   0.733  13.777 -0.9158  1.2956  0.8191
13245TIP3   OH261225   0.596   2.070  14.980  0.0291 -0.1048  0.0056
13245TIP3    H161226   0.666   2.130  15.006 -0.5948  0.1287  1.2215
13245TIP3    H261227   0.576   2.021  15.060 -2.2939  0.9536  0.1579
13246TIP3   OH261228   1.920   4.482  15.643  0.6110 -0.3753 -0.1703
13246TIP3    H161229   1.912   4.422  15.569  1.3576 -0.8418  0.1135
13246TIP3    H261230   1.840   4.469  15.694 -0.1796  0.3634 -1.1772
13247TIP3   OH261231   0.644   5.316  15.554 -0.3047 -0.0203 -0.5867
13247TIP3    H161232   0.623   5.358  15.471 -0.9646 -0.3132 -0.5745
13247TIP3    H261233   0.738   5.300  15.550 -0.5327 -1.1646 -1.8148
13248TIP3   OH261234   2.707   0.536   1.191  0.4154  0.3229 -0.2882
13248TIP3    H161235   2.639   0.508   1.130 -0.6920 -1.3038  1.5442
13248TIP3    H261236   2.768   0.587   1.138 -1.7630  1.1133 -2.1934
13249TIP3   OH261237   6.438   4.044   1.923  0.5984 -0.6498 -0.0001
13249TIP3    H161238   6.472   4.118   1.873 -1.7334 -0.9962 -2.3393
13249TIP3    H261239   6.506   3.977   1.918  1.7412  0.4794  0.0635
13250TIP3   OH261240   1.974   4.685   2.906 -0.7889 -0.0041 -0.4038
13250TIP3    H161241   1.962   4.751   2.838 -3.1339 -1.1872 -1.2641
13250TIP3    H261242   2.057   4.643   2.884 -1.2152  0.0238 -2.2518
13251TIP3   OH261243   1.536   3.242  13.624  0.1229  0.2625 -0.4348
13251TIP3    H161244   1.497   3.173  13.677  2.0030  0.8843  1.9268
13251TIP3    H261245   1.580   3.195  13.553  1.1052 -0.9920  0.9370
13252TIP3   OH261246   4.932   2.848   4.956  0.2092 -0.1453 -0.2020
13252TIP3    H161247   4.983   2.929   4.961 -1.1580  0.7224  0.2270
13252TIP3    H261248   4.865   2.866   4.890  0.6632 -1.4051 -1.0451
13253TIP3   OH261249   0.046   5.420  14.882 -0.2913  0.0733  0.1607
13253TIP3    H161250  -0.042   5.442  14.854 -0.1569  0.9112  0.3718
13253TIP3    H261251   0.103   5.463  14.818  0.0419  2.6282  2.0215
13254TIP3   OH261252   0.827   6.130   3.297 -0.2563  0.1566 -0.5543
13254TIP3    H161253   0.743   6.175   3.308 -0.3887 -0.4237  1.0684
13254TIP3    H261254   0.806   6.037   3.309  0.4939 -0.0556 -0.8635
13255TIP3   OH261255   0.080   0.542   1.048 -0.1532  0.0160 -0.4750
13255TIP3    H161256   0.100   0.505   1.134  0.1411  1.5441  0.1435
13255TIP3    H261257   0.111   0.632   1.053  0.2926 -0.0005 -2.3581
13256TIP3   OH261258   6.494   4.750  11.492 -0.1679  0.2930 -0.1470
13256TIP3    H161259   6.534   4.677  11.445  0.1793  0.2280  0.2405
13256TIP3    H261260   6.485   4.718  11.582 -0.3486  0.5970 -0.0558
13257TIP3   OH261261   5.176   0.202   1.791 -0.7480  0.2481  0.7401
13257TIP3    H161262   5.082   0.192   1.776 -1.1207  1.2373  2.2283
13257TIP3    H261263   5.210   0.238   1.709 -1.9279  1.2857  0.6764
13258TIP3   OH261264   5.284   6.452   1.740  0.1126 -0.0765 -0.2135
13258TIP3    H161265   5.295   6.408   1.824 -2.1876  1.2741  0.9005
13258TIP3    H261266   5.217   6.402   1.695 -0.6649  0.7721 -0.0266
13259TIP3   OH261267   5.210   4.868  12.669  0.3206  0.3589 -0.6168
13259TIP3    H161268   5.286   4.811  12.678 -1.2752 -2.2801 -2.3573
13259TIP3    H261269   5.245   4.957  12.673  2.9341 -0.6142  2.5577
13260TIP3   OH261270   2.371   1.691   2.349 -0.0773  0.2873  0.3447
13260TIP3    H161271   2.387   1.708   2.442  0.2516 -1.0396  0.5433
13260TIP3    H261272   2.285   1.649   2.346  0.2155 -0.3062  0.1254
13261TIP3   OH261273   6.429   3.067   4.632 -0.1978 -0.3525 -0.4336
13261TIP3    H161274   6.465   2.979   4.625 -0.7249 -0.5634 -0.5837
13261TIP3    H261275   6.377   3.078   4.553  0.1049  0.2075 -0.5562
13262TIP3   OH261276   0.473   5.647  13.867  0.6366 -0.0010 -0.0896
13262TIP3    H161277   0.476   5.648  13.771  0.8477  1.3973 -0.0910
13262TIP3    H261278   0.560   5.678  13.894 -0.5135  3.0986  0.4602
13263TIP3   OH261279   2.703   3.273  16.051  0.3197 -0.2850  0.4987
13263TIP3    H161280   2.785   3.318  16.029  0.5817 -1.2840 -0.7317
13263TIP3    H261281   2.643   3.298  15.980 -0.6505  0.8971  1.6944
13264TIP3   OH261282   3.868   0.827   2.770 -0.4393  0.1093  0.1106
13264TIP3    H161283   3.947   0.825   2.825  0.6220  0.5129 -1.3211
13264TIP3    H261284   3.809   0.886   2.816  0.2784  0.1681  0.9950
13265TIP3   OH261285   2.908   3.902   2.419  0.1090  0.2273  0.3125
13265TIP3    H161286   2.950   3.947   2.345  0.1956  0.8159  0.7175
13265TIP3    H261287   2.878   3.819   2.381  1.5606 -0.1884 -0.0072
13266TIP3   OH261288   6.443   4.961  16.768  0.3051 -0.0822  0.2069
13266TIP3    H161289   6.353   4.928  16.771 -0.6187  2.2104  2.6647
13266TIP3    H261290   6.481   4.933  16.852  0.3808  2.4305  1.1170
13267TIP3   OH261291   3.806   4.216   1.007 -0.4002  0.3647 -0.1185
13267TIP3    H161292   3.740   4.242   1.071  0.3959 -0.3778  1.0490
13267TIP3    H261293   3.866   4.290   1.004  0.2769 -0.1046  1.0203
13268TIP3   OH261294   4.856   3.906  12.253  0.1019 -0.0126  0.4491
13268TIP3    H161295   4.935   3.885  12.304  1.3520  0.8560 -1.0328
13268TIP3    H261296   4.852   3.838  12.186 -0.0983  0.2413  0.2003
13269TIP3   OH261297   3.950   3.041   2.180 -0.1583  0.3452 -0.4129
13269TIP3    H161298   4.020   2.976   2.172 -0.9799 -1.1576  2.8934
13269TIP3    H261299   3.984   3.118   2.134  2.8407 -0.9261 -0.5818
13270TIP3   OH261300   1.074   1.930   5.314  0.1651  0.0473  0.2453
13270TIP3    H161301   1.162   1.929   5.276  0.8668  1.3417  1.7130
13270TIP3    H261302   1.042   2.019   5.298  0.6433  0.7786  2.8723
13271TIP3   OH261303   3.590   6.672  11.805 -0.1829 -0.0051 -0.7532
13271TIP3    H161304   3.529   6.665  11.731  0.5954  0.5483 -1.4690
13271TIP3    H261305   3.674   6.689  11.764  0.1311  1.0919  0.3096
13272TIP3   OH261306   6.191   0.236   5.317 -0.2236 -0.3500  0.0430
13272TIP3    H161307   6.164   0.233   5.225 -2.9639 -1.0021  0.7693
13272TIP3    H261308   6.220   0.326   5.331 -1.2376  0.1795 -1.0952
13273TIP3   OH261309   4.698   4.326   3.038 -0.7604 -0.5248  0.3806
13273TIP3    H161310   4.658   4.242   3.064 -3.6580  0.4710 -0.4407
13273TIP3    H261311   4.652   4.391   3.091 -0.1743  0.7256 -0.6104
13274TIP3   OH261312   4.927   0.936  13.667  1.0083 -0.2364  0.3665
13274TIP3    H161313   4.928   0.884  13.747  1.6619 -0.3987  0.2592
13274TIP3    H261314   4.995   1.002  13.680 -0.1597  0.9226  0.7102
13275TIP3   OH261315   6.459   2.135   3.879  0.7856 -0.2081 -0.3101
13275TIP3    H161316   6.512   2.172   3.808  1.7428 -0.6222  0.1758
13275TIP3    H261317   6.372   2.174   3.866  1.1161  0.2431 -1.3054
13276TIP3   OH261318   3.779   2.976   1.234 -0.7590  0.2135 -0.1745
13276TIP3    H161319   3.768   2.994   1.140 -1.4031  0.7671  0.0005
13276TIP3    H261320   3.728   3.044   1.278 -1.1887 -0.5658  0.5656
13277TIP3   OH261321   3.773   3.257  15.654  0.3212 -0.1679  0.3146
13277TIP3    H161322   3.785   3.167  15.685 -2.8203 -1.0093 -0.5017
13277TIP3    H261323   3.861   3.288  15.635  1.4784 -3.4859 -0.4366
13278TIP3   OH261324   0.986   4.323   3.847 -0.1745 -0.0744  0.0777
13278TIP3    H161325   0.970   4.319   3.941  1.7614  0.8586  0.5042
13278TIP3    H261326   0.957   4.411   3.822 -0.3844 -0.2035 -0.1342
13279TIP3   OH261327   0.887   2.331  14.617 -0.0459 -0.2304  0.0987
13279TIP3    H161328   0.843   2.286  14.546  0.3634 -0.0065 -0.2996
13279TIP3    H261329   0.845   2.417  14.621  1.2986  0.5307 -1.2356
13280TIP3   OH261330   3.797   5.194  16.848  0.2018  0.7021 -0.4711
13280TIP3    H161331   3.874   5.137  16.855  0.4041  0.8581 -1.3161
13280TIP3    H261332   3.819   5.271  16.900 -0.8749 -0.7887  2.4232
13281TIP3   OH261333   3.792   6.836  13.437 -0.1987 -0.1483 -0.3535
13281TIP3    H161334   3.737   6.825  13.515 -2.4646  3.2255 -1.2474
13281TIP3    H261335   3.878   6.859  13.472 -0.8213  0.0403  1.1502
13282TIP3   OH261336   0.181   1.751  16.962  0.0345  0.0721  0.4364
13282TIP3    H161337   0.235   1.679  16.930 -0.4137  0.3596 -1.0509
13282TIP3    H261338   0.174   1.736  17.056  0.4943 -1.4570  0.2585
13283TIP3   OH261339   0.943   5.515  14.086 -0.5050 -0.3575 -0.3071
13283TIP3    H161340   0.957   5.608  14.100  0.9068 -0.6703  0.5780
13283TIP3    H261341   0.848   5.503  14.096 -0.6453  0.8894  0.0560
13284TIP3   OH261342   3.417   5.160  16.696  0.2122  0.0334  0.0748
13284TIP3    H161343   3.342   5.167  16.637 -0.3510  0.7103  0.8396
13284TIP3    H261344   3.431   5.250  16.728  1.9898  0.1146 -0.8176
13285TIP3   OH261345   6.003   3.792  12.542  0.0986 -0.1815  0.5898
13285TIP3    H161346   5.987   3.740  12.620 -2.0456 -0.3291  0.1194
13285TIP3    H261347   6.066   3.858  12.570  0.6280 -1.2176  1.9787
13286TIP3   OH261348   2.662   3.497   5.766 -0.1310  0.2322  0.2835
13286TIP3    H161349   2.582   3.515   5.815 -0.9336 -0.3559 -0.7719
13286TIP3    H261350   2.632   3.465   5.681  1.2251 -0.2271 -0.0552
13287TIP3   OH261351   6.141   5.543   0.291  0.2421  0.0333  0.4643
13287TIP3    H161352   6.072   5.532   0.357 -0.2361 -1.3203 -0.2298
13287TIP3    H261353   6.222   5.521   0.337  0.0030 -0.1450  0.8100
13288TIP3   OH261354   1.590   5.488  15.774  0.2088  0.6266  0.0157
13288TIP3    H161355   1.508   5.519  15.734 -0.1765  0.0155  0.3134
13288TIP3    H261356   1.573   5.489  15.868 -0.1856 -1.3902  0.0197
13289TIP3   OH261357   2.800   0.616  16.848  0.5507  0.4448  0.2582
13289TIP3    H161358   2.853   0.576  16.917  0.7941  1.1759  0.5093
13289TIP3    H261359   2.858   0.682  16.809  0.1637  0.5531 -0.1436
13290TIP3   OH261360   2.578   2.219  13.824  0.4715  0.4645  0.0606
13290TIP3    H161361   2.627   2.288  13.867  2.1360  0.0495 -1.0900
13290TIP3    H261362   2.568   2.249  13.734  0.6094 -0.4731 -0.2770
13291TIP3   OH261363   3.853   0.883  14.052 -0.1249 -0.0569  0.3432
13291TIP3    H161364   3.933   0.927  14.025  0.2815 -0.8192  0.2933
13291TIP3    H261365   3.782   0.935  14.013  0.2972  1.1561  1.1453
13292TIP3   OH261366   0.490   3.454  14.105  0.4011  0.2815  0.4973
13292TIP3    H161367   0.501   3.361  14.122  0.6161 -0.6892 -3.7925
13292TIP3    H261368   0.396   3.468  14.107  0.4258  0.3973  2.6241
13293TIP3   OH261369   4.097   1.805  13.991 -0.5131  0.0550 -0.2620
13293TIP3    H161370   4.023   1.780  14.047 -0.1089 -0.7498 -0.0801
13293TIP3    H261371   4.174   1.775  14.038 -0.1636 -0.6641 -1.2636
13294TIP3   OH261372   6.308   1.603   1.010 -0.1078  0.1706 -0.2225
13294TIP3    H161373   6.249   1.663   1.054  0.1599 -0.9774  1.8256
13294TIP3    H261374   6.394   1.621   1.048  0.1923 -0.6547 -0.4782
13295TIP3   OH261375   3.648   6.596  13.376 -0.4770  0.6743  0.4438
13295TIP3    H161376   3.690   6.551  13.450 -1.9115  0.1358  0.9829
13295TIP3    H261377   3.718   6.648  13.337  0.6116  0.0375  1.4448
13296TIP3   OH261378   1.714   1.614   2.142  0.3607 -0.1138 -0.0840
13296TIP3    H161379   1.776   1.544   2.162 -1.5531 -1.5878  1.0183
13296TIP3    H261380   1.762   1.695   2.159  1.8892 -1.1934  0.9269
13297TIP3   OH261381   3.070   6.041   2.350  0.1690  0.2696 -0.3560
13297TIP3    H161382   3.101   6.132   2.354 -1.4230  0.8629 -0.5363
13297TIP3    H261383   3.108   5.999   2.427 -1.9634  2.1187  1.8867
13298TIP3   OH261384   3.430   3.667   6.048 -0.4015  0.1885  0.4134
13298TIP3    H161385   3.340   3.641   6.068 -0.8139  2.1726  1.4271
13298TIP3    H261386   3.483   3.613   6.107 -1.0293 -0.0375  0.7942
13299TIP3   OH261387   2.649   4.849   3.917  0.2883  0.2874 -0.7599
13299TIP3    H161388   2.688   4.923   3.965 -0.6186  1.2546 -1.4758
13299TIP3    H261389   2.677   4.772   3.966  0.6940  1.1422  0.4127
13300TIP3   OH261390   0.997   0.023   2.877  0.8223 -0.1360 -0.1794
13300TIP3    H161391   1.075  -0.022   2.908  0.6123 -1.5554 -1.5806
13300TIP3    H261392   0.924  -0.031   2.908  0.3762  0.9511  0.7582
13301TIP3   OH261393   4.996   6.657  15.671  0.7190  0.1640  0.3773
13301TIP3    H161394   4.938   6.582  15.662  1.1112 -0.4761  2.6015
13301TIP3    H261395   4.991   6.701  15.586 -1.5808 -0.8710 -0.1218
13302TIP3   OH261396   5.348   2.231  15.399  0.2237 -0.1944  0.3399
13302TIP3    H161397   5.418   2.199  15.455  1.2455  3.0652  1.1672
13302TIP3    H261398   5.286   2.158  15.394  2.4757 -2.3571  1.5496
13303TIP3   OH261399   2.897   6.602  13.295  0.2920 -0.1458 -0.9997
13303TIP3    H161400   2.967   6.537  13.288  2.4125  1.4918  2.3814
13303TIP3    H261401   2.943   6.686  13.297 -1.5079  0.9615  2.3592
13304TIP3   OH261402   3.909   6.180  13.452  0.0704  0.1089 -0.1257
13304TIP3    H161403   3.822   6.141  13.444 -0.3269  0.4917  1.8888
13304TIP3    H261404   3.963   6.132  13.390 -1.2540 -1.0760 -0.3999
13305TIP3   OH261405   0.891   4.571   4.364 -0.6633 -0.0093 -0.2253
13305TIP3    H161406   0.933   4.617   4.291 -0.8762  0.3171 -0.1390
13305TIP3    H261407   0.936   4.486   4.367  0.2997  0.5080  0.1562
13306TIP3   OH261408   2.518   1.603   2.147 -0.0169 -0.1688  0.5633
13306TIP3    H161409   2.582   1.668   2.118  1.3473 -1.5928  0.2623
13306TIP3    H261410   2.482   1.639   2.228  0.1710  1.2865  0.0187
13307TIP3   OH261411   1.905   0.517   3.365  0.5566 -0.8994  0.3762
13307TIP3    H161412   1.974   0.463   3.402 -1.3028 -2.9178  1.1406
13307TIP3    H261413   1.927   0.524   3.272  1.3684 -2.1998  0.4432
13308TIP3   OH261414   2.435   5.035   3.860 -0.3234 -0.4553  0.6150
13308TIP3    H161415   2.521   4.993   3.851 -0.8001 -2.0363  2.7784
13308TIP3    H261416   2.424   5.048   3.954 -1.3264  2.2872  0.2188
13309TIP3   OH261417   5.842   4.880  16.547 -0.8087 -0.1938  0.4437
13309TIP3    H161418   5.852   4.939  16.621  0.9663  1.8118 -1.2588
13309TIP3    H261419   5.749   4.883  16.525 -1.1962 -0.1353  1.9785
13310TIP3   OH261420   5.015   0.237   4.990  0.1338 -0.3880  0.0205
13310TIP3    H161421   4.933   0.210   4.947 -0.6925  1.1440  0.5460
13310TIP3    H261422   5.072   0.262   4.918 -0.6801  0.6818 -0.2772
13311TIP3   OH261423   3.136   3.309  15.353 -0.8008 -0.0695  0.0713
13311TIP3    H161424   3.110   3.218  15.366 -2.0412 -0.2388 -2.9465
13311TIP3    H261425   3.232   3.308  15.361 -0.8923 -1.3395  1.4177
13312TIP3   OH261426   6.348   0.812   4.707 -0.4733  0.5596 -0.2408
13312TIP3    H161427   6.303   0.896   4.696  1.5008  1.4985 -1.7976
13312TIP3    H261428   6.407   0.806   4.632  0.4915 -1.5765  0.5976
13313TIP3   OH261429   1.874   6.345   1.169  0.0441  0.2662  0.1359
13313TIP3    H161430   1.797   6.297   1.198  0.4028 -1.3182 -1.3819
13313TIP3    H261431   1.847   6.386   1.087 -0.1137  2.3835  1.1703
13314TIP3   OH261432   5.640   1.668   5.477  0.4291  0.2838  0.2257
13314TIP3    H161433   5.604   1.723   5.547 -0.0577 -0.6036  0.6862
13314TIP3    H261434   5.679   1.730   5.416 -0.1382  1.1465  0.7153
13315TIP3   OH261435   1.098   2.373   5.029 -0.1488 -0.2097 -0.0651
13315TIP3    H161436   1.042   2.348   4.955 -0.1708 -1.9095  0.4877
13315TIP3    H261437   1.172   2.418   4.989  0.0618 -1.4972 -1.1866
13316TIP3   OH261438   5.327   3.569  11.338  1.0491  0.0159  0.4641
13316TIP3    H161439   5.292   3.602  11.256  1.2218 -0.8112  0.0499
13316TIP3    H261440   5.421   3.558  11.322  1.5934  2.3711  1.6113
13317TIP3   OH261441   4.074   3.381  11.303 -0.0201  0.2109  0.5111
13317TIP3    H161442   4.151   3.324  11.302  0.9170  1.2929  3.0342
13317TIP3    H261443   4.102   3.460  11.349 -2.5530  0.7618  1.2939
13318TIP3   OH261444   3.656   0.866  14.693 -0.2771 -0.5415  0.4237
13318TIP3    H161445   3.636   0.921  14.616  1.3303 -1.0243 -0.3866
13318TIP3    H261446   3.575   0.865  14.743 -0.9097  1.0551 -0.4887
13319TIP3   OH261447   5.297   0.123  15.839 -0.2181 -0.7813 -0.6025
13319TIP3    H161448   5.233   0.060  15.806 -0.1382 -1.2142  0.0577
13319TIP3    H261449   5.375   0.109  15.787 -0.7613  0.0029 -1.6716
13320TIP3   OH261450   1.365   3.095  16.287  0.6333  0.5922 -0.6552
13320TIP3    H161451   1.289   3.140  16.324  0.4652  1.1421 -1.6257
13320TIP3    H261452   1.436   3.113  16.348  1.0037  3.6841 -1.8164
13321TIP3   OH261453   1.999   5.622  10.655 -0.2775  0.9104  0.1604
13321TIP3    H161454   2.081   5.671  10.648 -0.0209  1.0031  2.7012
13321TIP3    H261455   2.027   5.533  10.677 -0.8373  0.6205 -0.2963
13322TIP3   OH261456   3.936   6.018   5.107 -0.5381  0.0474  0.0501
13322TIP3    H161457   4.006   6.035   5.045 -1.2952  0.6881 -0.6608
13322TIP3    H261458   3.866   5.979   5.054 -1.4819  1.2802  0.3165
13323TIP3   OH261459   3.695   2.501   0.852 -0.5257  0.1893 -0.0932
13323TIP3    H161460   3.609   2.517   0.813 -0.7785 -0.4795  0.1850
13323TIP3    H261461   3.676   2.474   0.942 -0.0704 -0.7384 -0.2635
13324TIP3   OH261462   1.856   0.779  11.121  0.3868  0.9438  0.0039
13324TIP3    H161463   1.784   0.737  11.075  0.2106  0.2272  0.9041
13324TIP3    H261464   1.924   0.712  11.127  0.1483  0.7836  1.3492
13325TIP3   OH261465   4.749   1.126  13.812 -0.0164  0.2080 -0.3341
13325TIP3    H161466   4.763   1.033  13.795  1.4097  0.2686  0.3742
13325TIP3    H261467   4.658   1.132  13.841  0.2957 -1.1875  1.0680
13326TIP3   OH261468   3.126   5.681   0.603 -0.6840  0.4631 -0.6100
13326TIP3    H161469   3.190   5.694   0.673  0.5024 -1.8255 -1.1497
13326TIP3    H261470   3.159   5.733   0.529  0.5086 -0.5288 -0.8144
13327TIP3   OH261471   6.558   3.601   0.082 -0.3935 -0.1032 -0.2451
13327TIP3    H161472   6.540   3.648  -0.000 -0.5801  0.4954  0.1342
13327TIP3    H261473   6.551   3.668   0.150  1.4185 -0.2499  0.1146
13328TIP3   OH261474   6.573   0.361  16.833 -0.1588  0.1928  0.2687
13328TIP3    H161475   6.540   0.433  16.780 -0.0753 -1.0031 -1.4733
13328TIP3    H261476   6.622   0.404  16.904  2.2011  1.8735 -2.1846
13329TIP3   OH261477   0.315   4.214  13.836 -0.2220  0.3565 -0.3638
13329TIP3    H161478   0.289   4.160  13.910  0.9917  0.9968  0.5624
13329TIP3    H261479   0.366   4.155  13.780 -1.2062 -0.1467 -0.7507
13330TIP3   OH261480   4.393   1.050  13.039 -0.0529  0.3329 -0.4450
13330TIP3    H161481   4.346   1.127  13.007  0.1022 -0.0211 -1.6036
13330TIP3    H261482   4.396   0.992  12.963  1.0211 -0.2409  0.0213
13331TIP3   OH261483   2.919   6.746   3.874 -0.2487  0.1830 -0.0248
13331TIP3    H161484   2.833   6.725   3.910 -0.8311 -1.0240 -1.9580
13331TIP3    H261485   2.979   6.684   3.915 -0.4697  0.3695  0.5850
13332TIP3   OH261486   1.256   4.651   1.188 -0.6049  0.5647 -0.2341
13332TIP3    H161487   1.201   4.703   1.129 -1.0175 -1.0670 -1.3833
13332TIP3    H261488   1.333   4.630   1.135  0.0198  0.8297  0.5547
13333TIP3   OH261489   6.203   6.460  14.836 -0.2995 -0.1207  0.1208
13333TIP3    H161490   6.286   6.502  14.816  0.6122 -1.0449  1.7161
13333TIP3    H261491   6.215   6.426  14.925 -1.8063 -1.7036 -0.2397
13334TIP3   OH261492   3.575   2.677  12.786 -0.1418  0.4443  0.1184
13334TIP3    H161493   3.552   2.650  12.697 -1.4051  0.6229  0.3740
13334TIP3    H261494   3.670   2.666  12.790 -0.1140  0.0331 -1.1140
13335TIP3   OH261495   1.716   1.298   5.259  0.1608 -0.2972  0.6109
13335TIP3    H161496   1.778   1.244   5.210 -0.1031 -0.5479  0.5501
13335TIP3    H261497   1.703   1.251   5.342 -0.9552 -0.9332  0.0933
13336TIP3   OH261498   1.464   3.291   1.648 -0.3117  0.4030 -0.7625
13336TIP3    H161499   1.412   3.243   1.712  0.1625  1.5686  0.5403
13336TIP3    H261500   1.550   3.247   1.650 -0.2885  0.4569 -0.5803
13337TIP3   OH261501   0.544   6.019  12.969  0.2402 -0.2130  0.0119
13337TIP3    H161502   0.635   5.989  12.969  0.1073 -0.7786 -2.5242
13337TIP3    H261503   0.550   6.114  12.956  0.4605 -0.2856 -0.4199
13338TIP3   OH261504   1.082   5.536   5.604  0.2782  0.1956  0.4569
13338TIP3    H161505   1.072   5.506   5.513  0.2121 -0.2114  0.6003
13338TIP3    H261506   1.037   5.621   5.606  1.4655  0.8841 -0.2403
13339TIP3   OH261507   2.697   5.373  17.068  0.0375  0.4614 -0.7126
13339TIP3    H161508   2.695   5.429  16.990  0.0780 -0.4323 -1.3751
13339TIP3    H261509   2.621   5.315  17.057 -0.7870  1.2461  0.6313
13340TIP3   OH261510   5.404   2.114  13.540 -0.2249  0.2580 -0.2128
13340TIP3    H161511   5.389   2.205  13.514 -1.4609  0.4052  0.9140
13340TIP3    H261512   5.421   2.069  13.457 -2.3024  1.0296 -1.1544
13341TIP3   OH261513   0.159   2.538   4.799  0.2534  0.0751  0.2252
13341TIP3    H161514   0.215   2.599   4.848  0.3287  0.6804 -0.5906
13341TIP3    H261515   0.163   2.569   4.708  0.9065 -1.5860 -0.3692
13342TIP3   OH261516   4.611   0.908   4.760  0.0120  0.1028 -0.3512
13342TIP3    H161517   4.672   0.958   4.706 -0.6926  0.8825 -0.4574
13342TIP3    H261518   4.587   0.968   4.831 -2.3130  0.6914 -1.5080
13343TIP3   OH261519   1.143   1.447   5.451  0.4979  0.3358  0.4039
13343TIP3    H161520   1.067   1.498   5.424 -0.1525  0.0702  1.6723
13343TIP3    H261521   1.186   1.501   5.517 -0.2437 -0.7547  1.8236
13344TIP3   OH261522   5.345   4.206  11.319 -0.0014 -0.2468 -0.5583
13344TIP3    H161523   5.306   4.250  11.243 -0.0116  1.0113  0.1503
13344TIP3    H261524   5.412   4.267  11.350 -0.6127 -0.3186  0.9740
13345TIP3   OH261525   2.733   1.893   0.008 -0.0343 -0.1751  0.0431
13345TIP3    H161526   2.750   1.982  -0.021 -0.2487  0.0878  0.7003
13345TIP3    H261527   2.638   1.887   0.013 -0.0231 -0.4694 -0.1006
13346TIP3   OH261528   6.203   3.812   2.048  0.2898 -0.3753 -0.0231
13346TIP3    H161529   6.249   3.885   2.090  0.5083 -1.5585  1.9059
13346TIP3    H261530   6.133   3.789   2.110  0.9201 -2.5021 -0.0322
13347TIP3   OH261531   4.691   4.173  14.910 -0.7852  0.1788  0.4513
13347TIP3    H161532   4.738   4.090  14.912 -0.7131  0.2253  0.7691
13347TIP3    H261533   4.628   4.167  14.981 -0.8597  0.3497  0.4014
13348TIP3   OH261534   5.734   6.259  11.245 -0.0613  0.5305  0.9245
13348TIP3    H161535   5.813   6.220  11.207  0.4561  1.7727  0.6508
13348TIP3    H261536   5.663   6.229  11.189  0.0647 -1.3443  1.7097
13349TIP3   OH261537   1.523   2.282   4.870 -0.2816  0.2341 -0.7084
13349TIP3    H161538   1.517   2.327   4.785 -2.1507 -0.7020 -1.1247
13349TIP3    H261539   1.448   2.224   4.871  0.1034 -0.2846  1.3325
13350TIP3   OH261540   1.316   3.685  12.870  0.4621 -0.3344  0.2259
13350TIP3    H161541   1.400   3.717  12.904 -0.1192  1.5353 -0.0021
13350TIP3    H261542   1.322   3.590  12.878  1.4148 -0.1322  3.0961
13351TIP3   OH261543   0.432   0.688   5.221 -0.0648 -0.5315 -0.0458
13351TIP3    H161544   0.460   0.608   5.265  1.6757  0.6179  1.0561
13351TIP3    H261545   0.460   0.676   5.130 -2.2131 -2.2302 -0.5613
13352TIP3   OH261546   1.734   5.657   4.516  0.0945  0.1559  0.0006
13352TIP3    H161547   1.778   5.737   4.544 -0.2540 -0.2857  1.9823
13352TIP3    H261548   1.805   5.594   4.503  0.2512  0.2560  0.3438
13353TIP3   OH261549   2.198   3.063  13.282  0.0375 -0.4318 -0.1571
13353TIP3    H161550   2.145   3.117  13.341  3.4243  0.3707  2.4595
13353TIP3    H261551   2.183   2.974  13.312 -0.4471 -0.3155 -0.0283
13354TIP3   OH261552   2.210   6.046  14.083 -0.3095  0.4453 -0.1843
13354TIP3    H161553   2.248   5.958  14.072 -1.1385  0.0085  0.3511
13354TIP3    H261554   2.286   6.104  14.088  0.2598  0.0807 -2.8913
13355TIP3   OH261555   1.827   3.177  12.062 -0.0630 -0.0211 -0.4134
13355TIP3    H161556   1.869   3.102  12.018 -0.3619 -0.6591  0.3581
13355TIP3    H261557   1.796   3.141  12.145 -0.1660  0.9840 -0.0045
13356TIP3   OH261558   3.084   0.037   5.462 -0.0455 -0.4407 -0.3850
13356TIP3    H161559   3.005   0.039   5.407 -0.5174 -1.1776  0.2426
13356TIP3    H261560   3.056  -0.007   5.542  1.7120 -3.5625 -1.3164
13357TIP3   OH261561   4.215   2.231  13.847  0.2778  0.2488  0.3002
13357TIP3    H161562   4.253   2.154  13.802  1.2798 -0.6013  2.4626
13357TIP3    H261563   4.122   2.211  13.855  0.2753 -0.0661 -0.4391
13358TIP3   OH261564   3.982   0.399   4.569 -0.2939  0.0055 -0.0237
13358TIP3    H161565   4.076   0.392   4.584  0.1238  2.4163 -0.9929
13358TIP3    H261566   3.962   0.332   4.504  0.6139 -0.9290  0.6435
13359TIP3   OH261567   4.375   5.979  11.856 -0.5156  0.1440  0.5749
13359TIP3    H161568   4.399   5.908  11.797 -0.5125  0.9956 -0.4887
13359TIP3    H261569   4.457   6.027  11.870 -1.1951  2.3685 -2.1281
13360TIP3   OH261570   0.818   2.872   5.171  0.3170 -0.2814 -0.5490
13360TIP3    H161571   0.865   2.796   5.137 -0.5451 -0.4690 -1.3616
13360TIP3    H261572   0.797   2.850   5.261  1.9606 -0.1023 -0.0825
13361TIP3   OH261573   4.628   3.768  13.670 -0.4320 -0.1507 -0.2801
13361TIP3    H161574   4.610   3.676  13.687  1.5728 -0.2743  1.6604
13361TIP3    H261575   4.697   3.767  13.603  0.0343 -0.1081  0.1915
13362TIP3   OH261576   0.131   0.578  13.552 -0.2372 -0.9092  0.5466
13362TIP3    H161577   0.106   0.493  13.590 -1.3568 -0.4685  0.8408
13362TIP3    H261578   0.128   0.563  13.458 -3.6687 -0.4161  0.4523
13363TIP3   OH261579   4.216   0.143  15.711  0.3965 -0.9208  0.1836
13363TIP3    H161580   4.295   0.180  15.672  1.2103  0.0688  2.5544
13363TIP3    H261581   4.144   0.193  15.673  1.2983  1.3903  1.3391
13364TIP3   OH261582   5.405   2.774   2.904  0.0966  0.0310  0.8937
13364TIP3    H161583   5.498   2.759   2.888  0.4342  0.6953  2.1269
13364TIP3    H261584   5.403   2.830   2.982 -1.3072  0.7041  0.4061
13365TIP3   OH261585   6.249   3.078   3.250 -0.0368  0.4071  0.0709
13365TIP3    H161586   6.231   3.003   3.193 -1.1786 -1.6693  2.8911
13365TIP3    H261587   6.178   3.139   3.233 -0.3568 -0.1616 -0.7029
13366TIP3   OH261588   2.579   5.740   2.803  0.5573  0.1385 -0.8930
13366TIP3    H161589   2.674   5.750   2.809  0.7164 -1.4182 -0.4433
13366TIP3    H261590   2.566   5.654   2.764 -0.6684 -0.4401  0.6808
13367TIP3   OH261591   0.225   4.196  14.414  0.1979  0.0608 -0.3603
13367TIP3    H161592   0.187   4.250  14.483  1.0045  0.6833 -0.3803
13367TIP3    H261593   0.183   4.111  14.424  0.9541 -0.1570  1.5094
13368TIP3   OH261594   3.447   2.871  12.972 -0.6330 -0.1957  0.0826
13368TIP3    H161595   3.481   2.801  12.915 -0.3273 -0.1393  0.1949
13368TIP3    H261596   3.470   2.952  12.925  1.6631 -0.0312  1.3452
13369TIP3   OH261597   4.346   4.632  14.509 -0.2355 -0.1669 -0.5964
13369TIP3    H161598   4.295   4.566  14.556 -1.7989  0.7064 -0.9846
13369TIP3    H261599   4.285   4.667  14.444  1.0724  0.4964 -1.5077
13370TIP3   OH261600   2.396   2.896   2.715  0.5987 -0.1251 -0.6430
13370TIP3    H161601   2.329   2.964   2.728 -0.0588 -1.0447  1.2948
13370TIP3    H261602   2.467   2.921   2.775  1.5190  0.2344 -1.8577
13371TIP3   OH261603   0.830   4.237   3.639 -0.0927 -0.3090  0.0984
13371TIP3    H161604   0.889   4.272   3.705 -0.2939 -0.7867  0.5367
13371TIP3    H261605   0.809   4.312   3.584  0.0659  0.0995  0.5848
13372TIP3   OH261606   1.931   6.738  12.222 -0.2156  0.4556 -0.5070
13372TIP3    H161607   1.967   6.772  12.140 -0.7485  2.6623  0.1233
13372TIP3    H261608   1.868   6.671  12.194  0.3591  0.4526 -1.8495
13373TIP3   OH261609   1.159   5.009  12.636  0.7820  0.3292  0.6043
13373TIP3    H161610   1.224   5.079  12.639  0.3917  0.6919  0.8714
13373TIP3    H261611   1.130   5.000  12.727 -1.6736  2.2405  0.1322
13374TIP3   OH261612   6.852   5.367   5.252 -0.2658 -0.0357  0.4274
13374TIP3    H161613   6.807   5.447   5.279 -0.8351 -0.3588  0.4476
13374TIP3    H261614   6.920   5.396   5.191 -1.5326  0.3105 -0.8586
13375TIP3   OH261615   6.266   2.003  13.255  1.0020 -0.1461  0.2608
13375TIP3    H161616   6.213   2.038  13.326 -0.3078 -1.0947 -0.2176
13375TIP3    H261617   6.329   2.073  13.235 -0.9074  1.5679 -0.0348
13376TIP3   OH261618   4.265   5.803  16.600 -0.4537  0.1254 -0.3574
13376TIP3    H161619   4.353   5.782  16.632 -0.8838  0.8386  1.3947
13376TIP3    H261620   4.229   5.719  16.574  0.7211 -0.1828 -1.0915
13377TIP3   OH261621   4.546   6.203   0.165  0.5083 -0.2603 -0.3847
13377TIP3    H161622   4.601   6.127   0.184  0.4333 -1.7886 -5.1081
13377TIP3    H261623   4.586   6.244   0.089 -1.6400  2.1823 -0.3603
13378TIP3   OH261624   6.673   5.925   6.376  0.1748  0.2552  0.4577
13378TIP3    H161625   6.706   5.945   6.463 -0.5975  0.4028  0.7308
13378TIP3    H261626   6.579   5.909   6.389 -0.3229  2.0657 -0.5940
13379TIP3   OH261627   4.969   0.130  15.727 -0.3541  0.1510 -0.0595
13379TIP3    H161628   4.911   0.175  15.666  0.6502  0.4001 -0.8651
13379TIP3    H261629   4.984   0.044  15.687 -1.4995 -0.5754  0.9954
13380TIP3   OH261630   2.886   4.344   2.262 -0.6569 -0.4023  0.2320
13380TIP3    H161631   2.978   4.370   2.258 -0.8742  0.4300  0.4683
13380TIP3    H261632   2.886   4.264   2.314  0.2406 -1.9731 -2.0009
13381TIP3   OH261633   0.601   6.392   6.476 -0.5529  0.4985 -0.0357
13381TIP3    H161634   0.516   6.384   6.431 -0.8092  1.8599  0.1542
13381TIP3    H261635   0.597   6.325   6.545 -1.8911  1.1703  0.5890
13382TIP3   OH261636   4.533   5.122  11.154 -0.1942 -0.8805 -0.2984
13382TIP3    H161637   4.550   5.028  11.147  0.0908 -0.8418 -0.1219
13382TIP3    H261638   4.585   5.151  11.228  0.4797 -0.4070 -0.9418
13383TIP3   OH261639   4.610   2.980   4.016 -0.1838  1.4344  0.1915
13383TIP3    H161640   4.696   2.939   4.021 -0.5992  0.2317 -1.6334
13383TIP3    H261641   4.607   3.039   4.092  1.2290 -0.3888  1.7650
13384TIP3   OH261642   5.746   2.803  10.383 -0.1475 -0.9156  0.1779
13384TIP3    H161643   5.720   2.808  10.475 -0.0686 -1.5541  0.2398
13384TIP3    H261644   5.664   2.811  10.334 -0.1537 -0.2438  0.2897
13385TIP3   OH261645   2.350   1.018   6.528  0.8003 -0.5546  0.0630
13385TIP3    H161646   2.306   0.941   6.566 -3.3789  1.1806 -0.6953
13385TIP3    H261647   2.349   1.083   6.599  2.1179 -0.3904 -0.0435
13386TIP3   OH261648   4.333   4.718  11.624 -0.0431  0.2512 -0.1136
13386TIP3    H161649   4.333   4.704  11.718 -1.2947 -2.8508 -0.4612
13386TIP3    H261650   4.247   4.756  11.606 -1.1088 -2.0906 -0.2589
13387TIP3   OH261651   2.757   1.256  13.536 -0.8161 -0.5816 -0.1107
13387TIP3    H161652   2.719   1.268  13.624 -0.3502 -1.2608  0.1869
13387TIP3    H261653   2.818   1.329  13.527 -0.7778 -0.5776  0.1749
13388TIP3   OH261654   1.642   6.739  16.567  0.3652  0.0207  0.4632
13388TIP3    H161655   1.616   6.809  16.508  0.7721 -1.1901 -1.2306
13388TIP3    H261656   1.735   6.726  16.549  0.4126 -0.6026  1.1151
13389TIP3   OH261657   0.819   1.230   4.367 -0.4741 -0.0032  0.5653
13389TIP3    H161658   0.860   1.303   4.321 -0.0356 -0.8068 -0.3667
13389TIP3    H261659   0.744   1.268   4.412 -0.0603  1.0708  0.3662
13390TIP3   OH261660   5.560   0.287  12.215  0.2083 -0.1602 -0.7497
13390TIP3    H161661   5.530   0.265  12.303 -0.4682 -1.8703 -1.3635
13390TIP3    H261662   5.652   0.262  12.214  0.1260 -0.4711 -0.6312
13391TIP3   OH261663   1.579   2.580  16.163 -0.5034 -0.0145 -0.5671
13391TIP3    H161664   1.656   2.523  16.167  0.4729  1.3282  0.7897
13391TIP3    H261665   1.505   2.520  16.150  0.5842 -1.4747 -0.2355
13392TIP3   OH261666   3.875   2.087   5.376 -1.4503  0.4681 -0.0356
13392TIP3    H161667   3.862   2.028   5.302 -1.1988 -0.2875  0.5014
13392TIP3    H261668   3.958   2.058   5.415  0.6614  3.4574 -1.8333
13393TIP3   OH261669   4.786   5.010   5.960  0.3832 -0.1184  0.0405
13393TIP3    H161670   4.837   4.963   5.894  1.5896  0.3376  0.6179
13393TIP3    H261671   4.851   5.049   6.018 -0.6421 -1.0562  1.9159
13394TIP3   OH261672   3.835   3.638  12.323 -0.5233 -0.5040 -0.1154
13394TIP3    H161673   3.888   3.655  12.401 -0.1793 -0.6389 -0.3183
13394TIP3    H261674   3.797   3.723  12.301  0.2426 -0.2337 -0.4297
13395TIP3   OH261675   3.964   0.079  16.375  0.7084  0.5095 -0.6196
13395TIP3    H161676   4.020   0.046  16.305  0.7739 -2.0785  0.5554
13395TIP3    H261677   3.899   0.010  16.388 -0.2933  1.6643  0.8037
13396TIP3   OH261678   1.755   2.581  17.077  0.3623  0.0307 -0.5943
13396TIP3    H161679   1.675   2.529  17.089  0.6551 -0.3478 -0.2651
13396TIP3    H261680   1.784   2.602  17.165  0.5613  0.2774 -0.7169
13397TIP3   OH261681   2.509   3.815   1.627 -0.4520 -0.0042  0.7217
13397TIP3    H161682   2.459   3.879   1.577 -3.5438 -1.7218  1.4044
13397TIP3    H261683   2.547   3.758   1.560 -0.5468  0.5106  0.2193
13398TIP3   OH261684   0.345   0.378   5.784  0.1126  0.1065  0.3111
13398TIP3    H161685   0.381   0.457   5.743  2.0291 -0.8026  0.1456
13398TIP3    H261686   0.283   0.343   5.720  1.4898 -0.1389 -0.9292
13399TIP3   OH261687   2.334   5.604  15.907 -0.3951  0.0471  0.7184
13399TIP3    H161688   2.342   5.563  15.821 -0.6382  0.7680  0.3391
13399TIP3    H261689   2.251   5.571  15.942 -0.1471 -0.4818  0.8081
13400TIP3   OH261690   6.291   0.085  12.941 -0.3687  0.3077 -0.7210
13400TIP3    H161691   6.205   0.085  12.900 -0.6805 -0.3822 -0.0910
13400TIP3    H261692   6.347   0.039  12.879 -0.3239  1.2076 -1.3696
13401TIP3   OH261693   4.126   2.675   1.809 -0.1305  0.1115 -0.0828
13401TIP3    H161694   4.184   2.607   1.775  0.3583  0.5507 -0.1285
13401TIP3    H261695   4.090   2.717   1.731 -2.9467 -2.1373 -0.1813
13402TIP3   OH261696   1.470   3.321   2.857 -0.3585 -0.2569 -0.2612
13402TIP3    H161697   1.472   3.276   2.942  0.8206 -0.1086 -0.1855
13402TIP3    H261698   1.528   3.270   2.801 -0.2156  0.2995 -0.6332
13403TIP3   OH261699   4.688   2.058  11.978  0.1076 -0.8290  0.3387
13403TIP3    H161700   4.743   2.033  12.053  0.0831 -0.0448  0.6275
13403TIP3    H261701   4.639   1.979  11.956  0.4643 -1.1960  0.8525
13404TIP3   OH261702   4.455   3.634  15.973  0.1546 -0.1527 -0.7429
13404TIP3    H161703   4.433   3.542  15.991  1.4310 -0.4312 -0.5285
13404TIP3    H261704   4.518   3.631  15.902  0.8901  0.4918 -0.1434
13405TIP3   OH261705   6.632   2.822  15.633  0.5946  0.0963 -0.0531
13405TIP3    H161706   6.677   2.738  15.646 -0.1253 -0.1027  1.2865
13405TIP3    H261707   6.671   2.880  15.698 -1.9598 -0.4547  2.1131
13406TIP3   OH261708   6.660   6.694  16.832  0.4127 -0.3911  0.0037
13406TIP3    H161709   6.692   6.770  16.881 -0.4238 -0.0157  0.0016
13406TIP3    H261710   6.664   6.721  16.741 -3.4936  1.2649  0.0924
13407TIP3   OH261711   4.148   4.983   0.983  0.0737  0.2150 -0.6382
13407TIP3    H161712   4.197   4.919   1.035 -0.2471 -0.6149 -1.3456
13407TIP3    H261713   4.145   4.946   0.895 -0.6214  0.9313 -0.9293
13408TIP3   OH261714   1.719   2.058  13.309 -0.8888  0.1157  0.2876
13408TIP3    H161715   1.671   2.012  13.377  0.4074 -0.5443  0.7960
13408TIP3    H261716   1.772   2.123  13.356  0.0261 -0.3506 -0.0648
13409TIP3   OH261717   0.562   4.467  13.777 -0.6574 -0.8125  0.3984
13409TIP3    H161718   0.656   4.473  13.763 -0.6437  0.4114  0.8978
13409TIP3    H261719   0.531   4.409  13.707  0.1087  0.8530 -1.4062
13410TIP3   OH261720   2.583   4.299  12.425  0.8390 -0.0731  0.1295
13410TIP3    H161721   2.547   4.293  12.514 -0.1539  1.2376 -0.1435
13410TIP3    H261722   2.513   4.266  12.369 -0.5211  3.4363 -0.4931
13411TIP3   OH261723   2.729   6.314   1.190 -0.0036 -0.3909 -0.2032
13411TIP3    H161724   2.752   6.226   1.221  0.0692 -0.0587  0.7090
13411TIP3    H261725   2.633   6.316   1.192  0.0217  0.1060  1.4077
13412TIP3   OH261726   2.175   0.194   1.904  0.4258  1.1125 -0.2798
13412TIP3    H161727   2.212   0.188   1.993 -1.2286  0.2700  0.3954
13412TIP3    H261728   2.205   0.114   1.861 -0.4109  0.5044  0.2196
13413TIP3   OH261729   1.500   2.812   2.637  0.3780 -0.3990  0.5477
13413TIP3    H161730   1.435   2.799   2.706  0.2223 -1.8378  0.1539
13413TIP3    H261731   1.580   2.772   2.672  0.3161 -1.0716 -0.0676
13414TIP3   OH261732   1.172   0.709  15.182 -0.2271 -0.2994 -0.6455
13414TIP3    H161733   1.136   0.753  15.259  1.1868  1.7688 -1.0810
13414TIP3    H261734   1.135   0.756  15.108  1.3990  0.3096 -1.1271
13415TIP3   OH261735   0.528   0.939   3.788 -0.2017  0.4743  0.3499
13415TIP3    H161736   0.576   0.939   3.871  1.1616 -1.3217 -0.3512
13415TIP3    H261737   0.586   0.983   3.727 -0.1387 -0.2661 -0.1432
13416TIP3   OH261738   2.790   5.814   2.147  0.2017  1.0092  0.8186
13416TIP3    H161739   2.775   5.721   2.162  1.0829  0.8168  0.5516
13416TIP3    H261740   2.705   5.855   2.164  0.3548  0.4471  3.3249
13417TIP3   OH261741   6.225   3.385   2.200  0.0973  0.0062 -0.7113
13417TIP3    H161742   6.221   3.438   2.121 -0.9528  1.3336  0.1863
13417TIP3    H261743   6.267   3.303   2.172 -1.6137 -0.1995 -2.9676
13418TIP3   OH261744   5.216   0.698  15.132  0.1364 -0.0027  0.3866
13418TIP3    H161745   5.231   0.752  15.055  0.5954  0.4886  0.8153
13418TIP3    H261746   5.131   0.726  15.165  1.3416  2.0771  1.9003
13419TIP3   OH261747   6.739   0.712  14.497 -0.0510  0.5066 -0.4226
13419TIP3    H161748   6.723   0.795  14.543  0.4712  0.4580 -0.1487
13419TIP3    H261749   6.753   0.738  14.406 -0.5273  0.6578 -0.4539
13420TIP3   OH261750   6.832   3.176   0.438  0.0047  0.1882  0.3201
13420TIP3    H161751   6.790   3.262   0.445  1.1757  1.0848 -2.2770
13420TIP3    H261752   6.771   3.124   0.386  0.1209  0.0352  0.3362
13421TIP3   OH261753   3.123   6.428   2.745  0.3679  0.8137  0.4864
13421TIP3    H161754   3.060   6.472   2.802  1.2777  1.5568  0.9381
13421TIP3    H261755   3.088   6.440   2.657 -0.9522 -0.1861  0.8508
13422TIP3   OH261756   4.641   2.411  14.146 -0.2774 -0.0821  0.3756
13422TIP3    H161757   4.580   2.364  14.089  1.2521  0.1274 -1.5212
13422TIP3    H261758   4.589   2.434  14.223 -2.5501 -0.0199 -1.0883
13423TIP3   OH261759   4.926   3.519   1.682 -0.0757  0.4919 -0.1207
13423TIP3    H161760   5.012   3.509   1.722 -0.7731 -2.2169  0.9411
13423TIP3    H261761   4.882   3.586   1.735  0.9561  1.0356  0.0695
13424TIP3   OH261762   3.011   6.248  13.526  0.4543  0.0558 -0.1899
13424TIP3    H161763   3.060   6.326  13.502  1.0955 -0.8524 -2.0593
13424TIP3    H261764   2.921   6.266  13.499  0.3118  0.6271  0.6189
13425TIP3   OH261765   1.786   6.247  14.177 -0.3498  0.3640 -0.0478
13425TIP3    H161766   1.856   6.183  14.168 -0.7559 -0.0581 -0.2716
13425TIP3    H261767   1.830   6.331  14.171  0.1967  0.1127  0.2712
13426TIP3   OH261768   4.555   0.393   4.426 -0.0953 -0.1095 -0.5525
13426TIP3    H161769   4.485   0.387   4.491  1.2666 -1.4933  0.8858
13426TIP3    H261770   4.535   0.323   4.363 -0.6822  0.3475 -0.8835
13427TIP3   OH261771   2.960   0.313   3.657 -0.3486 -0.3755  0.2771
13427TIP3    H161772   3.041   0.312   3.707  0.0007 -0.0678 -0.2848
13427TIP3    H261773   2.935   0.221   3.651  0.3400 -0.5382 -0.1703
13428TIP3   OH261774   2.412   4.561   5.449  0.0070  0.2186 -0.1852
13428TIP3    H161775   2.343   4.602   5.501 -2.0965 -2.0115 -1.0524
13428TIP3    H261776   2.369   4.536   5.367  1.9659 -0.8757 -0.9617
13429TIP3   OH261777   5.241   6.157  16.870  0.0004 -0.6247  0.4464
13429TIP3    H161778   5.153   6.182  16.899  0.1975  0.3270  0.2815
13429TIP3    H261779   5.299   6.219  16.914  0.4426 -0.2590 -0.6157
13430TIP3   OH261780   6.063   2.491   3.181  0.4173  0.6552  0.1219
13430TIP3    H161781   6.043   2.465   3.271 -2.3651 -1.9762 -1.0944
13430TIP3    H261782   6.001   2.562   3.162 -0.1084  0.1257 -0.1763
13431TIP3   OH261783   4.056   4.513  11.362  0.2397  0.5887  0.1766
13431TIP3    H161784   4.074   4.453  11.290  0.7787  0.3273  0.5247
13431TIP3    H261785   4.133   4.506  11.418  0.8986  2.5328 -0.4041
13432TIP3   OH261786   4.198   0.179  13.869 -0.2637 -0.1268  0.2069
13432TIP3    H161787   4.245   0.190  13.786  0.3957  0.3724  0.6412
13432TIP3    H261788   4.267   0.176  13.935 -0.8037 -0.2701  0.7702
13433TIP3   OH261789   0.403   0.085   3.794  0.3779 -0.0804 -0.1968
13433TIP3    H161790   0.322   0.061   3.750  1.0895 -1.5155 -0.7854
13433TIP3    H261791   0.411   0.179   3.781  0.1355 -0.3137 -2.4579
13434TIP3   OH261792   1.163   0.657   1.675 -0.1148  0.0702  0.1508
13434TIP3    H161793   1.222   0.584   1.697  0.3810  0.8088  1.3784
13434TIP3    H261794   1.075   0.623   1.695 -0.0443 -0.7050 -0.7714
13435TIP3   OH261795   1.282   0.082   1.552 -0.1264 -0.0534 -0.1714
13435TIP3    H161796   1.229   0.041   1.621  1.2093 -2.1906 -0.3492
13435TIP3    H261797   1.257   0.036   1.472  0.8145  0.0223 -0.5220
13436TIP3   OH261798   2.958   5.125   0.623 -0.0003  0.1395 -0.0177
13436TIP3    H161799   2.948   5.189   0.553  1.3105  0.4495  0.0666
13436TIP3    H261800   2.950   5.040   0.579  1.7053  0.3055 -0.7256
13437TIP3   OH261801   4.390   0.295   1.301 -0.2410 -0.0449 -0.2299
13437TIP3    H161802   4.325   0.228   1.279 -0.4343  0.2055 -0.4183
13437TIP3    H261803   4.453   0.291   1.230 -1.1276  1.1076 -1.1251
13438TIP3   OH261804   0.458   0.891   1.603 -0.0079  0.3343  0.0983
13438TIP3    H161805   0.454   0.982   1.571 -0.5824  0.5649  0.8021
13438TIP3    H261806   0.518   0.847   1.543 -1.9646  0.4478 -2.1085
13439TIP3   OH261807   1.414   1.508   0.581  0.1656  0.0263 -0.4742
13439TIP3    H161808   1.352   1.494   0.510 -2.1947  0.3671  1.3949
13439TIP3    H261809   1.397   1.597   0.610  2.4918  0.5996 -0.7202
13440TIP3   OH261810   6.175   2.724  16.238  0.1288  0.7372 -0.0279
13440TIP3    H161811   6.081   2.731  16.259  0.3826 -0.2159  1.5906
13440TIP3    H261812   6.194   2.804  16.190 -1.0418  2.0389  1.5534
13441TIP3   OH261813   6.008   1.342  11.318  0.0562  0.6067 -0.2106
13441TIP3    H161814   6.044   1.430  11.313  1.0149  0.2930  0.8232
13441TIP3    H261815   6.031   1.302  11.234 -0.3465  1.3211 -0.6632
13442TIP3   OH261816   1.047   4.740  15.364  0.4442  0.4271 -0.6010
13442TIP3    H161817   1.135   4.740  15.325  0.6697 -1.2111 -0.1604
13442TIP3    H261818   1.022   4.648  15.366 -0.3571  0.6566  1.3641
13443TIP3   OH261819   1.841   3.808  10.892 -0.1523  0.1152 -0.1201
13443TIP3    H161820   1.825   3.868  10.965  0.7996 -1.0813  1.1210
13443TIP3    H261821   1.789   3.731  10.913  1.8395 -1.1252  0.4835
13444TIP3   OH261822   5.089   0.181  12.842  0.4583 -0.7564 -0.0204
13444TIP3    H161823   5.039   0.235  12.781  2.4688 -0.5820 -1.6298
13444TIP3    H261824   5.040   0.186  12.924  1.2696  4.9993  0.5636
13445TIP3   OH261825   2.843   2.769   2.346 -0.3310 -0.8906  0.3392
13445TIP3    H161826   2.817   2.822   2.422  2.3533  0.4876  0.4156
13445TIP3    H261827   2.890   2.694   2.383 -1.9012 -2.0456  0.1094
13446TIP3   OH261828   6.324   1.840  16.966 -0.3836  0.1054 -0.3267
13446TIP3    H161829   6.310   1.785  17.043  0.7403 -1.7118 -1.3305
13446TIP3    H261830   6.401   1.892  16.987  1.1633 -1.8140 -0.8411
13447TIP3   OH261831   4.520   3.337   5.982  0.2752 -0.0842 -0.1430
13447TIP3    H161832   4.611   3.358   5.959  0.1386 -0.4215 -1.0473
13447TIP3    H261833   4.506   3.381   6.065  0.6642  1.6175 -0.9253
13448TIP3   OH261834   4.724   0.046  12.283 -0.4292  0.5507 -0.4714
13448TIP3    H161835   4.689  -0.018  12.221  1.3902 -1.3063  0.2729
13448TIP3    H261836   4.725  -0.000  12.367 -0.0154  1.9388  0.3239
13449TIP3   OH261837   4.898   3.230   1.377  0.0522  0.1238  0.4535
13449TIP3    H161838   4.921   3.164   1.311  1.1576  0.4071  0.5386
13449TIP3    H261839   4.910   3.313   1.332 -0.5408  0.2938  0.6005
13450TIP3   OH261840   4.549   5.869   0.093 -0.1026  0.0788 -0.2217
13450TIP3    H161841   4.636   5.893   0.124 -0.0010 -0.4298 -0.0885
13450TIP3    H261842   4.516   5.946   0.048 -0.2200  0.8250  1.0931
13451TIP3   OH261843   4.357   1.925  11.813  0.3439 -0.5551 -0.0389
13451TIP3    H161844   4.350   2.020  11.799 -3.2628 -1.0029 -2.9303
13451TIP3    H261845   4.443   1.902  11.777  0.5659  1.3993 -0.8999
13452TIP3   OH261846   0.194   5.249   2.606 -1.3363 -0.2586  0.0124
13452TIP3    H161847   0.165   5.175   2.659 -2.1810 -0.6012 -0.8799
13452TIP3    H261848   0.131   5.319   2.627 -0.8429  0.0479  0.4804
13453TIP3   OH261849   3.143   2.726  11.874  0.1799  0.0250  0.1168
13453TIP3    H161850   3.175   2.654  11.928  0.8582 -0.2658 -0.6520
13453TIP3    H261851   3.215   2.745  11.813  0.5711  2.2615  1.1645
13454TIP3   OH261852   2.667   0.361  10.668 -0.4109 -0.1587  0.2957
13454TIP3    H161853   2.746   0.393  10.711  1.7356  0.4629 -3.6006
13454TIP3    H261854   2.616   0.440  10.650 -0.5696 -0.2313  0.4305
13455TIP3   OH261855   4.724   3.385  14.271  0.0103  0.2828  0.3344
13455TIP3    H161856   4.804   3.433  14.252 -0.1238  0.4725  0.2454
13455TIP3    H261857   4.682   3.375  14.185 -0.4581  0.8915  0.4899
13456TIP3   OH261858   5.771   5.786   1.150  0.5078 -0.0947  0.3792
13456TIP3    H161859   5.717   5.707   1.144  0.8381 -0.3221  0.3406
13456TIP3    H261860   5.820   5.775   1.232  0.2615  0.2619  0.5781
13457TIP3   OH261861   2.172   3.383  14.234  0.0936  0.0635 -0.0581
13457TIP3    H161862   2.181   3.363  14.141  0.0637 -0.9888  0.1536
13457TIP3    H261863   2.137   3.472  14.236 -1.9244 -0.6408 -1.1010
13458TIP3   OH261864   0.851   0.799   5.963 -0.0476 -0.0940  0.5271
13458TIP3    H161865   0.924   0.737   5.965 -1.0636 -1.3857 -0.8583
13458TIP3    H261866   0.832   0.816   6.056  0.9275 -1.0183  0.9179
13459TIP3   OH261867   5.830   4.755   3.434 -0.1136 -0.1544 -0.6325
13459TIP3    H161868   5.885   4.829   3.460 -1.3081  0.3249  0.6469
13459TIP3    H261869   5.803   4.715   3.517 -0.4885 -1.2698 -1.2801
13460TIP3   OH261870   1.009   3.244  11.399 -1.1192  0.5902  0.0652
13460TIP3    H161871   1.016   3.149  11.404  0.9502  0.7220  0.5792
13460TIP3    H261872   1.053   3.267  11.317 -0.0321  1.2073  0.7985
13461TIP3   OH261873   6.448   2.226  11.242 -0.2317  0.0763 -0.0851
13461TIP3    H161874   6.396   2.146  11.248 -0.7744  0.4786  0.8160
13461TIP3    H261875   6.538   2.198  11.255 -0.2075 -0.6147 -1.5329
13462TIP3   OH261876   5.233   4.544  14.782 -0.1797  0.4500 -0.5507
13462TIP3    H161877   5.303   4.549  14.847 -1.0914 -0.8607  0.5786
13462TIP3    H261878   5.192   4.631  14.784 -2.2808 -0.4152  3.1302
13463TIP3   OH261879   2.917   2.908  11.762 -0.4035 -0.4015 -0.5426
13463TIP3    H161880   2.948   2.896  11.672 -2.6504 -1.7435 -1.2346
13463TIP3    H261881   2.975   2.853  11.815  0.8272  0.2563 -1.1619
13464TIP3   OH261882   0.794   2.248   6.298 -0.2498  0.0030 -0.1597
13464TIP3    H161883   0.709   2.249   6.255  0.2025 -1.2439 -1.1486
13464TIP3    H261884   0.808   2.156   6.321  0.9821  0.1320 -0.3427
13465TIP3   OH261885   0.958   1.541  12.997  0.5521  0.1425  0.4243
13465TIP3    H161886   1.041   1.535  12.951  2.1530 -1.7818  3.3248
13465TIP3    H261887   0.909   1.464  12.970  0.5644  0.1754  0.3073
13466TIP3   OH261888   6.793   4.493  14.945  0.4520 -0.0522  0.1316
13466TIP3    H161889   6.881   4.475  14.912  1.2562  0.5707  1.8097
13466TIP3    H261890   6.803   4.572  14.999 -0.7550 -0.9738  1.8208
13467TIP3   OH261891   1.795   2.327   1.967  0.2394  0.1793  0.4573
13467TIP3    H161892   1.880   2.301   1.930  0.3026  0.5627  0.3338
13467TIP3    H261893   1.731   2.277   1.916  0.3420  0.5064  0.0076
13468TIP3   OH261894   4.383   6.329   3.177  0.1798  0.5398 -0.0551
13468TIP3    H161895   4.438   6.356   3.103  1.4681  1.0536  1.0572
13468TIP3    H261896   4.329   6.259   3.141  1.3652  0.2034 -1.2879
13469TIP3   OH261897   0.867   5.314  11.101 -0.0025  0.2795  0.2455
13469TIP3    H161898   0.914   5.284  11.023 -1.1663 -1.5734  0.1977
13469TIP3    H261899   0.811   5.385  11.069  1.8086  1.7196  0.0835
13470TIP3   OH261900   6.037   6.390  16.854 -0.4500  0.2993  0.0628
13470TIP3    H161901   6.043   6.470  16.906 -0.8302  0.5431 -0.2587
13470TIP3    H261902   5.982   6.414  16.779 -0.2908 -0.1712 -0.2113
13471TIP3   OH261903   1.627   4.402  14.990  0.4152 -0.4826 -0.2934
13471TIP3    H161904   1.678   4.422  15.068  3.4625 -0.5584 -2.1035
13471TIP3    H261905   1.600   4.487  14.956 -1.3541 -0.4728  1.0345
13472TIP3   OH261906   6.341   1.390  11.725 -0.3444  0.5496  0.2801
13472TIP3    H161907   6.308   1.320  11.669 -0.0019 -1.4502  2.4105
13472TIP3    H261908   6.264   1.444  11.743 -0.6780  0.5881 -1.1826
13473TIP3   OH261909   5.776   2.376  11.617 -0.3590 -0.1204  0.2590
13473TIP3    H161910   5.744   2.416  11.699 -0.9910 -1.5854  0.7603
13473TIP3    H261911   5.707   2.314  11.593 -0.6361  0.9642 -1.9440
13474TIP3   OH261912   6.234   3.948  13.931  0.0572 -0.6993 -0.4445
13474TIP3    H161913   6.153   3.993  13.955 -0.6702 -2.0545 -0.3033
13474TIP3    H261914   6.298   3.978  13.996  0.0106  1.2796 -1.2456
13475TIP3   OH261915   1.768   2.440   0.965  0.5515  0.5337 -0.8130
13475TIP3    H161916   1.712   2.518   0.960 -0.6194 -0.2575 -0.4650
13475TIP3    H261917   1.746   2.400   1.050  0.3894 -0.7117 -1.4240
13476TIP3   OH261918   4.930   2.338   2.207  0.8319 -0.6945  0.6575
13476TIP3    H161919   5.000   2.319   2.271  1.7688  2.4969  0.7732
13476TIP3    H261920   4.940   2.431   2.189 -2.0357 -0.6234 -1.0853
13477TIP3   OH261921   0.581   1.010  12.368  0.2392 -0.1210  0.4715
13477TIP3    H161922   0.643   1.082  12.378 -0.7603  0.6889  0.9278
13477TIP3    H261923   0.637   0.933  12.356  1.3381  0.5517  1.0712
13478TIP3   OH261924   4.557   4.177   4.991  0.1445  0.4396 -0.1076
13478TIP3    H161925   4.483   4.192   5.050 -0.5059 -0.9021 -0.5419
13478TIP3    H261926   4.584   4.087   5.008  2.3529  1.1904  0.7438
13479TIP3   OH261927   1.133   3.844   3.716  0.9011 -0.0647  0.9266
13479TIP3    H161928   1.167   3.906   3.650  0.2939  0.1970  0.8523
13479TIP3    H261929   1.113   3.899   3.792  1.6628 -0.3763  1.3651
13480TIP3   OH261930   4.929   3.652  12.826  0.1364  0.9303 -0.0707
13480TIP3    H161931   4.858   3.714  12.840 -0.7902 -0.4452  1.8289
13480TIP3    H261932   4.974   3.648  12.911  0.9816 -0.0178 -0.5368
13481TIP3   OH261933   3.616   4.961   1.285 -0.0873  0.2705 -0.4146
13481TIP3    H161934   3.589   5.002   1.367 -0.3466  0.4469 -0.5860
13481TIP3    H261935   3.687   5.017   1.252 -1.6090  1.6334 -1.5380
13482TIP3   OH261936   0.246   2.276  11.379 -0.0502 -0.5081  0.5361
13482TIP3    H161937   0.243   2.352  11.322 -1.9487  1.7282  3.3449
13482TIP3    H261938   0.334   2.278  11.418  0.1826 -0.2281 -0.0004
13483TIP3   OH261939   2.938   3.590   1.875  0.4656 -1.0620  0.0930
13483TIP3    H161940   2.997   3.552   1.939 -1.4408 -2.4086  1.1190
13483TIP3    H261941   2.917   3.519   1.815 -0.8203 -0.8737  0.2859
13484TIP3   OH261942   3.050   1.033   0.045  0.1076 -0.2854  0.0980
13484TIP3    H161943   3.123   0.972   0.060 -1.1731 -1.3605  2.4178
13484TIP3    H261944   2.990   0.985  -0.012 -0.4406 -0.8460  1.1250
13485TIP3   OH261945   3.764   5.625   3.693  0.3387 -0.5238  0.7514
13485TIP3    H161946   3.688   5.647   3.747  0.4203 -1.4142  1.2522
13485TIP3    H261947   3.751   5.532   3.671  0.4547 -0.2537 -0.5244
13486TIP3   OH261948   5.573   6.466   2.998 -0.4398 -0.1010 -0.8131
13486TIP3    H161949   5.608   6.550   2.969  0.3583 -0.2520 -0.2944
13486TIP3    H261950   5.623   6.444   3.076 -1.6401 -0.3549 -0.0774
13487TIP3   OH261951   6.552   1.593   3.458 -0.2096  0.1899  0.0750
13487TIP3    H161952   6.594   1.637   3.532  2.2641 -0.5413 -0.7953
13487TIP3    H261953   6.461   1.623   3.461  0.0362  0.9454  2.7959
13488TIP3   OH261954   5.679   2.115  14.655  0.2976 -0.0301  0.1020
13488TIP3    H161955   5.745   2.090  14.590  0.3613  1.0008 -0.2552
13488TIP3    H261956   5.623   2.038  14.663  1.6139 -0.9636  0.5156
13489TIP3   OH261957   2.437   2.551  13.836  0.3497 -0.2253  0.0238
13489TIP3    H161958   2.357   2.507  13.807  0.9685 -1.8430  0.6696
13489TIP3    H261959   2.501   2.532  13.768  0.0543  1.7470 -0.9091
13490TIP3   OH261960   1.809   0.279  16.613 -0.4307 -0.0664  0.0893
13490TIP3    H161961   1.746   0.283  16.685 -2.2408 -0.2523 -1.4045
13490TIP3    H261962   1.825   0.371  16.590  1.4391  0.0752  1.7263
13491TIP3   OH261963   3.002   0.506   4.927  0.4864  0.1301 -0.0226
13491TIP3    H161964   2.967   0.444   4.991  0.3591 -1.3454 -1.4688
13491TIP3    H261965   2.977   0.469   4.842 -2.1353  3.5975 -0.9884
13492TIP3   OH261966   0.025   3.225  11.625 -0.1931 -0.3009 -0.6954
13492TIP3    H161967   0.011   3.320  11.630  0.0984 -0.3248  0.8622
13492TIP3    H261968   0.110   3.211  11.665  0.2012 -1.1472 -1.7721
13493TIP3   OH261969   5.401   6.169   5.042 -0.3661  0.8241 -0.0487
13493TIP3    H161970   5.384   6.081   5.076 -1.5231  0.9195 -0.3452
13493TIP3    H261971   5.373   6.228   5.112  0.3639  0.9734  0.1306
13494TIP3   OH261972   0.250   5.113   1.531  0.5615  0.0874 -0.2918
13494TIP3    H161973   0.290   5.184   1.482  2.9290 -0.5553  0.5661
13494TIP3    H261974   0.271   5.034   1.480  2.3207 -0.4902  1.2248
13495TIP3   OH261975   4.550   0.076   1.216 -0.4360 -0.2175  0.0314
13495TIP3    H161976   4.640   0.058   1.243  0.1277  0.0400 -1.5475
13495TIP3    H261977   4.559   0.127   1.136 -1.9006 -2.7272 -1.9130
13496TIP3   OH261978   6.363   5.808  12.349 -0.1844  0.2078  0.1370
13496TIP3    H161979   6.410   5.781  12.429  1.0055 -0.4796 -0.7588
13496TIP3    H261980   6.310   5.732  12.326 -0.3168  0.3066  0.1176
13497TIP3   OH261981   3.776   0.507  12.769  0.0283 -0.6290 -0.8134
13497TIP3    H161982   3.797   0.545  12.683 -1.1176  1.1154 -0.3848
13497TIP3    H261983   3.769   0.583  12.827  0.1785 -1.7329  0.7021
13498TIP3   OH261984   3.601   3.573  14.359 -0.4769  0.1893 -0.7304
13498TIP3    H161985   3.524   3.528  14.395  0.2577 -1.7499 -1.4536
13498TIP3    H261986   3.663   3.576  14.433 -0.5745  0.1015 -0.6435
13499TIP3   OH261987   2.924   1.511   0.656 -0.2063  0.2937 -0.3406
13499TIP3    H161988   2.877   1.437   0.617  1.3789 -2.1015  1.9247
13499TIP3    H261989   3.012   1.477   0.674  0.3638  2.4930  1.5531
13500TIP3   OH261990   3.347   2.231   0.243 -0.1000  0.2160 -0.3331
13500TIP3    H161991   3.316   2.265   0.159 -1.4246  0.1601  0.1160
13500TIP3    H261992   3.438   2.206   0.226 -0.1611  0.7570 -1.5885
13501TIP3   OH261993   3.172   6.082  17.021  0.7009 -0.7129  0.2122
13501TIP3    H161994   3.253   6.038  16.995  0.8317 -0.5140  0.2830
13501TIP3    H261995   3.188   6.175  17.004 -0.0418 -0.8135 -1.1574
13502TIP3   OH261996   2.416   0.322   4.807  0.3137  0.1858  0.2713
13502TIP3    H161997   2.353   0.272   4.859  1.4825 -1.0712  0.5413
13502TIP3    H261998   2.432   0.267   4.730  0.0369  1.1475 -0.4917
13503TIP3   OH261999   0.515   3.980  13.219  0.3220 -0.4624  0.2643
13503TIP3    H162000   0.561   3.924  13.156  2.1568 -0.5598  1.5998
13503TIP3    H262001   0.550   3.953  13.304 -0.7542  0.8986  1.1713
13504TIP3   OH262002   1.505   2.755  11.036 -0.3163  0.2928 -0.4148
13504TIP3    H162003   1.506   2.686  11.103  0.4558  2.1505  1.6134
13504TIP3    H262004   1.597   2.777  11.023 -0.5680  1.3542 -0.5251
13505TIP3   OH262005   1.766   5.378  12.387  0.2603 -0.2619 -0.3555
13505TIP3    H162006   1.818   5.372  12.306 -0.3312  0.3667 -0.7906
13505TIP3    H262007   1.681   5.412  12.358  0.7177  2.0266  0.8057
13506TIP3   OH262008   6.293   2.011  12.482  0.3142 -0.2468  0.6545
13506TIP3    H162009   6.270   2.003  12.575  1.9257 -0.2392  1.0842
13506TIP3    H262010   6.368   1.953  12.471  1.5309  1.3826 -0.1269
13507TIP3   OH262011   2.592   0.629  15.469  0.1854  0.0772 -0.1197
13507TIP3    H162012   2.550   0.667  15.547 -0.1411 -0.1119 -0.2041
13507TIP3    H262013   2.521   0.614  15.408 -0.1342 -3.1266  0.8896
13508TIP3   OH262014   2.539   2.028  16.861  0.2282 -0.1051  0.4988
13508TIP3    H162015   2.468   1.970  16.835  0.1337 -0.2139  0.9940
13508TIP3    H262016   2.499   2.089  16.922 -0.4034  2.3824 -2.1652
13509TIP3   OH262017   0.259   1.568   4.773  0.1328 -0.2187 -0.2727
13509TIP3    H162018   0.227   1.534   4.690  1.1572 -0.9835 -0.3730
13509TIP3    H262019   0.232   1.503   4.838 -2.4804  1.3535  0.3754
13510TIP3   OH262020   2.309   6.141   4.722  0.1764  0.3123  0.1661
13510TIP3    H162021   2.255   6.108   4.650  0.9986  1.1252 -0.8494
13510TIP3    H262022   2.251   6.139   4.798 -0.1149 -2.4797 -0.0364
13511TIP3   OH262023   1.678   0.675  16.629  0.4315  0.4880  0.2662
13511TIP3    H162024   1.613   0.741  16.654  0.1071 -0.8109  3.3178
13511TIP3    H262025   1.626   0.603  16.592  0.6012  1.0885 -1.2075
13512TIP3   OH262026   4.630   4.595  11.302  0.0529 -0.0758  0.3792
13512TIP3    H162027   4.587   4.679  11.316 -1.8473 -0.4999 -2.2709
13512TIP3    H262028   4.569   4.531  11.337  1.6054 -0.4389  2.6190
13513TIP3   OH262029   5.719   4.121   4.540 -0.0598  1.0337  0.7685
13513TIP3    H162030   5.667   4.127   4.621 -0.9680 -2.4130  0.5926
13513TIP3    H262031   5.749   4.030   4.538 -0.2840  0.9186 -2.8741
13514TIP3   OH262032   2.260   2.452   0.857 -0.0545  0.0144 -0.3679
13514TIP3    H162033   2.245   2.357   0.850 -1.9488  0.3247 -1.4033
13514TIP3    H262034   2.355   2.462   0.857  0.2954 -2.0289  2.7263
13515TIP3   OH262035   4.095   3.937   0.508  0.5064  0.3318 -0.0272
13515TIP3    H162036   4.046   3.887   0.574  1.4027  0.0149  0.4084
13515TIP3    H262037   4.038   3.936   0.430  1.3943 -3.2523 -0.7856
13516TIP3   OH262038   6.715   2.557   2.052 -0.2064  0.2904 -0.3602
13516TIP3    H162039   6.765   2.541   2.132  0.2698 -0.5962 -0.8244
13516TIP3    H262040   6.737   2.646   2.027 -0.8835  0.8288  0.8572
13517TIP3   OH262041   1.282   6.550  12.749  0.5538  0.0385  0.3867
13517TIP3    H162042   1.351   6.525  12.687  1.7916  0.9629  1.3471
13517TIP3    H262043   1.283   6.646  12.748 -0.9679  0.0809  0.1816
13518TIP3   OH262044   3.849   2.704  10.527  0.0301  0.3339 -0.1066
13518TIP3    H162045   3.913   2.653  10.477 -0.3027 -0.6740  0.4609
13518TIP3    H262046   3.898   2.781  10.556  1.9055 -1.7220  2.6856
13519TIP3   OH262047   1.874   3.794   5.331  0.0882  0.3217  0.9416
13519TIP3    H162048   1.965   3.790   5.361  0.4277  2.0611  0.2575
13519TIP3    H262049   1.822   3.798   5.411  0.7043  0.6283  1.3306
13520TIP3   OH262050   1.295   0.926   0.790 -0.2381  0.0394 -0.0297
13520TIP3    H162051   1.361   0.928   0.859 -2.1935 -1.4687  2.0270
13520TIP3    H262052   1.211   0.927   0.837 -1.6807 -0.8054 -2.4095
13521TIP3   OH262053   5.302   5.373   4.405 -0.7693 -0.2521 -0.1046
13521TIP3    H162054   5.394   5.357   4.424 -0.7841  0.1155  0.3064
13521TIP3    H262055   5.285   5.327   4.323  0.1755  0.9137 -1.0023
13522TIP3   OH262056   3.121   1.718  15.963  0.6607  0.2774 -0.2803
13522TIP3    H162057   3.079   1.730  16.049  1.4244  0.8104  0.0300
13522TIP3    H262058   3.185   1.788  15.958  1.3659 -0.3879 -0.8365
13523TIP3   OH262059   2.309   6.435  17.031  0.9353  0.2092 -0.2854
13523TIP3    H162060   2.302   6.344  17.059 -1.7962  0.8255  1.3865
13523TIP3    H262061   2.299   6.486  17.112  1.9158  2.0139 -1.2396
13524TIP3   OH262062   5.921   4.917  11.639 -0.5852 -0.3460  0.2432
13524TIP3    H162063   5.899   4.883  11.552 -0.4717 -0.6282  0.3238
13524TIP3    H262064   5.969   4.998  11.621 -2.1092  0.5656  0.0697
13525TIP3   OH262065   3.338   5.754   3.037  0.2508  0.0893 -0.1569
13525TIP3    H162066   3.336   5.766   2.942  1.7768 -0.5672 -0.2939
13525TIP3    H262067   3.382   5.671   3.050 -0.8041 -0.3041  1.1235
13526TIP3   OH262068   3.476   5.231   5.217 -0.2330 -0.5156  0.4489
13526TIP3    H162069   3.555   5.182   5.195 -0.8685 -1.4585  0.1879
13526TIP3    H262070   3.458   5.284   5.139  0.1171 -0.3230  0.4975
13527TIP3   OH262071   5.238   3.751   5.182 -0.3091  0.1025 -0.0143
13527TIP3    H162072   5.203   3.666   5.155 -1.4499  0.9467 -1.3466
13527TIP3    H262073   5.234   3.749   5.278  0.9523 -1.8164  0.0498
13528TIP3   OH262074   4.343   0.932  16.488 -0.0903  0.3275  0.8020
13528TIP3    H162075   4.290   0.860  16.451 -0.4252  1.3815 -0.8854
13528TIP3    H262076   4.287   0.969  16.556 -0.9233  0.4674  0.0669
13529TIP3   OH262077   5.901   1.493  12.745  0.5158  0.5830 -0.1351
13529TIP3    H162078   5.959   1.474  12.671  0.5502  1.4945 -0.3498
13529TIP3    H262079   5.949   1.462  12.822  0.6829  0.0617 -0.4385
13530TIP3   OH262080   3.637   1.997   2.694  0.0276 -0.3700  0.0012
13530TIP3    H162081   3.547   2.006   2.726  0.1927  0.7759  0.1981
13530TIP3    H262082   3.628   1.985   2.600 -0.3077  1.7706 -0.2983
13531TIP3   OH262083   1.453   2.279   6.152 -0.4285  0.3943  0.4892
13531TIP3    H162084   1.395   2.208   6.122 -1.8014  0.9528  1.7001
13531TIP3    H262085   1.534   2.266   6.103 -1.3807 -0.7593 -0.8634
13532TIP3   OH262086   2.149   4.193  10.973 -0.1921  0.0748 -0.4573
13532TIP3    H162087   2.196   4.246  11.037  0.7393  1.3385 -2.1292
13532TIP3    H262088   2.216   4.136  10.934 -0.4177  0.4190 -1.3843
13533TIP3   OH262089   6.492   5.656  16.900  0.2361 -0.2795 -0.2498
13533TIP3    H162090   6.534   5.573  16.923  0.5327 -0.2143 -0.5616
13533TIP3    H262091   6.487   5.704  16.983 -0.1387 -0.6979 -0.0248
13534TIP3   OH262092   0.315   5.252  11.826  0.1430  0.2161  0.2552
13534TIP3    H162093   0.300   5.327  11.770 -2.1926  0.4062  1.0171
13534TIP3    H262094   0.355   5.288  11.905  0.9748  0.3244 -0.2054
13535TIP3   OH262095   6.027   5.229  13.142 -0.2408  0.0828 -0.1068
13535TIP3    H162096   6.108   5.274  13.164 -0.7299  0.0771  1.9110
13535TIP3    H262097   5.960   5.298  13.146 -0.4101  0.0102 -1.3675
13536TIP3   OH262098   0.283   4.300   3.026 -0.1613  0.1712 -0.6070
13536TIP3    H162099   0.247   4.214   3.003 -0.9431  0.2557  0.2246
13536TIP3    H262100   0.231   4.327   3.102 -1.3504  2.2937 -2.0786
13537TIP3   OH262101   4.568   3.843  12.763  0.4560  0.4137  0.0531
13537TIP3    H162102   4.568   3.930  12.802  0.3043  0.5681 -0.2858
13537TIP3    H262103   4.635   3.847  12.695  0.3780  0.2990 -0.0324
13538TIP3   OH262104   3.269   2.669   2.252 -0.4210  0.0229 -0.0748
13538TIP3    H162105   3.193   2.612   2.252  0.3840 -1.1877 -2.5523
13538TIP3    H262106   3.267   2.713   2.166  0.9818  0.9144  0.2994
13539TIP3   OH262107   2.682   5.673  13.201  0.2891 -0.1155 -0.6119
13539TIP3    H162108   2.685   5.757  13.155  0.8348 -0.0870 -0.5363
13539TIP3    H262109   2.749   5.681  13.270 -2.1670  0.8001  1.8706
13540TIP3   OH262110   6.442   5.215  16.032  0.1393 -0.4175  0.0186
13540TIP3    H162111   6.501   5.271  16.083  0.2814  0.0766 -0.6714
13540TIP3    H262112   6.453   5.245  15.941  0.5670 -1.8710 -0.4331
13541TIP3   OH262113   6.438   3.265   1.563  0.5303 -0.0100 -0.0472
13541TIP3    H162114   6.380   3.221   1.625  1.9131 -2.1298 -0.1344
13541TIP3    H262115   6.443   3.355   1.594  0.7630 -0.8554  2.6272
13542TIP3   OH262116   6.855   6.443  13.478 -0.0401 -0.0661  0.2300
13542TIP3    H162117   6.817   6.487  13.401  0.4680 -0.3610 -0.1974
13542TIP3    H262118   6.919   6.383  13.441 -1.1276 -1.6064  0.7783
13543TIP3   OH262119   5.641   4.236   2.109 -0.2381  0.4741  0.8485
13543TIP3    H162120   5.638   4.258   2.016 -0.1769 -0.0826  0.7065
13543TIP3    H262121   5.550   4.237   2.137 -0.6956 -2.7050 -0.0692
13544TIP3   OH262122   3.476   3.726  16.997  0.6361 -0.2925  0.2942
13544TIP3    H162123   3.516   3.775  16.926 -0.2377  0.4292  0.2666
13544TIP3    H262124   3.432   3.653  16.955  1.9441 -1.1243  0.3343
13545TIP3   OH262125   3.866   1.855   5.214 -0.1434 -0.3262 -0.4605
13545TIP3    H162126   3.775   1.843   5.188 -0.1688  0.1261 -0.5808
13545TIP3    H262127   3.909   1.773   5.190 -0.3152 -0.1776 -1.2745
13546TIP3   OH262128   3.055   5.925   5.964  0.2601  0.7042  0.0379
13546TIP3    H162129   3.032   6.000   6.018 -0.1529  1.4615 -1.1481
13546TIP3    H262130   3.131   5.954   5.913 -0.8858  0.9457 -1.6164
13547TIP3   OH262131   5.530   0.631  10.734  0.0108  0.0483  0.2459
13547TIP3    H162132   5.454   0.575  10.746 -0.3364  0.3382 -0.5767
13547TIP3    H262133   5.506   0.690  10.663  1.4497 -0.6368 -0.8441
13548TIP3   OH262134   5.998   2.411  16.628  0.8048 -0.8908 -0.1567
13548TIP3    H162135   6.029   2.381  16.542  0.0428 -1.9085 -0.0976
13548TIP3    H262136   5.947   2.337  16.661  0.5974 -0.2744  0.9171
13549TIP3   OH262137   0.894   2.551  16.422 -0.2538 -0.3508  0.1557
13549TIP3    H162138   0.922   2.628  16.372  1.7787 -0.7829  0.5392
13549TIP3    H262139   0.838   2.586  16.491 -0.3871  0.6335 -0.4413
13550TIP3   OH262140   1.210   1.846  16.287  0.0649  0.2875 -0.7211
13550TIP3    H162141   1.122   1.810  16.293  0.5043 -0.6510  0.6420
13550TIP3    H262142   1.223   1.863  16.193 -1.1257 -0.6641 -1.0863
13551TIP3   OH262143   1.877   5.208  14.672  0.0056 -0.7581 -0.2651
13551TIP3    H162144   1.910   5.290  14.635 -1.7034  0.4884  0.8369
13551TIP3    H262145   1.853   5.156  14.596  1.3320 -0.3742 -0.9944
13552TIP3   OH262146   5.013   5.189   4.050 -0.3467 -0.4424 -0.2442
13552TIP3    H162147   4.931   5.165   4.093 -0.0664 -1.5917 -0.3167
13552TIP3    H262148   4.989   5.256   3.987 -1.1030 -0.2263  0.2607
13553TIP3   OH262149   4.853   2.041  12.191  0.3537 -0.2184  0.0900
13553TIP3    H162150   4.779   2.040  12.251  0.7422  0.5731  0.6114
13553TIP3    H262151   4.916   2.100  12.233  0.0692  1.4897 -1.7416
13554TIP3   OH262152   1.270   5.158   0.591 -0.3738  0.1388  0.3735
13554TIP3    H162153   1.225   5.137   0.509 -1.4628  1.1771  0.6807
13554TIP3    H262154   1.322   5.080   0.609  0.3617  0.1047 -1.5929
13555TIP3   OH262155   2.556   2.808  15.780  0.6988  0.2531  0.8882
13555TIP3    H162156   2.649   2.788  15.774  0.6281  0.0126  0.5732
13555TIP3    H262157   2.514   2.722  15.790  0.1997 -0.0336 -2.6545
13556TIP3   OH262158   1.574   4.411  13.822  0.5785  0.2601 -0.6007
13556TIP3    H162159   1.646   4.469  13.796  0.0257  1.2160 -0.0547
13556TIP3    H262160   1.498   4.444  13.773  0.5271 -0.8165 -1.2720
13557TIP3   OH262161   0.036   1.239  15.332  0.3870  0.3437  0.3049
13557TIP3    H162162   0.127   1.215  15.346  0.3149 -1.6233 -2.0467
13557TIP3    H262163   0.039   1.303  15.261 -0.0179  1.7558  1.4809
13558TIP3   OH262164   3.171   1.417   3.105 -0.4705  0.0816 -0.3100
13558TIP3    H162165   3.174   1.480   3.032  0.9489 -0.7640 -1.0372
13558TIP3    H262166   3.134   1.338   3.066 -0.2069 -0.2120  0.0341
13559TIP3   OH262167   2.877   6.331   1.996  0.7169  0.4926  0.5266
13559TIP3    H162168   2.839   6.399   2.051 -0.3818  0.1823  0.1630
13559TIP3    H262169   2.972   6.344   2.005  0.5408  1.3478  1.3479
13560TIP3   OH262170   4.022   1.538   1.972 -0.9841 -0.1657 -0.1020
13560TIP3    H162171   4.110   1.575   1.969 -1.2787  0.5815  0.2189
13560TIP3    H262172   3.984   1.557   1.886 -0.6748 -0.9096 -0.4123
13561TIP3   OH262173   3.445   1.950   4.977  0.3217  0.7727  0.0775
13561TIP3    H162174   3.522   1.892   4.977 -1.4544 -1.7275 -0.5333
13561TIP3    H262175   3.409   1.940   5.065 -0.2239  0.6241 -0.1627
13562TIP3   OH262176   2.469   1.920   5.170 -0.7442  0.3576  0.3973
13562TIP3    H162177   2.411   1.936   5.245 -1.3234 -1.4921  0.3919
13562TIP3    H262178   2.551   1.890   5.209 -0.1515  1.8373  0.3547
13563TIP3   OH262179   2.427   5.985   1.046  0.0685  0.3534  0.1916
13563TIP3    H162180   2.459   5.898   1.070  0.5978  0.3677 -0.4335
13563TIP3    H262181   2.488   6.015   0.978 -0.6717  0.8100 -0.2864
13564TIP3   OH262182   3.441   6.757  16.625  0.6043  0.7601 -0.5078
13564TIP3    H162183   3.380   6.695  16.664  1.8703 -1.6543 -2.1110
13564TIP3    H262184   3.394   6.840  16.624 -0.9330  0.0260  2.3205
13565TIP3   OH262185   1.482   3.694  14.402 -0.8037 -0.0552 -0.0705
13565TIP3    H162186   1.453   3.615  14.449  0.4727 -0.5757 -0.1273
13565TIP3    H262187   1.435   3.765  14.445 -0.4229 -0.6269  1.3706
13566TIP3   OH262188   1.518   2.186   0.028 -0.4808 -0.0458  0.1378
13566TIP3    H162189   1.483   2.099   0.010 -2.1459  0.2282  1.8101
13566TIP3    H262190   1.509   2.233  -0.055 -1.5017 -0.8293 -0.2140
13567TIP3   OH262191   3.307   1.348  11.929  0.2734  0.1636  0.2925
13567TIP3    H162192   3.284   1.368  11.839 -0.3478  1.0790  0.6469
13567TIP3    H262193   3.224   1.325  11.971  0.5430 -0.1503  0.6660
13568TIP3   OH262194   1.009   4.034   4.776 -0.0510 -0.3191 -0.1418
13568TIP3    H162195   1.020   3.939   4.769  0.7713 -0.3950  1.6741
13568TIP3    H262196   0.986   4.062   4.688  1.4973 -1.9745 -1.1391
13569TIP3   OH262197   5.370   2.913  13.647 -0.6191 -0.0018  0.3526
13569TIP3    H162198   5.438   2.957  13.597 -0.4648  0.3659  0.8827
13569TIP3    H262199   5.374   2.952  13.734 -0.3593 -1.1874  0.8961
13570TIP3   OH262200   5.484   6.467   2.707 -0.3784 -0.2444  0.1769
13570TIP3    H162201   5.465   6.530   2.776  0.0251  0.6963 -0.5332
13570TIP3    H262202   5.510   6.387   2.753 -2.0690 -0.2888  1.1025
13571TIP3   OH262203   0.149   5.642   4.448 -0.9151  0.0868 -0.1190
13571TIP3    H162204   0.078   5.658   4.385 -1.9380  1.3321  1.3088
13571TIP3    H262205   0.202   5.573   4.406 -3.1153 -1.1202 -1.0989
13572TIP3   OH262206   2.665   3.586   6.162 -0.1200  0.4377  0.0998
13572TIP3    H162207   2.616   3.529   6.104  0.4924 -0.6158  0.5830
13572TIP3    H262208   2.697   3.529   6.231  0.0362  1.4752  0.9192
13573TIP3   OH262209   2.228   5.590   1.303 -0.6737  0.6094  0.8852
13573TIP3    H162210   2.210   5.512   1.355  0.1973 -0.2774 -0.1246
13573TIP3    H262211   2.205   5.566   1.213  0.7514  1.0891  0.3588
13574TIP3   OH262212   6.426   3.182  16.396  0.8522  0.8088 -0.3240
13574TIP3    H162213   6.422   3.173  16.301  0.0161 -0.3452 -0.1988
13574TIP3    H262214   6.516   3.159  16.419  1.1213  1.3132 -0.8453
13575TIP3   OH262215   1.229   5.044  11.713  0.3624  0.7560 -0.3001
13575TIP3    H162216   1.253   5.036  11.805 -0.1798  0.8211 -0.1509
13575TIP3    H262217   1.313   5.039  11.666  0.5947  0.1694  0.1578
13576TIP3   OH262218   3.437   0.544  14.322  0.7419 -0.0522 -0.4232
13576TIP3    H162219   3.486   0.516  14.399  2.7635  2.1005 -0.8132
13576TIP3    H262220   3.478   0.498  14.249 -0.2368 -0.9975 -0.3991
13577TIP3   OH262221   4.030   4.124  16.672 -0.5774  0.2771 -0.3530
13577TIP3    H162222   4.089   4.115  16.597 -0.5422 -0.2172 -0.2703
13577TIP3    H262223   3.990   4.037  16.682 -1.2084  0.5627 -0.3165
13578TIP3   OH262224   2.713   0.231  12.370 -0.1678  0.2407 -0.2671
13578TIP3    H162225   2.754   0.316  12.387 -0.6847  0.4985 -0.2853
13578TIP3    H262226   2.674   0.241  12.283  1.6061 -0.7328 -1.2275
13579TIP3   OH262227   6.031   0.655   5.372 -0.2894 -0.2091 -0.4300
13579TIP3    H162228   6.109   0.662   5.317 -0.5575 -1.8824 -1.1031
13579TIP3    H262229   5.970   0.718   5.336  0.2901  0.1954 -0.7217
13580TIP3   OH262230   4.582   0.159  13.634 -0.6182 -0.5734  0.2926
13580TIP3    H162231   4.573   0.205  13.551 -2.0526  0.6037  1.0534
13580TIP3    H262232   4.645   0.211  13.684 -0.6886 -0.5719  0.3815
13581TIP3   OH262233   1.049   6.216   2.651  0.4790  0.2154  0.1121
13581TIP3    H162234   0.999   6.159   2.592 -0.1481  0.2929  0.5511
13581TIP3    H262235   1.104   6.269   2.593  2.4385 -2.0398 -0.2549
13582TIP3   OH262236   5.965   1.350   0.548 -0.1277 -0.4864 -0.2292
13582TIP3    H162237   5.957   1.403   0.469  1.4229  0.9445  0.5067
13582TIP3    H262238   6.057   1.325   0.551 -0.3471 -1.2416  0.6961
13583TIP3   OH262239   5.352   6.761  16.606  0.3378  1.0205 -0.1145
13583TIP3    H162240   5.293   6.752  16.681 -0.9151  1.0046 -1.0614
13583TIP3    H262241   5.439   6.745  16.641 -0.0448  2.4363  1.6224
13584TIP3   OH262242   1.494   3.914  16.765 -0.0601  0.1221 -0.1614
13584TIP3    H162243   1.527   3.889  16.679  1.5225  0.1311  0.4026
13584TIP3    H262244   1.569   3.956  16.808 -1.0254  0.7588  0.9621
13585TIP3   OH262245   1.620   0.203  13.178 -0.4958 -0.1591  0.4327
13585TIP3    H162246   1.648   0.263  13.109  1.7532 -0.2079  1.2448
13585TIP3    H262247   1.534   0.172  13.149  0.6294 -0.6804 -2.6544
13586TIP3   OH262248   2.154   6.151  14.800 -0.2526 -0.2921  0.1454
13586TIP3    H162249   2.068   6.109  14.800 -0.3454 -0.1181  0.9577
13586TIP3    H262250   2.196   6.120  14.880 -0.4880  1.4815  0.9926
13587TIP3   OH262251   3.016   1.358   1.818  0.5054  0.1584 -0.5024
13587TIP3    H162252   3.077   1.362   1.745 -1.1798 -0.1975 -2.0148
13587TIP3    H262253   2.942   1.414   1.790 -0.9112 -1.2993  0.1618
13588TIP3   OH262254   2.723   2.399  11.792  0.1398 -0.2447 -0.3532
13588TIP3    H162255   2.714   2.478  11.740  1.3326 -0.9375 -1.6815
13588TIP3    H262256   2.787   2.421  11.859 -1.2388  0.5806  0.7582
13589TIP3   OH262257   0.548   5.868  16.491 -0.0321  0.5789 -0.0343
13589TIP3    H162258   0.644   5.867  16.497 -0.0631  0.9262  0.5492
13589TIP3    H262259   0.525   5.959  16.476 -0.1756  0.2557 -2.2157
13590TIP3   OH262260   6.527   4.442   3.316 -0.0237 -0.5942  0.3997
13590TIP3    H162261   6.585   4.374   3.283 -2.2275 -2.4820  0.1872
13590TIP3    H262262   6.493   4.485   3.237  1.3225  0.7723  0.5313
13591TIP3   OH262263   0.942   3.715   1.489  0.7413 -0.5601 -0.1347
13591TIP3    H162264   0.854   3.695   1.521  0.7738 -0.8764 -0.2408
13591TIP3    H262265   0.997   3.647   1.528  1.1459  0.3511  0.9388
13592TIP3   OH262266   3.305   3.858   3.673 -0.3545  0.2013 -0.0976
13592TIP3    H162267   3.380   3.895   3.626 -0.6097  0.8139 -0.0310
13592TIP3    H262268   3.337   3.847   3.763  0.5200 -2.0731 -0.6160
13593TIP3   OH262269   6.318   0.070  13.366  0.1436 -0.2022  0.0351
13593TIP3    H162270   6.287   0.158  13.384 -2.0945 -0.9696  0.2482
13593TIP3    H262271   6.370   0.046  13.442  0.1887  0.6900  0.2894
13594TIP3   OH262272   2.429   3.649   2.083 -0.2750 -0.2446  0.3817
13594TIP3    H162273   2.479   3.708   2.028  0.6336  1.4364  2.8425
13594TIP3    H262274   2.337   3.671   2.064  0.0202  0.5049 -0.2231
13595TIP3   OH262275   0.991   4.768   1.825 -0.6221 -0.1779 -0.2950
13595TIP3    H162276   1.000   4.859   1.796 -0.6273 -0.0217  0.1820
13595TIP3    H262277   0.936   4.773   1.903  0.3995 -0.4464  0.4713
13596TIP3   OH262278   2.015   2.948   2.232  0.3761 -0.0810  0.1809
13596TIP3    H162279   1.935   2.922   2.278  0.9546  0.1563  1.3439
13596TIP3    H262280   1.998   3.039   2.205  0.4496  0.1523  0.9013
13597TIP3   OH262281   2.309   1.882   4.464  0.0251 -0.0506 -0.5401
13597TIP3    H162282   2.234   1.841   4.421  0.3420 -0.3672 -0.7949
13597TIP3    H262283   2.319   1.966   4.418  0.5720 -0.5330 -1.3350
13598TIP3   OH262284   3.822   5.180   3.001  0.2891  0.3784  0.3014
13598TIP3    H162285   3.782   5.224   3.076  1.4462  0.5706  0.8392
13598TIP3    H262286   3.749   5.153   2.946 -0.5586  0.6213  1.2903
13599TIP3   OH262287   5.003   3.128  15.498  0.2201 -0.1996 -0.3011
13599TIP3    H162288   4.990   3.035  15.480  0.6617 -0.7369  1.8433
13599TIP3    H262289   4.915   3.162  15.515  0.1723 -0.5141  0.0918
13600TIP3   OH262290   5.959   3.229  16.838  0.0603  0.5344 -0.4210
13600TIP3    H162291   5.922   3.263  16.757 -2.3540  1.2435  0.8660
13600TIP3    H262292   5.956   3.304  16.898 -0.0559 -0.4674  0.8633
13601TIP3   OH262293   0.429   5.257   5.476  0.0331  1.3378 -0.6971
13601TIP3    H162294   0.471   5.276   5.392  1.1988 -0.5340 -0.5902
13601TIP3    H262295   0.476   5.313   5.539  2.7913 -0.9205 -0.5223
13602TIP3   OH262296   6.667   5.869  14.341  0.5944  0.0317 -0.0957
13602TIP3    H162297   6.601   5.888  14.275 -0.3247 -1.9219  0.2051
13602TIP3    H262298   6.688   5.954  14.379 -1.3088  0.7757 -0.6164
13603TIP3   OH262299   5.409   1.043  15.997  0.6276  0.0052 -0.1034
13603TIP3    H162300   5.467   0.969  15.977  0.3151 -0.1668 -0.3814
13603TIP3    H262301   5.324   1.002  16.016  1.1767  0.0265  2.9273
13604TIP3   OH262302   1.112   3.711  14.493  0.0448 -0.4294  0.0573
13604TIP3    H162303   1.115   3.745  14.404  1.6993  0.7031  0.5055
13604TIP3    H262304   1.139   3.784  14.548  0.2150 -1.4545  1.3913
13605TIP3   OH262305   6.838   2.985   1.490 -0.0424 -0.4424 -0.1263
13605TIP3    H162306   6.863   2.993   1.582 -0.6595  1.2278 -0.0655
13605TIP3    H262307   6.841   3.075   1.457 -2.8573 -0.5373 -0.8881
13606TIP3   OH262308   5.928   6.847  10.467 -0.1731  0.5096 -0.1032
13606TIP3    H162309   5.920   6.758  10.499 -0.4368  1.2872  2.1992
13606TIP3    H262310   5.844   6.866  10.426  0.0970 -0.4651 -1.1477
13607TIP3   OH262311   1.070   3.770  14.222 -0.0947 -0.4859  0.1359
13607TIP3    H162312   1.003   3.735  14.164 -1.1298  0.7493  0.5185
13607TIP3    H262313   1.127   3.822  14.166 -1.8205  1.7449  0.3162
13608TIP3   OH262314   2.052   3.886  14.793  0.0752 -0.2662 -0.2888
13608TIP3    H162315   2.022   3.851  14.877 -0.0642 -1.2569 -0.7407
13608TIP3    H262316   2.038   3.815  14.731 -0.0703  0.5572 -1.2108
13609TIP3   OH262317   2.202   2.777  11.550  0.1153 -0.1795 -0.0016
13609TIP3    H162318   2.140   2.823  11.607  0.4138  1.1041 -0.6613
13609TIP3    H262319   2.210   2.834  11.474  2.4249 -0.0712  0.2442
13610TIP3   OH262320   1.992   5.673   4.215 -0.2025  0.1315  0.4240
13610TIP3    H162321   2.080   5.675   4.177 -0.9804 -0.5330 -1.5638
13610TIP3    H262322   1.958   5.761   4.199 -0.2113  0.1210  0.3833
13611TIP3   OH262323   1.675   4.994  12.077 -0.0825  0.6602  0.4565
13611TIP3    H162324   1.590   5.039  12.087 -0.4150  0.1884 -0.1986
13611TIP3    H262325   1.673   4.958  11.988  0.0528 -0.9058  1.0564
13612TIP3   OH262326   3.730   5.519  14.500 -0.1847 -0.1238  0.2469
13612TIP3    H162327   3.792   5.448  14.517 -0.1302 -0.2643 -0.4957
13612TIP3    H262328   3.667   5.513  14.572  1.2815  0.7427  1.6700
13613TIP3   OH262329   6.749   4.730  17.014  0.1144 -0.1818  0.0152
13613TIP3    H162330   6.675   4.789  17.031 -0.9571 -1.0281 -1.4120
13613TIP3    H262331   6.804   4.779  16.953  0.9305  0.5732  1.3180
13614TIP3   OH262332   2.700   4.076   0.036  0.4317 -0.1929  0.1304
13614TIP3    H162333   2.664   4.072  -0.052  0.3872 -1.8950  0.1854
13614TIP3    H262334   2.773   4.138   0.029 -0.4125  0.7351 -0.7566
13615TIP3   OH262335   4.603   1.768  12.411  0.4472  0.6958  0.6706
13615TIP3    H162336   4.560   1.682  12.408 -0.1665  0.9824  1.0876
13615TIP3    H262337   4.673   1.757  12.475  0.7225  0.3491  0.3129
13616TIP3   OH262338   6.160   4.394   5.759 -0.3287 -0.0357  0.5479
13616TIP3    H162339   6.227   4.448   5.718  0.6553 -0.1850  1.8864
13616TIP3    H262340   6.092   4.456   5.786 -1.6999 -0.0651 -2.4183
13617TIP3   OH262341   4.912   2.071   2.028  0.2548  0.3261 -0.1736
13617TIP3    H162342   4.821   2.090   2.051  0.1249 -0.5570  0.1136
13617TIP3    H262343   4.946   2.025   2.105  1.1885  1.3607  0.0415
13618TIP3   OH262344   1.365   3.337   3.161 -0.1179  0.4434 -0.5769
13618TIP3    H162345   1.307   3.399   3.117 -1.9004 -0.6557  0.0903
13618TIP3    H262346   1.452   3.376   3.154 -0.9736  2.3535 -1.3028
13619TIP3   OH262347   4.663   0.245  15.103 -0.2885  0.4527 -0.0166
13619TIP3    H162348   4.638   0.254  15.195  0.3665 -0.3882  0.2552
13619TIP3    H262349   4.724   0.171  15.102 -2.9093 -1.8564 -1.6357
13620TIP3   OH262350   6.721   5.458   4.191  0.8652  0.1118  0.4514
13620TIP3    H162351   6.731   5.386   4.253 -1.5177  0.9764  1.9741
13620TIP3    H262352   6.704   5.535   4.246 -1.8219  0.8343 -1.2105
13621TIP3   OH262353   2.776   0.992  16.157 -0.0204  0.4892  0.6010
13621TIP3    H162354   2.839   1.042  16.210  0.1815 -0.5232  1.3524
13621TIP3    H262355   2.787   1.025  16.068  3.4350 -1.3385  0.1745
13622TIP3   OH262356   0.757   3.684  15.151 -0.2867 -0.4151  0.5385
13622TIP3    H162357   0.666   3.670  15.178 -0.0441 -0.9349  1.1170
13622TIP3    H262358   0.801   3.602  15.172  0.5622  0.2176  1.3453
13623TIP3   OH262359   3.942   1.403  11.347 -0.8958 -0.1351 -0.4222
13623TIP3    H162360   3.880   1.348  11.298 -2.1792  1.3396 -0.5287
13623TIP3    H262361   3.956   1.480  11.291  1.6746 -0.7329 -0.7454
13624TIP3   OH262362   3.169   5.734  11.603 -0.3294  0.2993  0.8184
13624TIP3    H162363   3.183   5.757  11.512  1.3318 -1.9250  0.4422
13624TIP3    H262364   3.093   5.675  11.602 -0.1090  0.0158  0.8397
13625TIP3   OH262365   3.971   4.988  12.500 -0.4214 -0.3452  0.1608
13625TIP3    H162366   3.881   4.990  12.469 -0.7191 -0.1706  1.0257
13625TIP3    H262367   3.970   5.039  12.581  0.1332 -1.6350  1.0109
13626TIP3   OH262368   5.143   6.344   2.032 -0.0794 -0.1988 -0.1972
13626TIP3    H162369   5.233   6.315   2.041  0.3908  0.7312 -1.5571
13626TIP3    H262370   5.106   6.336   2.119  0.9900 -1.6252  0.1620
13627TIP3   OH262371   5.846   6.401   0.437 -0.0956  0.3367 -0.2303
13627TIP3    H162372   5.909   6.339   0.400  1.4500  0.7688  1.5128
13627TIP3    H262373   5.884   6.487   0.417 -0.9207  0.6535 -0.4528
13628TIP3   OH262374   2.474   2.060  13.137 -0.5279  0.4328  0.0215
13628TIP3    H162375   2.417   1.984  13.136  1.3121 -1.0307 -0.7985
13628TIP3    H262376   2.449   2.111  13.060 -1.1943  0.1973  0.0813
13629TIP3   OH262377   2.189   3.300   1.585  0.3769  0.0908  0.1352
13629TIP3    H162378   2.131   3.250   1.528  0.5867  0.1680 -0.1505
13629TIP3    H262379   2.134   3.327   1.658  0.7786 -2.5964  1.5712
13630TIP3   OH262380   3.435   0.921  16.119 -0.3351  0.3404 -0.1889
13630TIP3    H162381   3.481   0.996  16.080  0.1787  1.1034  1.7726
13630TIP3    H262382   3.479   0.844  16.082  1.5835  1.0486  0.4702
13631TIP3   OH262383   3.860   5.846  14.009 -0.6074 -0.3958 -0.1503
13631TIP3    H162384   3.780   5.827  13.959 -3.3314  0.6262  3.4502
13631TIP3    H262385   3.853   5.790  14.086  3.1176 -1.4592 -0.4074
13632TIP3   OH262386   6.296   3.233  13.691 -0.1456  0.3137 -0.3467
13632TIP3    H162387   6.273   3.297  13.624 -0.4590  1.2318  0.6211
13632TIP3    H262388   6.362   3.277  13.744  0.0246 -0.3701  0.0123
13633TIP3   OH262389   6.740   1.096   0.763 -0.9615  0.1193  0.4870
13633TIP3    H162390   6.738   1.184   0.725  1.2157  0.5893  1.3200
13633TIP3    H262391   6.710   1.039   0.693  1.4626  1.1219 -1.5227
13634TIP3   OH262392   0.244   3.481   4.675  0.4456  0.2096  0.6214
13634TIP3    H162393   0.238   3.500   4.769  1.5777  0.1532  0.7129
13634TIP3    H262394   0.332   3.507   4.651  0.4021 -0.4471 -0.2807
13635TIP3   OH262395   0.780   2.615   5.792  0.1151 -0.2118  0.0917
13635TIP3    H162396   0.867   2.582   5.814 -0.5510 -1.7362  0.5914
13635TIP3    H262397   0.786   2.710   5.806  1.0732 -0.5264  2.3563
13636TIP3   OH262398   2.646   6.352  11.243 -0.0114 -0.4561  0.7120
13636TIP3    H162399   2.725   6.300  11.255 -0.7719 -2.0064 -0.5407
13636TIP3    H262400   2.580   6.311  11.299 -0.3805 -0.2848  0.4151
13637TIP3   OH262401   1.290   3.171   1.409  0.0982  0.1856 -0.3744
13637TIP3    H162402   1.364   3.223   1.442 -0.7331  2.0426 -1.3192
13637TIP3    H262403   1.293   3.182   1.314 -0.7867 -0.5883 -0.5075
13638TIP3   OH262404   3.088   6.094   4.081 -0.1926 -0.3047  0.5347
13638TIP3    H162405   3.016   6.134   4.129 -0.8738  1.4970 -1.7869
13638TIP3    H262406   3.165   6.146   4.105 -0.5192  0.5529 -0.1996
13639TIP3   OH262407   1.468   1.316  16.483 -0.0816 -0.3490 -0.3904
13639TIP3    H162408   1.443   1.257  16.554 -0.1195  0.0722 -0.0484
13639TIP3    H262409   1.402   1.300  16.415 -0.3495 -0.3865 -0.1260
13640TIP3   OH262410   3.672   1.436   1.611 -0.1037 -0.1118  0.0412
13640TIP3    H162411   3.747   1.442   1.553  0.6638  1.6374  1.1558
13640TIP3    H262412   3.613   1.506   1.583 -0.4217 -0.2168  0.4252
13641TIP3   OH262413   3.672   4.372  15.604 -0.2320 -0.5267  0.3158
13641TIP3    H162414   3.692   4.361  15.697  0.2401  1.6186  0.5054
13641TIP3    H262415   3.587   4.417  15.603  1.6377  3.3435 -0.0748
13642TIP3   OH262416   1.817   4.857   1.292  0.0714 -0.1067 -0.1386
13642TIP3    H162417   1.735   4.811   1.307 -1.0579  0.1717 -4.1939
13642TIP3    H262418   1.795   4.925   1.228  3.2081  0.8608 -0.3697
13643TIP3   OH262419   6.808   0.752   5.967 -0.0224 -0.2411 -0.3450
13643TIP3    H162420   6.839   0.796   5.888 -0.4961  0.2543 -0.2697
13643TIP3    H262421   6.833   0.811   6.039  2.1204 -1.5831  0.1079
13644TIP3   OH262422   1.479   2.834  11.370  0.1552 -0.5772  0.1173
13644TIP3    H162423   1.524   2.863  11.290  1.5853 -2.7840  0.0399
13644TIP3    H262424   1.546   2.836  11.437 -0.8690  0.5875  1.1551
13645TIP3   OH262425   2.540   1.551  16.827  0.2794  0.3483  0.6767
13645TIP3    H162426   2.545   1.547  16.732 -0.7360  1.7857  0.5243
13645TIP3    H262427   2.631   1.556  16.855  0.5669  1.5044 -0.3443
13646TIP3   OH262428   0.162   0.709   6.402 -0.1441 -0.2261  0.2017
13646TIP3    H162429   0.253   0.722   6.428  0.1083 -0.1260 -0.6703
13646TIP3    H262430   0.118   0.789   6.430 -0.6119 -1.3987  3.1580
13647TIP3   OH262431   6.391   5.396  16.652  0.2913  0.1893  0.1344
13647TIP3    H162432   6.419   5.311  16.619 -0.1817  0.2846 -0.5171
13647TIP3    H262433   6.315   5.420  16.599 -1.8469 -0.6022  2.5721
13648TIP3   OH262434   6.743   6.802  11.206 -0.7218  0.1801 -0.0709
13648TIP3    H162435   6.763   6.745  11.281 -2.7279  0.0802  0.4335
13648TIP3    H262436   6.699   6.746  11.143 -0.6250  0.6717 -0.5877
13649TIP3   OH262437   4.798   3.433  12.790  0.4673  0.6766  0.2934
13649TIP3    H162438   4.843   3.516  12.802 -1.4304  1.5194  2.0445
13649TIP3    H262439   4.730   3.432  12.857 -0.8209 -1.4258 -0.9304
13650TIP3   OH262440   0.619   3.817  13.648  0.3370 -0.0778 -0.0725
13650TIP3    H162441   0.693   3.761  13.673  0.2710 -0.1364 -0.0084
13650TIP3    H262442   0.638   3.843  13.558  0.7622  0.4336  0.1587
13651TIP3   OH262443   6.470   0.604   1.895  0.0790 -0.3449 -0.0064
13651TIP3    H162444   6.491   0.529   1.950 -2.0000  0.1129  1.5111
13651TIP3    H262445   6.404   0.572   1.834  0.3764 -0.1601 -0.4289
13652TIP3   OH262446   2.211   3.817  12.026 -0.8531 -0.1068  0.3616
13652TIP3    H162447   2.258   3.818  11.943 -1.0583 -2.0254  0.1778
13652TIP3    H262448   2.279   3.820  12.093 -0.5466 -0.9705  0.1026
13653TIP3   OH262449   1.376   1.395   1.999  0.4339 -0.2050 -0.0857
13653TIP3    H162450   1.341   1.310   2.024  1.0107 -0.4373 -0.0674
13653TIP3    H262451   1.446   1.376   1.938 -0.8024  0.3491 -1.7551
13654TIP3   OH262452   3.945   5.460   0.500  0.1514  0.1110  0.0281
13654TIP3    H162453   3.950   5.405   0.578 -0.1973  0.9116  0.6277
13654TIP3    H262454   3.931   5.549   0.534 -1.3500  0.2922 -0.9586
13655TIP3   OH262455   4.071   3.240  11.562  0.2382  0.4394  0.0057
13655TIP3    H162456   3.984   3.215  11.594 -0.2854  1.1537 -0.8255
13655TIP3    H262457   4.057   3.320  11.512  1.0804 -0.3821 -1.6382
13656TIP3   OH262458   3.916   6.447   3.512  0.6334  0.3277 -0.1632
13656TIP3    H162459   3.864   6.367   3.520  1.3886 -0.0724  0.9088
13656TIP3    H262460   3.877   6.508   3.576  0.8116  0.3964 -0.1186
13657TIP3   OH262461   3.647   2.152  12.964  0.3418 -0.1852  0.2434
13657TIP3    H162462   3.620   2.069  13.003  1.4508 -0.4278  0.5467
13657TIP3    H262463   3.737   2.165  12.995  0.1664  1.1628  0.2410
13658TIP3   OH262464   4.457   0.216   5.325 -0.2832  0.0416 -0.3543
13658TIP3    H162465   4.529   0.199   5.263  0.5287  0.7229  0.3650
13658TIP3    H262466   4.490   0.185   5.409 -1.1806 -0.4195 -0.1654
13659TIP3   OH262467   4.198   3.249   2.860  0.8745  0.5243 -0.0332
13659TIP3    H162468   4.199   3.227   2.767 -1.1124  2.0947 -0.5080
13659TIP3    H262469   4.105   3.255   2.882  1.2995  0.1590  2.0894
13660TIP3   OH262470   4.853   0.688  13.505 -0.3577  0.6690 -0.1117
13660TIP3    H162471   4.929   0.633  13.521  0.3546  1.9860  1.2772
13660TIP3    H262472   4.866   0.765  13.560 -2.3811  1.2497 -0.3329
13661TIP3   OH262473   3.915   6.303  16.178  0.3343  0.3969 -0.3962
13661TIP3    H162474   3.826   6.270  16.188 -0.5495  2.8147  0.3005
13661TIP3    H262475   3.949   6.257  16.101 -0.8772 -1.8038  0.2835
13662TIP3   OH262476   3.908   2.118  11.983  0.4795  0.0749  0.7630
13662TIP3    H162477   3.816   2.118  12.008  0.3507 -0.5617  0.3131
13662TIP3    H262478   3.953   2.162  12.056 -0.2422  0.9172  0.7106
13663TIP3   OH262479   5.432   0.975   4.451  0.1266  0.1141 -0.1906
13663TIP3    H162480   5.404   1.023   4.374  1.2497 -0.9525 -1.3355
13663TIP3    H262481   5.488   1.036   4.499 -0.1210  0.6139 -0.5360
13664TIP3   OH262482   5.667   6.270   5.567  0.2225 -0.7134 -0.3559
13664TIP3    H162483   5.714   6.301   5.644 -1.3011 -1.2970  0.8789
13664TIP3    H262484   5.733   6.226   5.513  1.6019  0.9838 -0.1314
13665TIP3   OH262485   0.090   1.011   5.453  0.7425 -0.0000 -0.6319
13665TIP3    H162486   0.177   1.044   5.432  0.3080  1.8983  0.3770
13665TIP3    H262487   0.043   1.011   5.370  1.5666 -0.6995 -1.1159
13666TIP3   OH262488   1.878   5.462  11.296  0.0521 -0.0053 -0.2478
13666TIP3    H162489   1.960   5.424  11.327  0.3181 -1.6059 -2.6042
13666TIP3    H262490   1.811   5.400  11.323  0.0438 -0.3769 -1.0971
13667TIP3   OH262491   5.306   4.401  13.424  0.2613 -0.1861  0.1777
13667TIP3    H162492   5.280   4.335  13.359  3.4187 -0.3573 -1.1123
13667TIP3    H262493   5.279   4.484  13.386 -0.3911 -0.4861 -0.0176
13668TIP3   OH262494   6.831   4.690  14.146  0.0362 -0.0224 -0.3374
13668TIP3    H162495   6.819   4.596  14.159 -1.0447  0.3476  1.6643
13668TIP3    H262496   6.747   4.721  14.114 -1.5448  0.9865  4.0612
13669TIP3   OH262497   0.561   2.509   4.921 -0.1795  0.2323 -0.7646
13669TIP3    H162498   0.556   2.597   4.885  0.2124  1.0065  1.0088
13669TIP3    H262499   0.546   2.520   5.015  4.1393 -1.0014  0.2675
13670TIP3   OH262500   0.201   0.829  11.883  0.3193 -0.0590  0.4648
13670TIP3    H162501   0.162   0.853  11.799  1.2352  1.7427  0.5018
13670TIP3    H262502   0.291   0.861  11.877  0.2708  0.4857  2.2953
13671TIP3   OH262503   2.914   2.342   1.374 -0.0467  0.2087 -0.1621
13671TIP3    H162504   2.951   2.319   1.289  0.0808 -0.1557 -0.0124
13671TIP3    H262505   2.823   2.363   1.356  0.1089  0.6254 -0.4608
13672TIP3   OH262506   5.596   4.107  14.842  0.7878  0.6510 -0.1881
13672TIP3    H162507   5.565   4.172  14.779  0.9801 -0.0086 -0.9911
13672TIP3    H262508   5.534   4.112  14.914 -0.6243  0.0782 -1.3072
13673TIP3   OH262509   1.944   0.008   3.133  0.6841  0.6693  0.6061
13673TIP3    H162510   2.006   0.060   3.183  0.1172  0.8196  1.1677
13673TIP3    H262511   1.864   0.061   3.131  0.0906 -0.1705  1.1935
13674TIP3   OH262512   2.311   6.236   5.334  0.6190 -0.0997 -0.1203
13674TIP3    H162513   2.344   6.220   5.246 -0.3066  0.5081 -0.5818
13674TIP3    H262514   2.227   6.279   5.322  0.5030  0.0502  1.0630
13675TIP3   OH262515   6.070   5.251   0.278 -0.6316 -0.7493  0.1655
13675TIP3    H162516   6.043   5.332   0.320  2.9668  0.0967  1.2571
13675TIP3    H262517   6.066   5.186   0.348  0.3608 -0.5255  0.4525
13676TIP3   OH262518   3.620   4.042  11.853  0.0771  0.1224 -0.0724
13676TIP3    H162519   3.583   3.967  11.900  1.7139  0.6714  2.2700
13676TIP3    H262520   3.608   4.021  11.760  0.8023 -3.2046  0.4762
13677TIP3   OH262521   3.702   4.259   3.872  0.1091 -0.3614  0.5540
13677TIP3    H162522   3.676   4.215   3.791 -1.7313 -0.0940  0.9513
13677TIP3    H262523   3.691   4.352   3.852  3.0276 -0.0552  0.0354
13678TIP3   OH262524   4.662   1.548   3.233 -0.3244  0.4670 -0.3919
13678TIP3    H162525   4.685   1.598   3.156 -0.8079  0.6847 -0.4007
13678TIP3    H262526   4.715   1.585   3.304  1.3866 -0.8421 -0.9324
13679TIP3   OH262527   0.785   1.737  11.995  0.0166 -0.4744 -0.0348
13679TIP3    H162528   0.878   1.715  11.991 -0.2395 -1.4634 -1.0851
13679TIP3    H262529   0.767   1.780  11.911 -0.2244  0.8176  0.6583
13680TIP3   OH262530   6.637   4.923   6.115  0.3741  0.4884  0.0760
13680TIP3    H162531   6.653   4.983   6.043 -0.0284  2.3228  1.4363
13680TIP3    H262532   6.542   4.919   6.123  0.4163  0.3666  0.5599
13681TIP3   OH262533   5.837   3.959  14.833  0.1287 -1.0599  0.2765
13681TIP3    H162534   5.746   3.964  14.859  0.0005  1.2020 -0.4316
13681TIP3    H262535   5.883   4.017  14.894  0.6245  0.0396 -1.0840
13682TIP3   OH262536   3.199   6.097  11.340 -0.4604  0.6629  0.1682
13682TIP3    H162537   3.130   6.053  11.291 -1.4453  0.3095  1.7957
13682TIP3    H262538   3.269   6.110  11.276 -1.6370  0.1605 -1.2913
13683TIP3   OH262539   0.784   0.376  11.405  0.0156  0.4338 -0.0241
13683TIP3    H162540   0.689   0.386  11.401  0.1403  1.3687 -1.0015
13683TIP3    H262541   0.804   0.308  11.341 -0.0369 -0.2220  0.6374
13684TIP3   OH262542   5.236   2.073   1.339 -0.1410 -0.1102  0.6491
13684TIP3    H162543   5.283   2.016   1.279  0.4167  0.1925  0.7899
13684TIP3    H262544   5.231   2.157   1.294 -0.0003  0.0287  0.8870
13685TIP3   OH262545   4.745   0.184   3.479  0.1782 -0.3508  0.1609
13685TIP3    H162546   4.831   0.217   3.455 -0.6657  0.4438 -2.0443
13685TIP3    H262547   4.741   0.195   3.574  2.2831  0.1067  0.2383
13686TIP3   OH262548   5.256   5.359  12.520 -0.4866 -0.1315  0.5440
13686TIP3    H162549   5.275   5.449  12.548  2.6094 -0.7580  0.9169
13686TIP3    H262550   5.207   5.368  12.438  0.8694  1.9547 -0.1063
13687TIP3   OH262551   4.120   2.662   0.723  0.2158 -0.0215  0.2131
13687TIP3    H162552   4.192   2.714   0.758 -0.1941  1.5498 -1.1277
13687TIP3    H262553   4.044   2.687   0.775 -0.0218  0.9258 -0.5587
13688TIP3   OH262554   6.031   3.365  11.717  0.3656 -0.5256 -0.6347
13688TIP3    H162555   6.072   3.447  11.745 -0.0329 -0.1208 -1.2145
13688TIP3    H262556   6.092   3.297  11.744  0.2087 -0.1274  0.8445
13689TIP3   OH262557   0.694   0.329   0.782 -0.7549  0.3575 -0.9299
13689TIP3    H162558   0.695   0.272   0.859 -0.1394  0.7266 -0.6535
13689TIP3    H262559   0.627   0.292   0.725  0.0092 -0.9668 -1.0026
13690TIP3   OH262560   4.048   2.868   3.254  0.4155 -0.0736  0.1006
13690TIP3    H162561   4.118   2.928   3.279  0.1508  0.1110  0.4004
13690TIP3    H262562   4.074   2.783   3.291  0.3658  0.0457  0.4123
13691TIP3   OH262563   4.855   4.426  12.459 -0.7316  0.5826  0.0461
13691TIP3    H162564   4.893   4.378  12.386  0.1122  0.0144  0.8388
13691TIP3    H262565   4.931   4.458  12.509 -1.1837  3.7215 -1.0186
13692TIP3   OH262566   2.751   6.450  15.102 -0.1647  0.6581  0.1847
13692TIP3    H162567   2.772   6.357  15.098  0.6123  0.8265 -3.8043
13692TIP3    H262568   2.666   6.458  15.059 -0.2601  1.7763  0.5308
13693TIP3   OH262569   5.127   1.033  13.185 -0.0413 -0.0101 -0.8945
13693TIP3    H162570   5.215   1.013  13.217 -0.2436 -0.4353 -0.6105
13693TIP3    H262571   5.068   0.993  13.248 -0.4510  1.0485 -0.5825
13694TIP3   OH262572   0.701   3.104  16.347 -0.0808 -0.2264 -0.4048
13694TIP3    H162573   0.686   3.181  16.402  0.2662 -1.0857  0.9465
13694TIP3    H262574   0.614   3.065  16.338 -0.1066 -0.1935 -0.3022
13695TIP3   OH262575   3.387   4.413  12.422 -0.3100  0.2237  0.8099
13695TIP3    H162576   3.336   4.408  12.341 -0.6943  2.1801  0.8668
13695TIP3    H262577   3.476   4.435  12.393 -0.3220  0.3779  0.8919
13696TIP3   OH262578   6.804   1.712   2.932 -0.2252  0.1921  0.0479
13696TIP3    H162579   6.859   1.744   2.861 -1.4883  0.8763 -0.6486
13696TIP3    H262580   6.840   1.753   3.011 -0.0966  1.0821 -0.4699
13697TIP3   OH262581   6.114   0.272   6.185 -0.3824  0.0249 -0.2872
13697TIP3    H162582   6.191   0.276   6.129 -0.4639  0.9249 -0.3580
13697TIP3    H262583   6.080   0.362   6.184 -0.2244  0.1264  1.4288
13698TIP3   OH262584   5.433   4.161   5.522  0.1448  0.1954  0.3685
13698TIP3    H162585   5.380   4.211   5.461  2.5482  0.5967 -1.5408
13698TIP3    H262586   5.381   4.083   5.541 -1.1243  0.5626 -1.3873
13699TIP3   OH262587   1.666   0.372  16.808  0.4075  0.0876  0.1011
13699TIP3    H162588   1.578   0.345  16.834 -1.0904  3.1319 -1.2170
13699TIP3    H262589   1.701   0.418  16.885 -1.2626  3.1182 -0.7722
13700TIP3   OH262590   3.670   0.194   6.067 -0.1031 -0.3707 -0.6883
13700TIP3    H162591   3.745   0.252   6.076 -0.3637  0.0263 -1.0172
13700TIP3    H262592   3.628   0.196   6.153  0.2199 -0.5419 -0.5240
13701TIP3   OH262593   4.218   2.588  16.320 -0.6306 -0.7379  0.3943
13701TIP3    H162594   4.270   2.658  16.359  1.5186 -1.4195 -1.0752
13701TIP3    H262595   4.216   2.519  16.388 -0.0394 -0.5024  0.6531
13702TIP3   OH262596   0.592   5.447   4.494 -0.7970  0.0480 -0.1218
13702TIP3    H162597   0.638   5.462   4.412 -0.2556 -2.0817 -0.2588
13702TIP3    H262598   0.662   5.435   4.559 -1.2053  2.2083  0.8229
13703TIP3   OH262599   3.137   6.507  13.587 -0.8064 -0.3854 -0.8170
13703TIP3    H162600   3.204   6.524  13.520 -0.8409  1.7901 -0.3715
13703TIP3    H262601   3.119   6.593  13.625 -2.1406 -1.2950  0.7250
13704TIP3   OH262602   0.190   6.185  11.768 -0.5191  0.0241 -0.3960
13704TIP3    H162603   0.156   6.128  11.838  0.3820 -0.2527 -0.1717
13704TIP3    H262604   0.111   6.221  11.727 -1.0740  1.1924  1.5576
13705TIP3   OH262605   4.011   3.636  13.688  0.9149 -0.2753 -0.3451
13705TIP3    H162606   4.051   3.711  13.643 -1.7362  0.3178 -1.9144
13705TIP3    H262607   4.044   3.559  13.641  1.5879  0.0562 -0.4328
13706TIP3   OH262608   3.616   1.912   3.864  0.1385 -0.5391  0.1844
13706TIP3    H162609   3.701   1.952   3.884  0.4618 -1.3964  0.5841
13706TIP3    H262610   3.631   1.818   3.874 -0.5685 -0.7782 -0.8460
13707TIP3   OH262611   0.948   0.407  15.541  0.4586 -0.5021 -0.2619
13707TIP3    H162612   0.939   0.315  15.566  2.2653 -0.2299  1.6181
13707TIP3    H262613   1.042   0.421  15.533  0.3354  1.5399  1.0034
13708TIP3   OH262614   2.519   5.639  13.419 -0.3145 -0.0602 -0.4447
13708TIP3    H162615   2.566   5.669  13.341  0.8594 -0.9384 -0.1004
13708TIP3    H262616   2.483   5.554  13.394  1.1102 -0.9354  0.3033
13709TIP3   OH262617   2.381   3.480   4.318  0.3096  0.4555 -0.4044
13709TIP3    H162618   2.465   3.522   4.332  0.4654  0.6460 -1.7960
13709TIP3    H262619   2.401   3.396   4.277  0.0133 -1.1699  2.4849
13710TIP3   OH262620   6.688   6.769  10.417  0.0493 -0.0061  0.4605
13710TIP3    H162621   6.626   6.842  10.418 -0.5912 -0.5401  1.0763
13710TIP3    H262622   6.638   6.695  10.453  0.9280 -0.5446  0.5945
13711TIP3   OH262623   5.349   1.171  14.162 -0.5909 -0.0356 -0.2246
13711TIP3    H162624   5.301   1.238  14.210  0.8776  3.9935 -3.7422
13711TIP3    H262625   5.438   1.176  14.195 -0.5926 -0.7104 -0.1053
13712TIP3   OH262626   4.021   5.407  12.574  0.0300 -0.1586 -0.0856
13712TIP3    H162627   4.081   5.361  12.515  0.7344  0.8196 -0.1620
13712TIP3    H262628   4.039   5.371  12.660 -0.9199 -1.5154 -0.4364
13713TIP3   OH262629   5.846   5.402  14.829  0.0680  0.3771 -0.2251
13713TIP3    H162630   5.853   5.307  14.815 -1.7722 -0.1084  1.5913
13713TIP3    H262631   5.783   5.431  14.763  0.1185  0.2117 -0.3475
13714TIP3   OH262632   3.644   3.183  16.418 -0.2535  0.8648  0.2248
13714TIP3    H162633   3.594   3.262  16.442  1.3332  2.2195 -0.7197
13714TIP3    H262634   3.726   3.217  16.383 -0.3960 -1.1595 -2.3126
13715TIP3   OH262635   0.105   3.241   2.026  0.2457 -0.3752 -0.6272
13715TIP3    H162636   0.076   3.294   2.100  0.8640  0.4013 -0.9197
13715TIP3    H262637   0.201   3.251   2.026  0.2663 -0.5287 -1.4038
13716TIP3   OH262638   5.688   4.051  13.939  0.8277 -0.1686 -0.3084
13716TIP3    H162639   5.637   4.109  13.883 -0.6713  0.4558  1.6049
13716TIP3    H262640   5.652   3.964  13.923  1.3812 -0.2215 -1.3345
13717TIP3   OH262641   4.453   5.109  16.436 -0.1624 -0.4251  0.2765
13717TIP3    H162642   4.537   5.143  16.465  0.1236 -0.7541 -0.1544
13717TIP3    H262643   4.474   5.025  16.394 -0.2027  1.1384 -3.1708
13718TIP3   OH262644   1.803   3.453  13.050 -0.3212  0.4013 -0.0448
13718TIP3    H162645   1.804   3.443  13.145  1.2819 -0.2029 -0.1044
13718TIP3    H262646   1.887   3.418  13.021 -0.2524  1.6975 -1.5702
13719TIP3   OH262647   5.921   1.551  15.838  0.8531 -0.1690  0.0519
13719TIP3    H162648   5.950   1.474  15.888  1.6032 -0.1058 -0.2620
13719TIP3    H262649   5.896   1.614  15.905 -0.2376 -0.8450  0.3095
13720TIP3   OH262650   1.997   5.472  15.329  0.4018 -0.0788 -0.0753
13720TIP3    H162651   2.030   5.561  15.341 -1.8795  0.7226  0.9807
13720TIP3    H262652   2.062   5.429  15.275  1.7668  2.1202 -0.3111
13721TIP3   OH262653   6.834   1.779  12.806 -0.1415 -0.5010  0.3221
13721TIP3    H162654   6.769   1.715  12.777 -0.6663  0.6356 -1.1072
13721TIP3    H262655   6.843   1.763  12.900 -2.1132 -1.0090  0.4565
13722TIP3   OH262656   4.541   2.321   4.915 -0.2065 -0.0775 -0.0421
13722TIP3    H162657   4.577   2.334   5.002  1.3467 -2.5048 -0.2586
13722TIP3    H262658   4.565   2.401   4.867  0.5120  0.4867  1.2108
13723TIP3   OH262659   4.908   4.937  17.071  0.0967 -0.1656  0.0633
13723TIP3    H162660   4.969   4.926  16.997 -0.8642  0.6146 -0.8765
13723TIP3    H262661   4.961   4.976  17.140  0.5089  1.2498 -1.0111
13724TIP3   OH262662   4.732   0.854  15.740 -0.5067 -0.4444 -0.0990
13724TIP3    H162663   4.750   0.791  15.671 -0.5155 -0.2715 -0.2592
13724TIP3    H262664   4.817   0.891  15.762 -0.5908  0.0227 -0.5226
13725TIP3   OH262665   2.181   1.106   1.483 -0.1808 -0.8481  0.0136
13725TIP3    H162666   2.229   1.099   1.565 -0.1814 -1.3798 -0.0268
13725TIP3    H262667   2.246   1.138   1.420 -0.5365  1.0357  0.5267
13726TIP3   OH262668   6.139   3.864   0.457 -0.5032 -0.2316  1.1894
13726TIP3    H162669   6.211   3.924   0.471 -0.8492  0.4842  0.0501
13726TIP3    H262670   6.083   3.874   0.534  0.6234 -0.8329  2.1006
13727TIP3   OH262671   2.720   3.578  15.556 -0.0352 -0.3522 -0.1203
13727TIP3    H162672   2.743   3.550  15.645  2.5709  3.0654  0.5155
13727TIP3    H262673   2.798   3.559  15.504 -0.0773  1.0730 -0.7535
13728TIP3   OH262674   4.870   6.782   0.529  0.5349  0.6368 -0.0916
13728TIP3    H162675   4.942   6.725   0.554  0.8002  0.4074 -1.3088
13728TIP3    H262676   4.912   6.858   0.489  0.1110 -0.1187 -2.0806
13729TIP3   OH262677   2.601   1.670  16.564 -0.3638  0.5002  0.3395
13729TIP3    H162678   2.677   1.728  16.557  0.0211 -0.1538 -1.3371
13729TIP3    H262679   2.560   1.674  16.478 -1.5079 -0.1479  0.8352
13730TIP3   OH262680   3.338   0.393  16.175  0.1142 -0.1362  0.3984
13730TIP3    H162681   3.324   0.343  16.256 -0.7119 -1.8220 -0.7105
13730TIP3    H262682   3.277   0.466  16.181  1.9942  1.3988  2.4813
13731TIP3   OH262683   6.198   1.969  15.559 -0.0298 -0.0224  0.1806
13731TIP3    H162684   6.108   1.970  15.592  0.4281 -1.7365  1.6958
13731TIP3    H262685   6.245   1.913  15.621  1.6270 -0.8517 -1.6927
13732TIP3   OH262686   2.051   2.861  15.039  0.2588 -0.1662 -0.0138
13732TIP3    H162687   2.111   2.899  15.103 -2.5383  1.2479  1.9482
13732TIP3    H262688   1.998   2.934  15.008 -2.3028 -1.7141  0.4616
13733TIP3   OH262689   2.959   5.561  12.202 -0.2794  0.3442  0.0062
13733TIP3    H162690   3.053   5.579  12.206 -0.4391  1.0010  1.9561
13733TIP3    H262691   2.953   5.468  12.180  0.9020 -0.1381  1.5486
13734TIP3   OH262692   1.994   5.093   3.883 -0.0494 -0.0251 -0.1239
13734TIP3    H162693   2.005   5.075   3.976  0.2704 -2.3306 -0.5394
13734TIP3    H262694   2.082   5.115   3.852  0.0461 -0.3370 -0.0768
13735TIP3   OH262695   6.203   6.281  13.722 -0.7469  0.0168  0.2978
13735TIP3    H162696   6.110   6.279  13.702 -0.5618  0.3776 -0.6459
13735TIP3    H262697   6.214   6.219  13.794 -1.5950 -0.5736 -0.0777
13736TIP3   OH262698   4.735   2.329   0.121  0.2612 -0.0427 -0.2476
13736TIP3    H162699   4.817   2.295   0.086  0.8145 -1.5456  2.2316
13736TIP3    H262700   4.759   2.370   0.204 -1.5146 -1.1042  0.8741
13737TIP3   OH262701   1.272   0.664  12.744  0.2544  0.2428  0.3808
13737TIP3    H162702   1.225   0.581  12.741 -1.0308  0.9485  0.3769
13737TIP3    H262703   1.211   0.725  12.785  0.0052  1.8988 -2.2090
13738TIP3   OH262704   0.927   4.364   0.474 -0.3323 -1.0148 -0.6873
13738TIP3    H162705   1.021   4.384   0.471 -0.2510 -1.4083 -1.0549
13738TIP3    H262706   0.921   4.276   0.436 -0.7471 -1.3839  0.2124
13739TIP3   OH262707   5.019   2.552   0.061 -0.7422 -0.1308 -0.4020
13739TIP3    H162708   5.016   2.457   0.056 -0.7223 -0.1284 -0.4558
13739TIP3    H262709   5.112   2.574   0.060 -0.7413 -0.1203 -0.2193
13740TIP3   OH262710   3.600   0.605   6.695  0.9006  0.6064  0.1206
13740TIP3    H162711   3.646   0.622   6.612  3.2476 -0.7401  1.0485
13740TIP3    H262712   3.660   0.550   6.744 -0.8854  0.5193  2.3366
13741TIP3   OH262713   5.378   2.505  16.381 -0.3783  0.3774 -0.4649
13741TIP3    H162714   5.433   2.428  16.371 -1.0157 -0.3991  1.5277
13741TIP3    H262715   5.438   2.579  16.368  0.5634 -0.4408 -0.8855
13742TIP3   OH262716   0.702   2.995  15.323 -0.2826  0.0766  0.6083
13742TIP3    H162717   0.692   3.089  15.337 -0.8767  0.3536 -1.2780
13742TIP3    H262718   0.616   2.958  15.344 -1.3362  0.5565 -2.3194
13743TIP3   OH262719   1.585   5.346   3.418  0.4024 -0.3191 -0.0091
13743TIP3    H162720   1.614   5.407   3.486  1.9527 -0.4813 -0.4867
13743TIP3    H262721   1.573   5.263   3.464 -1.5095  0.2488  0.6037
13744TIP3   OH262722   2.279   5.676  11.881  0.3940 -0.4247 -0.1616
13744TIP3    H162723   2.296   5.607  11.946  2.8558 -0.2178 -0.5159
13744TIP3    H262724   2.224   5.739  11.927  0.9083 -0.9849  1.2699
13745TIP3   OH262725   2.829   5.214   2.724  0.3775 -0.6937 -0.0017
13745TIP3    H162726   2.772   5.260   2.785 -0.0220 -2.9941  1.5150
13745TIP3    H262727   2.917   5.243   2.746  0.0309  0.6794 -0.3558
13746TIP3   OH262728   2.049   4.650   6.282 -0.2257  0.0730  0.2149
13746TIP3    H162729   2.032   4.562   6.317 -0.9208  0.1051 -0.0286
13746TIP3    H262730   2.130   4.677   6.325 -0.1508 -0.5739  0.5049
13747TIP3   OH262731   4.960   2.995  14.600  0.3560 -0.1901  0.0602
13747TIP3    H162732   4.908   3.052  14.544  2.0460  1.9213  0.4828
13747TIP3    H262733   4.949   3.030  14.688 -0.1119 -1.7749  0.6664
13748TIP3   OH262734   0.080   3.803   1.810  0.4221  0.2073 -0.0866
13748TIP3    H162735   0.067   3.725   1.865 -0.5908  0.1951 -0.3364
13748TIP3    H262736   0.166   3.788   1.770  1.3674  0.3771  1.7192
13749TIP3   OH262737   1.365   1.874   3.756 -0.3556  0.3407  0.1796
13749TIP3    H162738   1.369   1.928   3.677 -0.8672 -0.0066 -0.0850
13749TIP3    H262739   1.372   1.936   3.828  0.4996  0.6289 -0.1340
13750TIP3   OH262740   2.551   4.132   2.315  0.0537  0.0302  0.2247
13750TIP3    H162741   2.523   4.059   2.371  3.7232 -0.7070  1.3621
13750TIP3    H262742   2.599   4.190   2.374  0.3552  1.4778 -1.3872
13751TIP3   OH262743   5.110   2.767   0.826 -0.4542 -0.1751 -0.1146
13751TIP3    H162744   5.144   2.722   0.902  0.1718  0.3087 -0.1011
13751TIP3    H262745   5.149   2.854   0.830  0.4322 -0.4686 -1.5519
13752TIP3   OH262746   1.418   1.384   1.603 -0.0399 -0.0196 -0.3074
13752TIP3    H162747   1.462   1.381   1.518  0.5387 -2.4404  0.0060
13752TIP3    H262748   1.399   1.292   1.624 -0.7535  0.5646  1.8877
13753TIP3   OH262749   0.890   3.528  16.903  0.0233 -0.0778 -0.5118
13753TIP3    H162750   0.927   3.551  16.988  1.8839 -0.5738 -1.1583
13753TIP3    H262751   0.795   3.536  16.916  0.3141  1.2998  1.1711
13754TIP3   OH262752   1.846   2.636   4.837  0.0576 -0.3658  0.5988
13754TIP3    H162753   1.762   2.647   4.882 -0.7771 -0.7080 -0.8159
13754TIP3    H262754   1.845   2.545   4.807  0.1690  0.1158 -0.9222
13755TIP3   OH262755   1.389   0.978  16.044  0.5249  0.0631  0.3393
13755TIP3    H162756   1.473   1.023  16.047  0.1479  0.8793 -0.7116
13755TIP3    H262757   1.325   1.044  16.073  0.0696 -0.0673 -0.3495
13756TIP3   OH262758   6.139   4.475  11.686 -0.0520  0.3803 -0.4740
13756TIP3    H162759   6.190   4.550  11.657  0.2129  0.4096  0.0567
13756TIP3    H262760   6.162   4.464  11.778 -0.8305  0.2476 -0.2900
13757TIP3   OH262761   1.731   2.621   1.273 -0.1305 -0.3032  0.1754
13757TIP3    H162762   1.712   2.533   1.242 -0.6697  0.5203 -2.0246
13757TIP3    H262763   1.694   2.624   1.361  1.5580 -2.8088  1.0964
13758TIP3   OH262764   4.110   6.581   2.088 -0.1695  0.7911 -0.1401
13758TIP3    H162765   4.195   6.618   2.113  0.2766  0.6134 -1.3234
13758TIP3    H262766   4.048   6.653   2.103  0.3966  1.3895 -0.5815
13759TIP3   OH262767   1.466   1.910   2.248  0.1067 -0.3021  0.0251
13759TIP3    H162768   1.462   1.841   2.181  0.2880  1.6885 -2.1823
13759TIP3    H262769   1.376   1.940   2.257 -0.0021 -0.9357  1.1182
13760TIP3   OH262770   5.243   5.957   6.020 -0.8815 -0.0272  0.6174
13760TIP3    H162771   5.293   6.038   6.008  0.7495 -1.1285 -0.3227
13760TIP3    H262772   5.254   5.937   6.113 -1.1586  0.7348  0.8239
13761TIP3   OH262773   1.133   2.717   2.171 -0.2154 -0.2639 -0.0761
13761TIP3    H162774   1.081   2.769   2.109 -0.5370 -0.5918 -0.0859
13761TIP3    H262775   1.098   2.628   2.162 -0.5115 -0.2439  0.8506
13762TIP3   OH262776   3.949   4.583  14.239  0.1285  0.2819 -0.2110
13762TIP3    H162777   3.872   4.544  14.279  0.4870  1.1283  1.3646
13762TIP3    H262778   4.018   4.518  14.251  0.0213  0.1509 -0.2962
13763TIP3   OH262779   4.446   4.366   2.821 -0.2551  0.2400  0.4233
13763TIP3    H162780   4.491   4.288   2.853 -0.5268 -1.7152 -3.3272
13763TIP3    H262781   4.361   4.364   2.866  0.5765 -0.3177  2.0349
13764TIP3   OH262782   3.582   3.151   5.108 -0.8343 -0.2159  0.0450
13764TIP3    H162783   3.574   3.244   5.129 -0.4194 -0.6536  2.4413
13764TIP3    H262784   3.501   3.130   5.063 -0.3676  1.5668 -1.7645
13765TIP3   OH262785   4.219   5.210  11.195 -0.3013 -0.0876 -0.0843
13765TIP3    H162786   4.296   5.267  11.203  0.4885 -1.2445  0.8022
13765TIP3    H262787   4.157   5.262  11.143  0.7221  1.2243 -0.0621
13766TIP3   OH262788   1.431   4.536  16.154  0.0077  0.1771  0.8593
13766TIP3    H162789   1.390   4.615  16.189 -1.2319 -0.5436  1.0909
13766TIP3    H262790   1.366   4.498  16.096  1.5901  0.6974 -1.3770
13767TIP3   OH262791   6.347   5.161  11.421  0.0410 -0.0981  0.1025
13767TIP3    H162792   6.299   5.242  11.406  0.0697  0.3361  2.0641
13767TIP3    H262793   6.411   5.183  11.489  2.0094 -1.0531 -1.3602
13768TIP3   OH262794   0.962   5.772   5.593  0.1696  0.1571 -0.0865
13768TIP3    H162795   1.021   5.793   5.520 -2.0581  0.3047 -1.9274
13768TIP3    H262796   0.962   5.851   5.647  1.8045  0.0663  0.1069
13769TIP3   OH262797   4.563   6.456   4.367 -0.2903  0.2200  0.5211
13769TIP3    H162798   4.657   6.444   4.379  0.4000  3.1865 -0.8785
13769TIP3    H262799   4.548   6.439   4.274 -1.3271 -0.9696  0.8748
13770TIP3   OH262800   4.558   4.440  15.861  0.5006 -0.1799 -0.0139
13770TIP3    H162801   4.536   4.353  15.892  0.9365  0.2241  1.5079
13770TIP3    H262802   4.484   4.465  15.806  0.2110 -1.3625 -0.1820
13771TIP3   OH262803   0.390   1.843  13.480 -0.7581 -0.3592 -0.3887
13771TIP3    H162804   0.354   1.852  13.391 -1.2297  0.6902 -0.0995
13771TIP3    H262805   0.366   1.754  13.506 -1.6133 -0.2835 -0.8819
13772TIP3   OH262806   5.968   6.593  11.222 -0.5064 -0.3185  0.8102
13772TIP3    H162807   5.926   6.674  11.251  0.6760  0.9426 -0.7947
13772TIP3    H262808   5.932   6.577  11.135  0.1817 -0.8294  0.6151
13773TIP3   OH262809   5.209   6.852  15.538  0.2708 -0.0367  0.1365
13773TIP3    H162810   5.127   6.848  15.488 -0.2197  0.2447  0.8931
13773TIP3    H262811   5.214   6.943  15.567  2.1821  0.6414 -2.0487
13774TIP3   OH262812   0.761   0.198   1.427  0.7847  0.0558  0.4941
13774TIP3    H162813   0.692   0.252   1.467  0.4747  1.2492 -1.5270
13774TIP3    H262814   0.735   0.108   1.446  0.3300  0.5320  2.3698
13775TIP3   OH262815   0.689   0.694  14.096 -0.1275  0.3489 -0.0731
13775TIP3    H162816   0.781   0.704  14.069  0.0746  0.1861  0.5301
13775TIP3    H262817   0.652   0.631  14.034  0.0601  0.7240 -0.5678
13776TIP3   OH262818   3.450   0.153   2.421  0.1742 -0.1215  0.4768
13776TIP3    H162819   3.511   0.147   2.348 -2.3832 -1.4325 -1.7312
13776TIP3    H262820   3.467   0.074   2.472  0.4841 -0.3534  0.0236
13777TIP3   OH262821   0.495   4.872  12.975  0.2497  0.2068  0.5283
13777TIP3    H162822   0.583   4.835  12.973  0.4144  0.5712  0.8142
13777TIP3    H262823   0.485   4.903  13.065  0.0689  0.7332  0.3318
13778TIP3   OH262824   2.326   1.636  16.627  0.5488  0.1411 -0.0942
13778TIP3    H162825   2.420   1.638  16.613  0.6278 -1.5055  0.0569
13778TIP3    H262826   2.294   1.570  16.566 -0.5571  0.8792 -0.3499
13779TIP3   OH262827   4.690   2.238  10.906 -0.8206 -0.6580 -0.0893
13779TIP3    H162828   4.745   2.262  10.831 -0.2639  2.8286  1.2449
13779TIP3    H262829   4.656   2.151  10.884  2.1365 -1.3252 -2.7100
13780TIP3   OH262830   3.605   0.813   3.352 -0.3400  0.0543 -0.0701
13780TIP3    H162831   3.651   0.729   3.360 -1.4523 -0.9269 -2.8422
13780TIP3    H262832   3.674   0.878   3.344  0.7674 -1.3417 -3.8081
13781TIP3   OH262833   1.571   1.751   2.496 -0.2218  0.0031  0.1655
13781TIP3    H162834   1.540   1.805   2.423 -0.8200  0.8463  1.0075
13781TIP3    H262835   1.491   1.713   2.533 -0.1687  1.2307  1.6270
13782TIP3   OH262836   1.277   1.336   4.722 -0.2892 -0.1787  0.0477
13782TIP3    H162837   1.232   1.321   4.805  1.9581 -3.1613  0.8737
13782TIP3    H262838   1.341   1.404   4.741  0.3398 -0.9784  0.8538
13783TIP3   OH262839   5.743   0.430  15.997 -0.0426 -0.9483  0.4306
13783TIP3    H162840   5.806   0.497  15.971  1.1020 -1.6780  1.2000
13783TIP3    H262841   5.668   0.442  15.938  0.2940  0.7327  0.3068
13784TIP3   OH262842   5.125   5.299  15.839  0.7592 -0.2261 -0.1399
13784TIP3    H162843   5.161   5.246  15.767 -0.8605  0.2432 -1.3721
13784TIP3    H262844   5.102   5.235  15.907 -0.6910 -1.1226 -1.3984
13785TIP3   OH262845   3.062   1.705   0.483  0.1839  0.1890 -0.2170
13785TIP3    H162846   3.069   1.796   0.514  1.6292 -0.5388  1.7727
13785TIP3    H262847   2.998   1.664   0.542 -0.1180 -0.2171 -0.8164
13786TIP3   OH262848   2.905   2.111  16.268  0.0028 -0.7148  0.3161
13786TIP3    H162849   2.911   2.149  16.355  2.1482  1.4031 -0.6424
13786TIP3    H262850   2.879   2.184  16.211 -1.7310 -2.1232 -0.8002
13787TIP3   OH262851   6.380   4.084   4.336  0.1230 -0.1308  0.3435
13787TIP3    H162852   6.287   4.102   4.323  0.2932  0.8105  0.3357
13787TIP3    H262853   6.403   4.021   4.267 -0.2896  0.3823 -0.2687
13788TIP3   OH262854   4.311   1.836  11.178 -0.7027 -0.5572 -0.0034
13788TIP3    H162855   4.376   1.768  11.190  1.8069  1.9533  1.8228
13788TIP3    H262856   4.271   1.816  11.093  1.1130 -3.2603 -0.3374
13789TIP3   OH262857   5.881   4.471  13.378 -0.6084 -0.0283  0.3231
13789TIP3    H162858   5.793   4.434  13.376 -1.5968  2.0945  1.4911
13789TIP3    H262859   5.917   4.441  13.462 -0.5995 -0.0823  0.2996
13790TIP3   OH262860   2.646   1.211  13.836  0.0158  0.3850 -0.2372
13790TIP3    H162861   2.576   1.216  13.901  0.2318  1.5234 -0.0573
13790TIP3    H262862   2.705   1.283  13.860  2.1347 -1.5133  0.6228
13791TIP3   OH262863   4.913   5.118  15.974  0.3300 -0.7725 -0.3297
13791TIP3    H162864   4.886   5.048  15.914 -0.7889 -0.8160  0.1998
13791TIP3    H262865   4.927   5.074  16.057  0.7734 -0.5371 -0.2791
13792TIP3   OH262866   2.708   6.492   4.279  0.1525 -0.3274 -0.1046
13792TIP3    H162867   2.666   6.434   4.342  0.7424  0.0263  0.6440
13792TIP3    H262868   2.662   6.576   4.288  0.0156 -0.3703 -0.3926
13793TIP3   OH262869   2.605   4.410   4.834 -0.4631  0.6590  0.6398
13793TIP3    H162870   2.629   4.357   4.910  2.1798 -1.0226 -1.2052
13793TIP3    H262871   2.685   4.458   4.812 -1.7796  2.7300  0.0819
13794TIP3   OH262872   5.928   6.368  16.574  0.2892 -0.5515  0.3059
13794TIP3    H162873   5.992   6.297  16.560  1.0939  0.1299  0.4312
13794TIP3    H262874   5.845   6.323  16.589  0.8230 -1.4754  0.5680
13795TIP3   OH262875   6.268   6.758  13.154  0.2196 -0.1396 -0.7263
13795TIP3    H162876   6.253   6.815  13.229 -0.7396 -1.4398  0.1126
13795TIP3    H262877   6.267   6.817  13.079  3.0241  1.4945  0.3367
13796TIP3   OH262878   4.463   4.201  13.711  0.6660 -0.2216  0.4229
13796TIP3    H162879   4.444   4.109  13.727  1.4935 -0.4742  0.0227
13796TIP3    H262880   4.410   4.249  13.775 -0.6326 -0.9142 -0.1057
13797TIP3   OH262881   1.971   1.698   0.833 -0.0207  0.2745  0.0019
13797TIP3    H162882   1.962   1.621   0.890 -0.3497  1.5457  1.7431
13797TIP3    H262883   1.883   1.709   0.795  0.0008 -0.1378 -0.1780
13798TIP3   OH262884   4.115   4.267  11.228  0.2223 -0.0801  0.1608
13798TIP3    H162885   4.172   4.232  11.159  1.9149 -0.7026  1.7738
13798TIP3    H262886   4.026   4.259  11.192  0.8729 -2.1844 -1.1913
13799TIP3   OH262887   3.403   6.409  12.809 -1.1259  0.5376  0.4391
13799TIP3    H162888   3.396   6.504  12.821  1.1704  0.6455  1.5807
13799TIP3    H262889   3.353   6.391  12.730  0.8522  3.1969 -1.6200
13800TIP3   OH262890   4.550   3.048   2.347 -0.2813  0.1007 -0.4073
13800TIP3    H162891   4.536   3.138   2.317  0.1841  0.1861 -0.3885
13800TIP3    H262892   4.463   3.009   2.349 -0.3591  0.1879 -1.5722
13801TIP3   OH262893   6.129   6.315   3.537  0.3423  0.4635 -0.1786
13801TIP3    H162894   6.064   6.355   3.479 -1.0689 -1.9004 -0.3506
13801TIP3    H262895   6.188   6.268   3.478 -0.1624 -0.6487  0.1847
13802TIP3   OH262896   6.625   6.253   1.210  0.0919  0.0852 -0.4080
13802TIP3    H162897   6.688   6.312   1.168  0.0920  0.3844  0.0121
13802TIP3    H262898   6.544   6.266   1.160 -0.2642  1.3820  0.4453
13803TIP3   OH262899   1.006   4.855   3.159  0.1646 -0.6561 -0.5417
13803TIP3    H162900   0.971   4.890   3.077  3.4429 -1.4331 -2.4642
13803TIP3    H262901   1.036   4.933   3.207  0.9518 -0.3340 -1.5161
13804TIP3   OH262902   2.741   0.123  14.808 -0.5296  0.0694 -0.0121
13804TIP3    H162903   2.709   0.089  14.724  1.0787  1.5213 -1.2911
13804TIP3    H262904   2.806   0.059  14.837 -0.2859  0.1099 -0.4585
13805TIP3   OH262905   3.959   2.275   2.852 -0.0551  0.0110 -0.7166
13805TIP3    H162906   4.011   2.307   2.926 -2.6274 -1.0664  1.7266
13805TIP3    H262907   4.001   2.193   2.828  0.8828  0.4248 -0.5696
13806TIP3   OH262908   3.607   1.560   4.113  0.3149  0.7236 -0.3681
13806TIP3    H162909   3.680   1.559   4.051 -0.1846 -0.3704 -0.9674
13806TIP3    H262910   3.571   1.471   4.108 -2.0016  1.6533 -1.2108
13807TIP3   OH262911   2.665   3.792   3.142  0.5079 -0.1772 -0.4304
13807TIP3    H162912   2.606   3.717   3.158  1.2826 -0.5355  0.9431
13807TIP3    H262913   2.608   3.869   3.148  0.2848 -0.4605  1.7714
13808TIP3   OH262914   4.446   3.661   3.231  0.2885 -0.3912 -0.3006
13808TIP3    H162915   4.475   3.607   3.158  0.1652  0.1232 -0.7341
13808TIP3    H262916   4.377   3.716   3.194  0.9368  0.6080 -0.0668
13809TIP3   OH262917   2.624   6.338  13.633 -0.0135 -0.5005  0.1875
13809TIP3    H162918   2.676   6.367  13.558  0.2739 -0.3635  0.4356
13809TIP3    H262919   2.540   6.313  13.596 -0.1388  0.2866 -0.0887
13810TIP3   OH262920   0.959   4.449   2.588  0.4363 -0.7988  0.5089
13810TIP3    H162921   0.909   4.378   2.547 -0.2788 -0.1811  0.2716
13810TIP3    H262922   0.942   4.525   2.531  1.7523 -0.5982  0.3606
13811TIP3   OH262923   4.223   0.169  16.491 -0.1385 -0.6865 -0.5770
13811TIP3    H162924   4.143   0.117  16.483  0.0199 -1.3601  1.5970
13811TIP3    H262925   4.269   0.131  16.565  0.8072  1.5143  0.0494
13812TIP3   OH262926   5.094   5.429  16.860 -0.6347  0.2250  0.7323
13812TIP3    H162927   5.147   5.495  16.904 -0.7397  1.8827 -1.4439
13812TIP3    H262928   5.062   5.473  16.781  0.5540 -2.8921 -1.6628
13813TIP3   OH262929   2.179   0.247  13.435  1.0497 -0.4998 -0.1696
13813TIP3    H162930   2.110   0.205  13.385  1.1247 -0.8250 -0.0051
13813TIP3    H262931   2.215   0.314  13.376  0.3824 -0.1074 -0.1341
13814TIP3   OH262932   4.517   2.397   1.760  0.0707  0.6434 -0.8208
13814TIP3    H162933   4.533   2.342   1.836  2.2174  0.1865 -1.5238
13814TIP3    H262934   4.476   2.338   1.696 -0.6529  0.7312 -0.4492
13815TIP3   OH262935   3.027   3.946  12.119  0.3268  0.0937 -0.5429
13815TIP3    H162936   2.950   3.898  12.085  1.0846 -1.5262 -0.0542
13815TIP3    H262937   3.095   3.930  12.054  0.7749 -0.0547 -0.0440
13816TIP3   OH262938   6.593   2.504   1.240 -0.0066 -0.2272 -0.0332
13816TIP3    H162939   6.621   2.579   1.292  0.2017 -0.9627  0.9645
13816TIP3    H262940   6.655   2.501   1.167  0.5381  0.0453  0.4099
13817TIP3   OH262941   0.774   1.839  11.263  0.8825 -0.1258  0.2071
13817TIP3    H162942   0.767   1.790  11.345  0.6017  2.3700  1.7642
13817TIP3    H262943   0.689   1.881  11.253  1.6050  1.2848 -0.2200
13818TIP3   OH262944   1.353   0.820   0.124  0.6815  0.5375  0.6876
13818TIP3    H162945   1.283   0.780   0.176 -2.9998 -1.0278 -4.5780
13818TIP3    H262946   1.317   0.905   0.097  1.5284  0.5096 -0.6506
13819TIP3   OH262947   4.391   5.715   3.858 -0.0881 -0.2608  0.1672
13819TIP3    H162948   4.482   5.705   3.883 -0.4297 -0.6078  1.3264
13819TIP3    H262949   4.354   5.772   3.926 -0.8683 -0.6135  0.0481
13820TIP3   OH262950   1.917   1.746  14.219  0.0174  0.2245  0.6999
13820TIP3    H162951   1.914   1.651  14.210 -0.7386  0.3919 -1.1582
13820TIP3    H262952   1.897   1.761  14.311 -1.3574 -1.3690  0.7232
13821TIP3   OH262953   5.767   5.240  15.544 -1.0466 -0.8158 -0.1620
13821TIP3    H162954   5.697   5.187  15.581  0.8227 -2.2014  1.6174
13821TIP3    H262955   5.843   5.182  15.542  0.0532  0.5586 -2.1941
13822TIP3   OH262956   3.347   4.310  15.523 -0.0459 -0.1418  0.0391
13822TIP3    H162957   3.345   4.227  15.474  0.9984 -0.4843  0.5472
13822TIP3    H262958   3.338   4.377  15.455 -0.3830 -0.6521 -0.4364
13823TIP3   OH262959   0.376   1.469  15.958  0.3029 -0.2953 -0.1436
13823TIP3    H162960   0.282   1.482  15.968  0.3465 -0.0345 -0.0512
13823TIP3    H262961   0.387   1.437  15.868  0.0398 -1.2457  0.1518
13824TIP3   OH262962   5.147   1.770   3.076  0.3318  0.2908  0.5094
13824TIP3    H162963   5.222   1.791   3.020 -0.1274 -0.2234 -0.3161
13824TIP3    H262964   5.180   1.703   3.136  1.0803  1.4767  1.4782
13825TIP3   OH262965   5.780   4.709   4.676  0.0435 -0.0961 -0.2026
13825TIP3    H162966   5.817   4.764   4.607 -1.2078  1.5955  0.3946
13825TIP3    H262967   5.744   4.771   4.740 -0.4960 -1.6161  1.0524
13826TIP3   OH262968   5.525   3.992   2.893  0.0030 -0.5094  0.6773
13826TIP3    H162969   5.437   4.029   2.885  0.0790 -0.0453  1.8152
13826TIP3    H262970   5.582   4.058   2.854 -0.0951 -0.5746  0.4183
13827TIP3   OH262971   4.432   1.672  11.611  0.0807 -0.2032 -0.7754
13827TIP3    H162972   4.448   1.764  11.595  2.1593 -0.5692 -1.0023
13827TIP3    H262973   4.346   1.670  11.654  1.1847  2.0497  1.7800
13828TIP3   OH262974   5.945   5.587   0.905  0.0277 -0.5357 -0.1915
13828TIP3    H162975   5.955   5.618   0.815  0.5541 -1.0365 -0.3102
13828TIP3    H262976   6.025   5.616   0.949  0.0928 -0.9126 -0.0632
13829TIP3   OH262977   5.034   4.309   6.045 -0.2367 -0.0652 -0.6513
13829TIP3    H162978   5.059   4.218   6.064 -0.9446 -0.2677 -0.6528
13829TIP3    H262979   4.943   4.315   6.075  0.0736  0.8864  0.1337
13830TIP3   OH262980   0.896   1.813  13.861  0.2933 -0.1739  0.3331
13830TIP3    H162981   0.947   1.865  13.798  0.0271  0.0241  0.2770
13830TIP3    H262982   0.859   1.741  13.810  1.6714 -1.1393  0.6547
13831TIP3   OH262983   2.866   2.093  15.457 -0.4635 -0.3470 -0.3567
13831TIP3    H162984   2.915   2.046  15.525 -0.3274 -0.1556 -0.3230
13831TIP3    H262985   2.930   2.104  15.386  0.0979  1.4759  0.3698
13832TIP3   OH262986   6.737   0.883   2.346  0.5707  0.3273 -0.2025
13832TIP3    H162987   6.698   0.800   2.318  1.9586 -0.7696  0.9872
13832TIP3    H262988   6.663   0.942   2.355 -0.4414 -0.7317 -1.2109
13833TIP3   OH262989   0.610   4.012  16.541  0.6305 -0.0861 -0.2077
13833TIP3    H162990   0.620   4.039  16.450 -0.9556  1.2976 -0.0085
13833TIP3    H262991   0.675   4.065  16.589 -0.5248  1.3707 -0.1916
13834TIP3   OH262992   1.073   6.592  14.521 -0.3319 -0.0312  0.1371
13834TIP3    H162993   1.073   6.681  14.555  2.1488  0.3874 -0.7223
13834TIP3    H262994   1.042   6.600  14.431  0.6998  0.1417 -0.2202
13835TIP3   OH262995   1.894   2.146  12.865  0.5529 -0.4139  0.2716
13835TIP3    H162996   1.866   2.234  12.893  0.9533 -0.7331  1.7995
13835TIP3    H262997   1.913   2.155  12.772  0.2930  1.0539  0.3375
13836TIP3   OH262998   6.264   6.587   3.626 -0.6222  0.3393 -0.1902
13836TIP3    H162999   6.316   6.514   3.591 -0.4988  0.6027 -0.5576
13836TIP3    H263000   6.237   6.557   3.714 -0.5836 -0.1532 -0.3409
13837TIP3   OH263001   2.046   1.149  12.493  0.0638  0.0931  0.1606
13837TIP3    H163002   2.000   1.125  12.574 -1.5473 -0.6240 -0.9211
13837TIP3    H263003   2.061   1.065  12.449  0.1635  0.5496 -0.6768
13838TIP3   OH263004   4.395   6.068   2.440  0.6583 -0.4999 -0.4084
13838TIP3    H163005   4.376   6.055   2.347  0.6059 -1.8911 -0.2183
13838TIP3    H263006   4.485   6.037   2.451  1.3826  1.4744 -0.3433
13839TIP3   OH263007   0.814   4.546  13.109 -0.2312 -0.1835 -0.0885
13839TIP3    H163008   0.907   4.536  13.092 -0.2862 -0.4457 -0.2369
13839TIP3    H263009   0.781   4.457  13.118 -0.4237 -0.0860  0.2050
13840TIP3   OH263010   1.847   6.150  16.079  0.2390  0.2244  0.6872
13840TIP3    H163011   1.920   6.200  16.042 -0.8419  0.1775 -1.7267
13840TIP3    H263012   1.835   6.077  16.018 -1.9882  0.4039  0.8240
13841TIP3   OH263013   6.484   5.696   5.782  0.4471  0.0205  0.0223
13841TIP3    H163014   6.406   5.699   5.727 -0.2107 -2.9527  0.5739
13841TIP3    H263015   6.556   5.724   5.725 -0.6244 -0.0564 -1.4152
13842TIP3   OH263016   1.484   6.234  17.065 -0.3976  0.5928 -0.1433
13842TIP3    H163017   1.477   6.263  16.975 -1.9654  0.4335 -0.0892
13842TIP3    H263018   1.403   6.262  17.107 -0.3812 -0.6800  0.8276
13843TIP3   OH263019   5.359   0.826   2.827  0.3110 -0.3101  0.3912
13843TIP3    H163020   5.447   0.815   2.864  0.0253  0.0072  1.1918
13843TIP3    H263021   5.350   0.755   2.764  1.4409  0.1138 -0.2818
13844TIP3   OH263022   6.740   2.947   4.353 -0.0606 -0.5888 -0.0989
13844TIP3    H163023   6.673   2.932   4.420 -0.1349  1.8212  0.4839
13844TIP3    H263024   6.692   2.951   4.271 -0.8720  1.9688  0.4070
13845TIP3   OH263025   6.806   1.650   5.508  0.0450  0.1939 -0.5989
13845TIP3    H163026   6.818   1.740   5.478  1.2095 -0.0889 -1.0338
13845TIP3    H263027   6.846   1.596   5.440  2.3417 -0.4921  1.1924
13846TIP3   OH263028   4.290   6.385  13.426 -0.1642  0.5293 -0.1709
13846TIP3    H163029   4.259   6.295  13.414 -0.2589  0.4889  0.3668
13846TIP3    H263030   4.376   6.376  13.466  0.6857  0.6365 -1.8676
13847TIP3   OH263031   1.325   1.085   2.668 -0.3509 -0.4987 -0.2827
13847TIP3    H163032   1.308   1.142   2.743 -1.3998 -0.1776 -0.7418
13847TIP3    H263033   1.419   1.067   2.672 -0.4891 -0.9807  1.4322
13848TIP3   OH263034   3.726   3.968   0.487  0.0095 -0.0140 -0.0849
13848TIP3    H163035   3.725   4.050   0.536  0.6870 -0.2660  0.3739
13848TIP3    H263036   3.685   3.989   0.403 -0.7078  0.5526  0.3890
13849TIP3   OH263037   1.729   1.639   2.802  0.0656  0.3571 -0.2240
13849TIP3    H163038   1.638   1.635   2.831  0.1510 -1.1248 -0.0850
13849TIP3    H263039   1.726   1.616   2.709  0.4038 -0.9381  0.0663
13850TIP3   OH263040   3.553   4.921  14.065  0.1054 -0.3568  0.4222
13850TIP3    H163041   3.619   4.933  13.997 -2.1413  1.7302 -1.5790
13850TIP3    H263042   3.566   4.995  14.124 -1.0102  0.6965 -0.5838
13851TIP3   OH263043   5.367   0.675  14.811 -0.0574  0.2177 -0.9008
13851TIP3    H163044   5.329   0.595  14.848 -0.7809  0.6105 -0.7833
13851TIP3    H263045   5.454   0.681  14.851 -0.2188 -0.2062 -0.4727
13852TIP3   OH263046   2.054   3.053   5.386 -0.3699  0.2155  0.8242
13852TIP3    H163047   2.035   3.146   5.396 -0.9331  0.1348  0.5354
13852TIP3    H263048   2.035   3.034   5.295 -1.7338 -0.4994  1.2243
13853TIP3   OH263049   1.712   0.900  12.859 -0.2085 -0.5041  0.4541
13853TIP3    H163050   1.625   0.871  12.832  0.3314 -2.4917  0.7258
13853TIP3    H263051   1.768   0.824  12.847  0.9950 -0.0713  2.7239
13854TIP3   OH263052   0.197   4.876   1.033 -0.3919  0.2987  1.0212
13854TIP3    H163053   0.148   4.958   1.029 -0.6521  0.0977 -1.4478
13854TIP3    H263054   0.141   4.816   1.081 -1.6786  0.6679  0.0314
13855TIP3   OH263055   1.609   4.437   3.966 -0.0138 -0.0659  0.1191
13855TIP3    H163056   1.514   4.445   3.964  0.0950  2.3272  0.9267
13855TIP3    H263057   1.641   4.527   3.974  2.2987 -0.8497  0.6802
13856TIP3   OH263058   2.206   0.476  12.196 -0.1043  0.3071 -1.1319
13856TIP3    H163059   2.134   0.539  12.185 -0.1227  1.3074  2.9649
13856TIP3    H263060   2.163   0.391  12.195 -1.8033  0.9268  2.4603
13857TIP3   OH263061   5.250   5.806   0.285 -0.2577  0.1631  0.0418
13857TIP3    H163062   5.336   5.836   0.317 -0.9352  1.1682  0.9868
13857TIP3    H263063   5.243   5.846   0.198  0.2462  0.0478 -0.0592
13858TIP3   OH263064   2.618   2.432   0.520 -0.0535  0.0652  0.1771
13858TIP3    H163065   2.576   2.489   0.455  1.2731 -0.5434 -1.2907
13858TIP3    H263066   2.598   2.343   0.490  2.0548 -0.2358 -0.4670
13859TIP3   OH263067   0.999   3.805  14.835  0.0331 -0.1162  0.3207
13859TIP3    H163068   1.007   3.859  14.914  0.8505 -1.4339  1.1854
13859TIP3    H263069   1.067   3.839  14.777  0.7538 -0.3890  0.9783
13860TIP3   OH263070   1.005   0.561   0.509  0.0782 -0.6338 -0.2699
13860TIP3    H163071   1.052   0.643   0.519  1.7974 -1.5539 -0.3792
13860TIP3    H263072   0.971   0.542   0.596 -0.4640  0.2505 -0.2780
13861TIP3   OH263073   1.633   5.515   0.776  0.1101 -0.0246 -0.0198
13861TIP3    H163074   1.650   5.587   0.837 -3.5430  1.2344 -0.2426
13861TIP3    H263075   1.641   5.555   0.690  0.9509 -0.6672 -0.2428
13862TIP3   OH263076   5.198   0.977  16.344 -0.2667 -0.3895 -0.5211
13862TIP3    H163077   5.215   0.923  16.421 -1.2605 -0.5535 -0.3992
13862TIP3    H263078   5.128   0.930  16.297  0.1481 -0.1624 -1.3892
13863TIP3   OH263079   0.631   0.238  11.736  0.7328 -0.2279 -0.3995
13863TIP3    H163080   0.596   0.157  11.700  0.4775 -0.3939  0.2117
13863TIP3    H263081   0.575   0.257  11.812  1.4392 -0.0525  0.0898
13864TIP3   OH263082   1.952   5.600  15.670 -0.1855  0.2029  0.6523
13864TIP3    H163083   1.868   5.636  15.697 -0.2080 -0.3344  1.3382
13864TIP3    H263084   2.016   5.663  15.704 -0.3306  1.2167 -0.8557
13865TIP3   OH263085   2.655   3.618   6.496 -0.2144  0.2960 -0.1314
13865TIP3    H163086   2.619   3.539   6.455  1.2983 -0.0032 -0.9715
13865TIP3    H263087   2.675   3.591   6.586  0.0075 -0.1842 -0.3217
13866TIP3   OH263088   6.623   2.703  13.841  0.1005  0.1254  0.2992
13866TIP3    H163089   6.697   2.651  13.811 -1.2667 -1.8057  0.0942
13866TIP3    H263090   6.626   2.698  13.936  0.7227  0.8263  0.3290
13867TIP3   OH263091   4.369   0.761   4.352 -0.3548  0.2761  0.0268
13867TIP3    H163092   4.384   0.824   4.423 -2.1052  1.3820 -0.5079
13867TIP3    H263093   4.456   0.741   4.319  0.5248 -0.2662  2.4393
13868TIP3   OH263094   4.515   3.600  12.252  0.6660 -0.3909  0.0927
13868TIP3    H163095   4.471   3.645  12.324 -0.2705 -0.5476 -0.3613
13868TIP3    H263096   4.507   3.660  12.178 -0.4188 -1.1894 -0.4664
13869TIP3   OH263097   3.679   3.281  11.670 -0.1987 -0.2313  0.2423
13869TIP3    H163098   3.752   3.331  11.708  1.1910 -1.3457 -0.8338
13869TIP3    H263099   3.636   3.343  11.611  1.7143 -0.3078 -1.3400
13870TIP3   OH263100   2.500   4.271   5.144 -0.2668 -0.1432  0.2637
13870TIP3    H163101   2.499   4.223   5.227  1.0379 -0.2044  0.2670
13870TIP3    H263102   2.441   4.222   5.087 -0.2843 -0.7632  0.8076
13871TIP3   OH263103   3.377   6.609  11.070  0.2378 -0.2112 -1.1495
13871TIP3    H163104   3.320   6.629  10.996 -0.7038  0.5164 -0.2644
13871TIP3    H263105   3.448   6.673  11.063 -0.6319  0.8536 -0.6210
13872TIP3   OH263106   4.540   3.883   4.632  0.2378  0.0007 -0.2543
13872TIP3    H163107   4.460   3.908   4.584  0.4571  0.5355 -0.3483
13872TIP3    H263108   4.593   3.838   4.567 -0.7317 -1.9531  0.2557
13873TIP3   OH263109   0.651   1.404   5.263  0.0182  0.2121 -0.2642
13873TIP3    H163110   0.712   1.334   5.284 -1.1016 -0.3085  1.4779
13873TIP3    H263111   0.625   1.388   5.173  0.6239 -0.9587 -0.2474
13874TIP3   OH263112   6.852   3.913  16.955 -0.2706 -0.4716 -0.2183
13874TIP3    H163113   6.943   3.919  16.927 -0.0236  1.4824  0.8519
13874TIP3    H263114   6.813   3.849  16.895  1.2784  0.2360 -2.1016
13875TIP3   OH263115   0.283   6.761   5.912  0.0491 -0.1196  0.4188
13875TIP3    H163116   0.279   6.852   5.882  0.1250  0.2271  1.4248
13875TIP3    H263117   0.244   6.711   5.841 -0.9737  0.8105  0.2899
13876TIP3   OH263118   3.579   6.096   2.034 -0.1674  0.5245  0.2062
13876TIP3    H163119   3.492   6.080   2.071 -0.9814  2.0126 -0.9594
13876TIP3    H263120   3.603   6.013   1.993 -0.5631 -0.2242  1.4405
13877TIP3   OH263121   5.756   4.339  14.110  0.1626  0.2563  0.2479
13877TIP3    H163122   5.722   4.393  14.039  1.1076 -0.9962 -1.2083
13877TIP3    H263123   5.728   4.384  14.190 -0.9013  1.7146 -0.9015
13878TIP3   OH263124   1.963   4.427   0.433 -0.4540  0.0366  0.1744
13878TIP3    H163125   2.022   4.366   0.388  0.9005  0.5926  1.1181
13878TIP3    H263126   1.995   4.514   0.409 -2.7810  0.4836 -1.7080
13879TIP3   OH263127   2.139   5.183   5.471 -0.0558  0.2392 -0.0841
13879TIP3    H163128   2.172   5.140   5.550 -0.3789  1.1098  0.5396
13879TIP3    H263129   2.106   5.112   5.417  1.8464 -0.5554 -0.2622
13880TIP3   OH263130   3.087   2.633   4.977  0.1033 -0.4406 -0.0624
13880TIP3    H163131   3.109   2.546   4.943 -1.3327 -0.4102 -1.1951
13880TIP3    H263132   2.991   2.635   4.975  0.0067  0.1995  2.5545
13881TIP3   OH263133   3.278   1.191  14.288  0.1385 -0.3933 -0.0552
13881TIP3    H163134   3.366   1.216  14.315 -0.2447 -0.0689  0.9730
13881TIP3    H263135   3.250   1.261  14.228  0.9422 -1.0312 -1.2047
13882TIP3   OH263136   4.489   3.789   5.623 -0.1282 -0.3385  0.4884
13882TIP3    H163137   4.538   3.727   5.569 -0.4456  0.5052 -0.8125
13882TIP3    H263138   4.533   3.787   5.708  0.6588 -1.3754  0.0749
13883TIP3   OH263139   4.701   5.576   5.266  0.0017  0.3397 -0.5219
13883TIP3    H163140   4.673   5.507   5.206  1.7250 -0.7651 -0.1351
13883TIP3    H263141   4.724   5.650   5.210  0.4650 -0.2672 -1.1539
13884TIP3   OH263142   4.951   2.307  15.405  0.3681 -0.1750 -0.4647
13884TIP3    H163143   4.881   2.306  15.340 -1.8334  0.8433  1.7275
13884TIP3    H263144   4.998   2.389  15.388  0.0595 -0.0982 -0.9706
13885TIP3   OH263145   0.820   1.136  12.754  1.0394  0.0979 -0.6497
13885TIP3    H163146   0.838   1.179  12.838 -1.4025  0.7185 -0.3637
13885TIP3    H263147   0.758   1.194  12.711  0.5683 -1.3067 -1.9258
13886TIP3   OH263148   2.837   2.901   6.098 -0.0003 -0.2741 -0.3757
13886TIP3    H163149   2.798   2.903   6.011 -0.1052  0.1243 -0.3194
13886TIP3    H263150   2.850   2.808   6.116 -0.8495 -0.4130 -0.4296
13887TIP3   OH263151   0.109   6.351   3.888 -0.2802  0.2896 -0.6120
13887TIP3    H163152   0.094   6.445   3.899  0.2709  0.4236 -0.9547
13887TIP3    H263153   0.195   6.335   3.927  0.0344  0.1025 -1.3431
13888TIP3   OH263154   3.204   1.159  16.714 -0.5268 -0.2905  0.2593
13888TIP3    H163155   3.167   1.187  16.798 -1.6335  1.8664 -0.8498
13888TIP3    H263156   3.277   1.219  16.699  1.6215 -2.5676  0.9939
13889TIP3   OH263157   2.840   1.027  11.927  0.3466  0.5380  0.0220
13889TIP3    H163158   2.909   1.036  11.862  0.5850  2.1372  0.4569
13889TIP3    H263159   2.857   1.097  11.990 -2.7215  2.2369 -0.8341
13890TIP3   OH263160   3.977   3.949  11.731 -0.1262 -0.3286  0.3851
13890TIP3    H163161   3.960   3.998  11.811 -0.0391 -0.9119  0.7584
13890TIP3    H263162   3.951   4.009  11.661  0.5102  0.4732  0.8157
13891TIP3   OH263163   0.103   2.917  11.404  0.6244  0.7552  0.4451
13891TIP3    H163164   0.065   2.996  11.365  0.2090  0.4065  0.1307
13891TIP3    H263165   0.050   2.845  11.369 -0.4456  0.5028  2.4466
13892TIP3   OH263166   3.665   4.892  14.500 -0.4947 -0.3534  0.3665
13892TIP3    H163167   3.623   4.806  14.496  0.2046 -0.6750 -0.5203
13892TIP3    H263168   3.711   4.900  14.417  0.5930  0.2882  0.9994
13893TIP3   OH263169   6.471   1.858  10.786  0.3194  0.0258 -0.3735
13893TIP3    H163170   6.480   1.950  10.807  1.0637  0.4686 -2.3626
13893TIP3    H263171   6.509   1.850  10.698 -1.1211 -1.8815 -0.8881
13894TIP3   OH263172   4.503   6.443  14.488 -0.5445 -0.0139  0.0157
13894TIP3    H163173   4.529   6.528  14.453 -1.0260 -0.6576 -1.9932
13894TIP3    H263174   4.488   6.388  14.411 -1.3539 -1.5913  1.2385
13895TIP3   OH263175   4.772   3.662   3.283  0.6393 -0.2357  0.2834
13895TIP3    H163176   4.713   3.591   3.257  0.4565  0.4966 -1.4374
13895TIP3    H263177   4.859   3.629   3.261  0.7309 -0.5848  1.1113
13896TIP3   OH263178   2.428   1.917   1.817  0.4498  0.6887  0.1179
13896TIP3    H163179   2.501   1.967   1.780 -0.5102  1.1445 -1.2421
13896TIP3    H263180   2.350   1.955   1.777 -0.5277  0.0831  1.3889
13897TIP3   OH263181   2.935   1.539  12.006  0.0969 -0.0347 -0.4875
13897TIP3    H163182   2.977   1.503  11.929 -0.0975  0.1292 -0.6711
13897TIP3    H263183   2.848   1.499  12.007 -0.1111  0.3958 -0.6766
13898TIP3   OH263184   0.062   5.002  12.588  0.0629  0.4215 -0.1607
13898TIP3    H163185   0.049   5.012  12.494 -0.7745  0.6253 -0.0352
13898TIP3    H263186   0.035   4.913  12.607  0.9702  0.1204 -0.2208
13899TIP3   OH263187   1.415   6.362  12.584 -0.1654 -0.0264 -0.6075
13899TIP3    H163188   1.354   6.353  12.511 -1.9271 -0.9037  0.8954
13899TIP3    H263189   1.404   6.282  12.635  1.2475  0.4208  0.4717
13900TIP3   OH263190   1.392   4.576  11.931  0.7097 -0.1635 -1.1752
13900TIP3    H163191   1.300   4.600  11.926  0.2545 -1.5617 -0.2397
13900TIP3    H263192   1.430   4.643  11.989 -0.1730 -0.7111  0.0918
13901TIP3   OH263193   6.542   4.886   2.743  0.3998  0.6561 -1.0988
13901TIP3    H163194   6.484   4.814   2.721  1.4505 -0.7997  0.6076
13901TIP3    H263195   6.488   4.964   2.735 -1.1954 -0.4422 -1.5329
13902TIP3   OH263196   3.792   6.480  14.927  0.0526  0.0463 -0.1077
13902TIP3    H163197   3.725   6.464  14.993  0.8246 -0.4868  0.5662
13902TIP3    H263198   3.874   6.453  14.968  0.3478 -2.0600 -1.8726
13903TIP3   OH263199   5.692   1.108  13.830  0.1057  0.1142 -0.7125
13903TIP3    H163200   5.666   1.068  13.748 -0.4620 -1.5540  0.2254
13903TIP3    H263201   5.702   1.201  13.810 -1.5715  0.0081 -2.2827
13904TIP3   OH263202   4.641   3.377  12.392 -0.4427  0.0897  0.3170
13904TIP3    H163203   4.695   3.304  12.361  0.9041  1.1309  0.1120
13904TIP3    H263204   4.593   3.407  12.315 -2.0275 -1.3661  0.6695
13905TIP3   OH263205   4.273   1.508  13.994  0.1958 -0.6274 -0.5248
13905TIP3    H163206   4.289   1.572  13.924 -0.0505 -1.0401 -0.9645
13905TIP3    H263207   4.212   1.446  13.956 -1.6112  0.2837  0.7368
13906TIP3   OH263208   0.046   0.506   5.096 -0.3825 -0.4965  0.1698
13906TIP3    H163209  -0.021   0.442   5.118 -1.1215 -0.0513 -0.7267
13906TIP3    H263210   0.002   0.570   5.041  0.1083  1.3197  1.7719
13907TIP3   OH263211   2.492   1.948  11.692  0.2596 -0.2536 -0.6148
13907TIP3    H163212   2.568   1.985  11.736 -1.1519  2.0790  0.0085
13907TIP3    H263213   2.500   1.977  11.601  0.1923 -0.1726 -0.5940
13908TIP3   OH263214   4.067   2.414  12.154  0.0555 -0.7245  0.4569
13908TIP3    H163215   3.979   2.439  12.184  0.0209 -1.3287  0.8754
13908TIP3    H263216   4.096   2.488  12.101 -1.0308 -0.8443 -0.3409
13909TIP3   OH263217   0.239   3.787  13.169 -0.1971 -0.8364 -0.6272
13909TIP3    H163218   0.270   3.752  13.085 -0.0487  1.5467 -1.6358
13909TIP3    H263219   0.317   3.824  13.209 -0.8469  1.1587 -1.1023
13910TIP3   OH263220   4.195   0.115  14.678  0.1458  0.0817 -0.1953
13910TIP3    H163221   4.248   0.182  14.721  0.8331 -0.5609 -0.0187
13910TIP3    H263222   4.137   0.163  14.619 -0.2172  0.9149  0.8211
13911TIP3   OH263223   0.486   6.564  16.922 -0.2167  0.1683  0.4548
13911TIP3    H163224   0.423   6.539  16.855  1.3567 -0.4622 -0.8527
13911TIP3    H263225   0.538   6.485  16.936  0.2860  0.6659  1.5226
13912TIP3   OH263226   6.327   3.151   0.263  0.1294  0.0192  0.3080
13912TIP3    H163227   6.262   3.153   0.333 -1.0840  0.3738 -0.7867
13912TIP3    H263228   6.338   3.058   0.242  1.6586 -0.2341  1.9514
13913TIP3   OH263229   2.171   1.096  16.195  0.2979 -0.5144  0.5983
13913TIP3    H163230   2.103   1.163  16.199  0.3571 -0.3203 -1.0021
13913TIP3    H263231   2.124   1.015  16.177  0.4754 -0.3060 -0.9838
13914TIP3   OH263232   0.146   0.289   4.253 -0.5413  0.2927 -0.0340
13914TIP3    H163233   0.195   0.315   4.176  0.6599  2.8895  1.4512
13914TIP3    H263234   0.134   0.195   4.244  1.7751  0.1046 -2.1072
13915TIP3   OH263235   3.697   4.181  14.144 -0.5233  0.0497 -0.0649
13915TIP3    H163236   3.698   4.123  14.068 -0.6133 -0.2099  0.1318
13915TIP3    H263237   3.681   4.268  14.107  0.2568  0.0527 -0.4310
13916TIP3   OH263238   6.280   5.622  15.657 -0.3048 -0.0699  0.2093
13916TIP3    H163239   6.317   5.599  15.572  0.9850  0.5830  0.5720
13916TIP3    H263240   6.356   5.627  15.715 -1.0194  0.8704  1.0873
13917TIP3   OH263241   3.203   1.895  12.246  0.2263  0.1751 -0.2012
13917TIP3    H163242   3.140   1.826  12.267 -0.2495  0.3157 -1.1364
13917TIP3    H263243   3.155   1.955  12.189  0.9081  0.8135 -0.1167
13918TIP3   OH263244   5.059   2.307  10.920 -0.4183  0.0278  0.5940
13918TIP3    H163245   5.001   2.321  10.845  1.3205  0.4903 -0.7066
13918TIP3    H263246   5.098   2.393  10.936  1.1511 -0.6332  0.3948
13919TIP3   OH263247   6.070   1.001  14.619 -0.0992 -0.5829  0.5155
13919TIP3    H163248   6.059   1.012  14.714  1.5200  0.8785  0.5855
13919TIP3    H263249   6.007   1.062  14.581  0.9703  0.6978  0.7303
13920TIP3   OH263250   4.315   0.942   1.654  0.2220 -0.7307  0.6402
13920TIP3    H163251   4.403   0.906   1.640  0.1999 -0.2445 -0.9493
13920TIP3    H263252   4.330   1.036   1.666 -0.0045 -0.7973  1.5530
13921TIP3   OH263253   6.118   6.103  14.963 -0.5070  0.3332 -0.2175
13921TIP3    H163254   6.122   6.039  15.035  1.1363 -0.8437 -1.2926
13921TIP3    H263255   6.163   6.180  14.998 -1.3313  0.4525  0.6317
13922TIP3   OH263256   2.841   2.930   0.072  0.2678  0.1918 -0.4150
13922TIP3    H163257   2.870   3.010   0.029 -0.1959  0.1928 -0.7331
13922TIP3    H263258   2.781   2.960   0.140 -0.5750  0.0739 -1.0863
13923TIP3   OH263259   1.224   2.185   1.196  0.2614 -0.2078 -0.5598
13923TIP3    H163260   1.139   2.155   1.164 -1.0599  0.6520  1.8806
13923TIP3    H263261   1.254   2.247   1.130 -0.9821 -0.5858 -1.5043
13924TIP3   OH263262   6.745   3.887  11.277  0.1465 -0.0381  0.1530
13924TIP3    H163263   6.662   3.933  11.274  0.4537  0.4837 -0.6218
13924TIP3    H263264   6.807   3.950  11.313 -0.0385 -0.8565  2.0435
13925TIP3   OH263265   3.267   5.043   4.477  0.1904 -0.1178 -0.1687
13925TIP3    H163266   3.336   4.995   4.430  0.3931  0.5233 -0.5548
13925TIP3    H263267   3.305   5.063   4.562  0.6931  0.6701 -0.5605
13926TIP3   OH263268   2.308   3.385  15.537 -0.1604  0.0494  0.2988
13926TIP3    H163269   2.339   3.455  15.594  1.4972  0.8785 -1.4839
13926TIP3    H263270   2.241   3.426  15.482 -0.6950 -0.3387  0.6566
13927TIP3   OH263271   0.098   2.112   4.847 -0.0938  0.2681  0.3304
13927TIP3    H163272   0.143   2.066   4.775 -0.4824  1.2889 -0.5880
13927TIP3    H263273   0.149   2.191   4.861 -1.3436  1.2662 -0.4835
13928TIP3   OH263274   5.014   4.477  11.011 -0.3646  0.1601  0.0946
13928TIP3    H163275   4.964   4.435  11.080 -3.1802  0.4160 -1.6405
13928TIP3    H263276   4.979   4.440  10.930  2.0930  0.6082 -1.2975
13929TIP3   OH263277   4.320   3.403  11.711  0.0198  0.0782 -0.0908
13929TIP3    H163278   4.240   3.354  11.692  0.1051 -0.6849  1.3784
13929TIP3    H263279   4.382   3.375  11.645 -0.6739  0.0470 -0.7412
13930TIP3   OH263280   5.536   2.296   1.792  0.0253 -0.4806  0.6117
13930TIP3    H163281   5.455   2.343   1.769  0.0381 -0.3844  0.7600
13930TIP3    H263282   5.544   2.308   1.887  1.7827  2.0134  0.2321
13931TIP3   OH263283   3.206   1.289   3.572 -0.2059 -0.4606 -0.1211
13931TIP3    H163284   3.222   1.305   3.479 -0.0948 -0.8376 -0.1683
13931TIP3    H263285   3.282   1.325   3.617 -2.5544  4.9246  0.3657
13932TIP3   OH263286   6.139   1.606   0.798  0.1283  0.3320 -0.2039
13932TIP3    H163287   6.161   1.646   0.714 -1.5838  0.2896 -0.7139
13932TIP3    H263288   6.217   1.618   0.852  1.6504 -0.5413 -2.1078
13933TIP3   OH263289   6.136   4.612  13.352  0.2209  0.0156 -0.3843
13933TIP3    H163290   6.200   4.580  13.288 -0.0334  1.0044 -1.1625
13933TIP3    H263291   6.064   4.549  13.347  1.1042 -1.1212  0.5178
13934TIP3   OH263292   1.322   0.112  12.466 -0.2375  0.3041 -0.7127
13934TIP3    H163293   1.346   0.187  12.412  0.8379  0.9949  0.6715
13934TIP3    H263294   1.233   0.090  12.438 -0.3513  1.7218 -1.5458
13935TIP3   OH263295   1.374   0.430  15.874 -0.2029  0.0039 -0.2081
13935TIP3    H163296   1.303   0.395  15.820  0.2502  1.0749 -1.5483
13935TIP3    H263297   1.361   0.389  15.959 -2.9430  0.7699 -0.1385
13936TIP3   OH263298   3.739   1.124  15.595 -0.3001  0.2514  0.7334
13936TIP3    H163299   3.739   1.110  15.690  4.7819 -2.1998  0.7242
13936TIP3    H263300   3.695   1.047  15.560  0.7529 -0.5603  1.1338
13937TIP3   OH263301   1.359   6.353  14.480 -0.1992  0.5006 -0.2395
13937TIP3    H163302   1.356   6.425  14.543  0.0711 -0.3270  0.7472
13937TIP3    H263303   1.446   6.358  14.441 -0.2000  0.7298 -0.2126
13938TIP3   OH263304   0.994   5.782   2.087 -0.7318  0.5925 -0.2774
13938TIP3    H163305   0.947   5.834   2.152  2.1514  1.9017  0.9229
13938TIP3    H263306   0.987   5.833   2.006 -1.6112  0.5883 -0.2149
13939TIP3   OH263307   5.773   1.563   2.828 -0.1797 -0.1105 -0.0156
13939TIP3    H163308   5.862   1.548   2.858 -0.4619  1.7144  1.9561
13939TIP3    H263309   5.720   1.567   2.908 -1.6798  0.8548 -0.9926
13940TIP3   OH263310   0.221   4.772   3.357  0.5510  0.0884  0.2979
13940TIP3    H163311   0.199   4.738   3.443 -0.2599  0.7648  0.3660
13940TIP3    H263312   0.222   4.695   3.300 -0.3939 -0.1740  0.6202
13941TIP3   OH263313   2.788   1.972  12.667  0.3974  0.3445 -0.1319
13941TIP3    H163314   2.849   1.912  12.625  0.5447  0.7886 -0.5659
13941TIP3    H263315   2.701   1.937  12.645  0.4735  0.5218 -0.7431
13942TIP3   OH263316   0.856   1.150   1.108  0.2052 -0.4503  0.0312
13942TIP3    H163317   0.781   1.210   1.111 -0.9581 -1.8366 -0.0561
13942TIP3    H263318   0.843   1.091   1.182  0.9828 -0.9709 -0.2332
13943TIP3   OH263319   4.319   5.817  12.435 -0.3622 -0.1686 -0.0664
13943TIP3    H163320   4.376   5.803  12.511  2.0348 -3.7048 -2.2398
13943TIP3    H263321   4.237   5.773  12.458 -0.8512  1.4367  1.5179
13944TIP3   OH263322   4.845   0.228  15.997  0.4968 -0.4718  0.1131
13944TIP3    H163323   4.934   0.217  15.963  0.5070 -1.3972  0.4229
13944TIP3    H263324   4.801   0.146  15.976 -0.2906 -0.0187 -0.0302
13945TIP3   OH263325   0.272   1.012   2.749 -0.1964 -0.4004 -0.1775
13945TIP3    H163326   0.314   1.039   2.831 -0.5144  0.1070 -0.1781
13945TIP3    H263327   0.181   1.040   2.759 -0.2383 -0.3571 -0.6949
13946TIP3   OH263328   0.279   0.475   4.436  1.1488 -0.2324 -0.0252
13946TIP3    H163329   0.196   0.521   4.424  1.4603  0.2434 -0.3785
13946TIP3    H263330   0.276   0.403   4.373  0.8186 -0.4719  0.2657
13947TIP3   OH263331   0.133   1.143  13.883 -0.1121 -0.6453 -0.0553
13947TIP3    H163332   0.059   1.089  13.855 -0.1989 -0.8437  0.5465
13947TIP3    H263333   0.187   1.151  13.804 -0.6324 -0.7251 -0.4290
13948TIP3   OH263334   4.458   0.804   2.811  0.3937 -0.8312 -0.1655
13948TIP3    H163335   4.468   0.740   2.881  0.2312 -1.3264 -0.5945
13948TIP3    H263336   4.492   0.761   2.733 -1.0797 -0.9636 -0.7670
13949TIP3   OH263337   2.758   0.645   2.855 -0.4723 -0.1238  0.0511
13949TIP3    H163338   2.768   0.559   2.895 -1.4023  0.5375  1.8033
13949TIP3    H263339   2.700   0.630   2.780 -0.1261 -1.1082 -0.0321
13950TIP3   OH263340   3.147   3.613   4.522 -0.0099 -0.0961 -0.1224
13950TIP3    H163341   3.051   3.614   4.528 -0.0154 -1.8166  0.8232
13950TIP3    H263342   3.173   3.701   4.548 -1.3015  0.1159  0.5508
13951TIP3   OH263343   4.134   0.700  11.306  0.3647 -0.3047 -0.6018
13951TIP3    H163344   4.045   0.665  11.309  0.3988 -0.3405  0.1135
13951TIP3    H263345   4.180   0.641  11.247 -0.0286 -0.4155 -0.8060
13952TIP3   OH263346   6.393   5.741  11.052 -0.3394 -0.1447 -0.3991
13952TIP3    H163347   6.451   5.816  11.044  0.7283 -0.9351 -0.2730
13952TIP3    H263348   6.370   5.738  11.145  0.6350 -0.7037 -0.1679
13953TIP3   OH263349   6.293   0.045   0.355 -0.3127 -0.2287  0.9153
13953TIP3    H163350   6.382   0.010   0.347 -0.0434  0.7256 -0.5813
13953TIP3    H263351   6.270   0.072   0.266 -2.2006 -0.6599  1.2284
13954TIP3   OH263352   1.731   6.451  14.938  0.2945 -0.1540  0.4758
13954TIP3    H163353   1.726   6.445  15.033  2.1375 -0.3127  0.5951
13954TIP3    H263354   1.763   6.365  14.910  0.4868  0.1334 -0.2193
13955TIP3   OH263355   4.305   2.205  16.366 -0.7729 -0.5395  0.8224
13955TIP3    H163356   4.274   2.271  16.428  0.0771 -0.1692  0.8662
13955TIP3    H263357   4.274   2.235  16.281  1.3366  1.0653  0.5394
13956TIP3   OH263358   2.790   6.850  13.543 -0.1710 -0.3375  0.1630
13956TIP3    H163359   2.713   6.812  13.502 -0.7174 -1.0398  1.7860
13956TIP3    H263360   2.803   6.800  13.623  1.1383  0.6866  0.6394
13957TIP3   OH263361   4.208   6.122  13.389 -0.0623 -0.4228  0.4805
13957TIP3    H163362   4.299   6.106  13.362  0.1995 -0.4827  1.3849
13957TIP3    H263363   4.166   6.036  13.385 -0.1266 -0.3664 -0.1049
13958TIP3   OH263364   0.770   2.562  14.529 -0.7241 -0.3342 -0.1753
13958TIP3    H163365   0.789   2.645  14.573 -0.0708  0.0605 -1.1542
13958TIP3    H263366   0.676   2.566  14.510 -1.0285 -0.5301  1.1745
13959TIP3   OH263367   3.355   4.478  16.009 -0.8222  0.1545  0.2352
13959TIP3    H163368   3.353   4.442  16.097  2.2038 -0.1401  0.2916
13959TIP3    H263369   3.375   4.571  16.021  1.6430 -0.2448 -0.0485
13960TIP3   OH263370   5.665   0.134   0.627  0.0244  0.6080 -0.3122
13960TIP3    H163371   5.579   0.170   0.604 -0.7858 -0.1702  1.3103
13960TIP3    H263372   5.673   0.150   0.722  0.1592 -2.3169  0.2556
13961TIP3   OH263373   4.255   3.886  11.813 -0.1816 -0.7151  0.2831
13961TIP3    H163374   4.242   3.791  11.808 -2.9362 -0.5428  2.1840
13961TIP3    H263375   4.196   3.921  11.747  1.2058 -0.2794 -0.7708
13962TIP3   OH263376   1.887   4.076  14.553  0.1880 -0.4829 -0.2592
13962TIP3    H163377   1.871   4.139  14.482 -0.7475  0.4147  0.6959
13962TIP3    H263378   1.832   4.001  14.531 -0.7283  0.1161 -0.1071
13963TIP3   OH263379   4.888   6.357  13.151 -0.0091 -0.5402  0.8021
13963TIP3    H163380   4.878   6.264  13.173 -2.8714 -0.8665 -1.3052
13963TIP3    H263381   4.920   6.357  13.061 -0.1432  0.5185  0.7467
13964TIP3   OH263382   1.965   4.051   0.071 -0.3556  0.1901  0.5185
13964TIP3    H163383   1.872   4.053   0.049 -0.5036  0.0490  1.0996
13964TIP3    H263384   2.010   4.080  -0.008 -0.8550 -0.3771  0.0244
13965TIP3   OH263385   2.078   2.081  12.341 -0.5364 -0.1462  0.3726
13965TIP3    H163386   2.137   2.103  12.269 -0.9711  0.1624  0.1088
13965TIP3    H263387   1.996   2.055  12.299 -0.2945 -1.5118  0.7036
13966TIP3   OH263388   5.212   3.029  11.857 -0.0266  0.7651 -0.1700
13966TIP3    H163389   5.241   3.000  11.771  0.4232  0.9007 -0.0665
13966TIP3    H263390   5.163   2.955  11.892  2.0938 -0.3770  0.5728
13967TIP3   OH263391   1.777   0.412   4.911  0.3497  0.4315 -0.0786
13967TIP3    H163392   1.697   0.430   4.961  0.3921  0.9085 -0.1741
13967TIP3    H263393   1.749   0.420   4.820  0.7847  1.9344 -0.1117
13968TIP3   OH263394   5.870   6.373   5.158 -0.0441  0.1405 -0.2579
13968TIP3    H163395   5.830   6.435   5.218  0.0733 -0.9805  1.0286
13968TIP3    H263396   5.890   6.424   5.079  0.8305  1.9169  1.0600
13969TIP3   OH263397   6.735   6.290  12.869  0.1685 -0.5275 -0.1714
13969TIP3    H163398   6.731   6.278  12.964  0.5782 -0.1867 -0.1088
13969TIP3    H263399   6.722   6.202  12.833  0.6591 -0.7649  0.2232
13970TIP3   OH263400   2.298   1.387   6.456 -0.1663 -0.3973  0.1857
13970TIP3    H163401   2.252   1.353   6.532 -1.3427  1.7860  0.5145
13970TIP3    H263402   2.236   1.376   6.384  0.5888 -1.6016 -0.3096
13971TIP3   OH263403   2.711   6.320  14.814  0.1992  0.2827  0.0353
13971TIP3    H163404   2.653   6.302  14.888  0.6043  0.5980  0.4327
13971TIP3    H263405   2.715   6.415  14.809  2.1628  0.3160  1.2109
13972TIP3   OH263406   1.486   0.684  14.543  0.0850 -0.8385 -0.1373
13972TIP3    H163407   1.397   0.716  14.528  0.6936  0.6787 -0.7264
13972TIP3    H263408   1.522   0.673  14.456  0.4538 -1.5038  0.0987
13973TIP3   OH263409   1.460   6.125   0.626 -0.3264  0.3944  0.3229
13973TIP3    H163410   1.392   6.189   0.648  0.2677  0.9364  0.6252
13973TIP3    H263411   1.415   6.040   0.632 -1.3298  0.8122 -0.8859
13974TIP3   OH263412   1.984   3.392  12.080 -0.2158 -0.8317  0.0686
13974TIP3    H163413   2.029   3.357  12.003  1.1836 -1.0427  0.9423
13974TIP3    H263414   1.924   3.322  12.107  0.1073 -1.2073 -0.1747
13975TIP3   OH263415   1.220   6.839   2.410 -0.6234  0.7036 -0.3205
13975TIP3    H163416   1.250   6.858   2.321  0.9056  1.3347  0.3142
13975TIP3    H263417   1.218   6.924   2.453 -2.2472  0.5267  0.0186
13976TIP3   OH263418   3.664   5.268   2.283 -0.4088  0.0920 -0.4852
13976TIP3    H163419   3.669   5.336   2.216 -0.2749  0.4485 -0.1213
13976TIP3    H263420   3.584   5.219   2.263 -1.1216  1.0640 -0.0947
13977TIP3   OH263421   5.678   1.276  15.281  0.4434  0.1936 -0.1287
13977TIP3    H163422   5.611   1.287  15.213 -2.0744 -1.1504  1.9813
13977TIP3    H263423   5.653   1.337  15.350  1.9700  0.3044  0.3708
13978TIP3   OH263424   6.423   1.790   0.166  0.4129 -0.3413 -0.1752
13978TIP3    H163425   6.465   1.707   0.144 -0.4499 -1.7235  2.8515
13978TIP3    H263426   6.343   1.765   0.212 -0.6885  2.2144 -0.5435
13979TIP3   OH263427   6.792   3.374  15.417  0.0944 -0.1101  1.0400
13979TIP3    H163428   6.705   3.347  15.448  0.0736 -0.1482  0.9461
13979TIP3    H263429   6.785   3.375  15.322 -0.3416  1.5971  1.0466
13980TIP3   OH263430   4.842   1.126   1.051  1.1230 -0.4878 -0.1757
13980TIP3    H163431   4.909   1.177   1.005  2.2813 -1.2266  0.6194
13980TIP3    H263432   4.799   1.188   1.109  1.1201  0.0012 -0.6949
13981TIP3   OH263433   5.667   6.773  15.090  0.4136 -0.3661 -0.2983
13981TIP3    H163434   5.619   6.719  15.152  1.4523 -0.3473  0.5441
13981TIP3    H263435   5.599   6.825  15.046 -0.3798 -0.7737  0.4275
13982TIP3   OH263436   2.884   4.275   1.976 -0.4461 -0.0659 -0.0731
13982TIP3    H163437   2.916   4.314   2.058  1.6591 -0.4466 -0.6618
13982TIP3    H263438   2.812   4.218   2.003 -0.6967  0.8544  1.3295
13983TIP3   OH263439   5.132   4.038  13.418  0.3764 -0.2337 -0.1216
13983TIP3    H163440   5.159   3.946  13.419  0.7671 -0.1174  0.9868
13983TIP3    H263441   5.036   4.035  13.428  0.3944 -0.5188 -0.0262
13984TIP3   OH263442   2.751   4.930  12.361  0.1475  0.0045  1.0462
13984TIP3    H163443   2.829   4.983  12.352 -0.8578  1.7145  1.9529
13984TIP3    H263444   2.683   4.990  12.392 -1.3914 -1.5277  0.8632
13985TIP3   OH263445   6.202   2.040   5.349  0.7905  0.6085  0.0540
13985TIP3    H163446   6.111   2.017   5.367  1.2537 -0.0354  1.7551
13985TIP3    H263447   6.232   2.086   5.427  1.0863  3.6543 -1.6934
13986TIP3   OH263448   3.705   4.754   6.258  0.5837  0.1909 -0.0278
13986TIP3    H163449   3.770   4.693   6.296 -1.1309 -1.2335  0.7817
13986TIP3    H263450   3.687   4.816   6.328  0.1645 -0.1871  0.2079
13987TIP3   OH263451   4.915   3.368   3.046 -0.3334 -0.1108  0.0044
13987TIP3    H163452   4.842   3.404   2.995 -0.8632 -0.0974  0.7576
13987TIP3    H263453   4.873   3.329   3.122  0.5171  0.6993  0.9115
13988TIP3   OH263454   6.216   4.809   5.649 -0.3040 -0.2937 -0.6234
13988TIP3    H163455   6.207   4.893   5.603 -0.8054 -0.8689 -1.6101
13988TIP3    H263456   6.306   4.782   5.633  0.0936  0.4018  0.3339
13989TIP3   OH263457   1.283   1.487   0.336 -0.8248  0.0145  0.2192
13989TIP3    H163458   1.301   1.580   0.347  1.1238 -0.2059 -0.7006
13989TIP3    H263459   1.251   1.479   0.246  1.0976 -0.4136 -0.4805
13990TIP3   OH263460   3.058   3.685  11.773  0.5436 -0.4578 -0.4394
13990TIP3    H163461   3.107   3.762  11.802  0.6480 -0.7162  0.0872
13990TIP3    H263462   2.979   3.720  11.733  0.4991 -0.0874 -0.0283
13991TIP3   OH263463   3.622   6.359   0.856  0.8280 -0.4601 -0.1768
13991TIP3    H163464   3.578   6.421   0.798  0.2369 -1.2764 -0.6288
13991TIP3    H263465   3.670   6.414   0.918 -0.4480  0.4568  0.0408
13992TIP3   OH263466   3.498   0.473   1.220 -0.6740 -0.1941 -0.2449
13992TIP3    H163467   3.511   0.525   1.141 -0.5036  1.0935  0.6000
13992TIP3    H263468   3.404   0.457   1.223 -0.5860 -0.9436 -1.1152
13993TIP3   OH263469   5.568   1.815   4.429 -0.2096 -0.2322 -0.3831
13993TIP3    H163470   5.632   1.819   4.499  1.9828 -1.0004 -2.2205
13993TIP3    H263471   5.558   1.906   4.400  0.2438 -0.1331 -0.2293
13994TIP3   OH263472   1.449   4.016   0.672 -0.0325 -0.2667 -0.4203
13994TIP3    H163473   1.492   3.951   0.617  1.2006 -0.3056  0.5516
13994TIP3    H263474   1.455   3.981   0.760 -1.9577 -0.1953 -0.2255
13995TIP3   OH263475   5.850   6.184   5.365 -0.1247  0.3616 -0.1591
13995TIP3    H163476   5.852   6.262   5.310 -0.7551  0.5496  0.0775
13995TIP3    H263477   5.760   6.151   5.358  0.2998 -0.7255 -0.7770
13996TIP3   OH263478   1.132   3.123   0.586 -0.2545 -0.1433 -0.5967
13996TIP3    H163479   1.197   3.079   0.642 -0.1212 -0.9213 -1.3440
13996TIP3    H263480   1.157   3.099   0.497  0.0761  1.8200 -1.0747
13997TIP3   OH263481   4.329   6.480  12.266 -0.1872 -0.4299  0.4230
13997TIP3    H163482   4.296   6.392  12.247  0.5909 -0.9738  1.5024
13997TIP3    H263483   4.424   6.471  12.261 -0.1098  0.3943  0.3969
13998TIP3   OH263484   2.134   1.930   3.066 -0.1168  0.1431 -0.1712
13998TIP3    H163485   2.145   1.870   3.140  1.3939  0.6263  0.0395
13998TIP3    H263486   2.137   1.874   2.989 -2.6982 -0.4893  0.1088
13999TIP3   OH263487   4.108   1.257  13.931  0.1598  0.5712 -0.0671
13999TIP3    H163488   4.150   1.172  13.920 -1.6590 -0.2137 -1.4246
13999TIP3    H263489   4.098   1.266  14.026 -1.8862 -1.9843  0.0845
14000TIP3   OH263490   3.025   1.905   1.669 -0.1416  0.2051  0.4532
14000TIP3    H163491   2.981   1.833   1.623  0.4517  1.4357 -2.2444
14000TIP3    H263492   2.981   1.984   1.637  1.2386  1.2152  0.9802
14001TIP3   OH263493   1.909   6.610   1.217  0.1499  0.1938  0.1159
14001TIP3    H163494   1.867   6.673   1.276 -1.0037  0.5887 -1.0490
14001TIP3    H263495   1.858   6.530   1.227  1.1066 -0.3310  0.9881
14002TIP3   OH263496   5.761   6.782   4.183 -0.5036 -0.0035 -0.1285
14002TIP3    H163497   5.776   6.871   4.151 -2.2072  0.0270 -0.9714
14002TIP3    H263498   5.833   6.766   4.244  2.2992  0.3737 -3.0649
14003TIP3   OH263499   6.123   4.234  10.879  0.4678  0.6695 -0.0593
14003TIP3    H163500   6.178   4.162  10.847  0.9672  0.2598  1.6365
14003TIP3    H263501   6.148   4.309  10.825  0.9208 -0.0886 -0.9382
14004TIP3   OH263502   5.128   0.774  13.532  0.2117  0.3221  0.6184
14004TIP3    H163503   5.184   0.764  13.455  1.4069 -0.0978  1.5139
14004TIP3    H263504   5.126   0.868  13.549 -0.9807  0.5433 -0.5558
14005TIP3   OH263505   0.248   6.251   5.725 -0.0243 -0.0107 -0.2978
14005TIP3    H163506   0.253   6.217   5.815 -0.0111 -1.6491 -0.8956
14005TIP3    H263507   0.339   6.265   5.699  0.1353 -1.8111 -0.8558
14006TIP3   OH263508   4.300   6.189  14.351  0.0875  0.3918 -0.0903
14006TIP3    H163509   4.359   6.216  14.280 -0.8529 -0.4341 -1.2284
14006TIP3    H263510   4.262   6.271  14.382  0.7101  0.7962 -0.3625
14007TIP3   OH263511   0.929   3.182  16.178  0.4962  0.2597  0.4696
14007TIP3    H163512   0.863   3.167  16.246  0.0440  0.9424  0.1953
14007TIP3    H263513   0.949   3.095  16.144 -1.4063  0.1581 -0.5174
14008TIP3   OH263514   5.506   6.239  11.057 -0.0443 -0.1846 -0.1397
14008TIP3    H163515   5.426   6.196  11.088  0.1982  0.4411  1.4432
14008TIP3    H263516   5.506   6.324  11.102  1.3062 -0.0172 -0.4313
14009TIP3   OH263517   5.593   4.121  12.455  0.1896  0.1093  0.4204
14009TIP3    H163518   5.594   4.195  12.516  1.2809 -0.2286  0.8537
14009TIP3    H263519   5.641   4.052  12.501  1.9266  0.1630 -1.1870
14010TIP3   OH263520   5.499   0.863   0.393  0.2333 -0.4797 -0.3867
14010TIP3    H163521   5.439   0.815   0.448  2.4325 -0.3700  2.3409
14010TIP3    H263522   5.586   0.829   0.416  1.4883  1.5110 -1.8100
14011TIP3   OH263523   6.292   6.232  11.982  0.3958  0.1061 -0.2490
14011TIP3    H163524   6.264   6.302  11.923 -1.4091 -1.3649 -1.2390
14011TIP3    H263525   6.270   6.264  12.070 -0.6592  0.6713 -0.7057
14012TIP3   OH263526   3.156   5.430   1.517  0.2814 -0.3912  0.0230
14012TIP3    H163527   3.170   5.363   1.584 -1.6398  0.9447  1.8742
14012TIP3    H263528   3.216   5.500   1.540 -0.9032  0.3826  0.8493
14013TIP3   OH263529   3.805   3.569   0.533  0.5806  0.0871 -0.2598
14013TIP3    H163530   3.734   3.574   0.469 -0.9545  1.4190  1.4329
14013TIP3    H263531   3.782   3.495   0.590  0.2696  0.7883  0.5575
14014TIP3   OH263532   6.613   0.527  15.998  0.1963 -0.2443 -0.4146
14014TIP3    H163533   6.561   0.467  15.945 -0.5593 -0.7837  0.8779
14014TIP3    H263534   6.556   0.602  16.013 -0.0233 -0.5773  0.5144
14015TIP3   OH263535   3.135   1.322  15.485  0.3105 -0.1450  1.1865
14015TIP3    H163536   3.148   1.393  15.548 -0.8214  0.5126  0.7119
14015TIP3    H263537   3.163   1.359  15.401 -1.8715  0.3701  0.6333
14016TIP3   OH263538   3.730   6.799  16.625 -0.7326  0.3081  0.3799
14016TIP3    H163539   3.637   6.784  16.645 -0.9057  0.5427 -0.2284
14016TIP3    H263540   3.732   6.815  16.531 -0.1064  0.5786  0.4353
14017TIP3   OH263541   1.928   6.773   6.180  0.8453 -0.0044  0.1264
14017TIP3    H163542   1.920   6.842   6.246 -1.7282 -0.5612  0.4840
14017TIP3    H263543   1.849   6.720   6.191  1.1059 -1.0274 -2.3893
14018TIP3   OH263544   6.651   6.493   4.967  0.3584 -0.0104  0.0942
14018TIP3    H163545   6.692   6.539   4.894 -0.7747  1.5141  0.3664
14018TIP3    H263546   6.617   6.563   5.023 -1.0704 -1.1663  0.7490
14019TIP3   OH263547   6.721   5.703  12.652 -0.3130 -0.5184  0.1806
14019TIP3    H163548   6.772   5.631  12.616 -0.1090 -0.6775  0.7628
14019TIP3    H263549   6.785   5.759  12.696  0.3068  2.6083 -4.1031
14020TIP3   OH263550   2.542   4.111  16.461  0.0147 -0.1766 -0.2894
14020TIP3    H163551   2.501   4.081  16.379 -1.9380 -1.7008  1.1283
14020TIP3    H263552   2.521   4.204  16.465  1.4948  0.3082 -2.2082
14021TIP3   OH263553   3.520   3.355  16.947  0.9453  0.1063 -0.4282
14021TIP3    H163554   3.550   3.349  17.038 -1.4063  2.0391  0.5748
14021TIP3    H263555   3.576   3.293  16.900  3.4197  0.2894  1.9917
14022TIP3   OH263556   0.221   3.595   4.385  0.0408 -0.2639 -0.2038
14022TIP3    H163557   0.194   3.614   4.474  0.9504 -0.3020  0.0919
14022TIP3    H263558   0.200   3.674   4.336  0.3751  0.1049  0.2407
14023TIP3   OH263559   1.848   6.627  15.632 -0.2143 -0.3523 -0.0576
14023TIP3    H163560   1.872   6.676  15.553 -1.4054 -0.1082 -0.2852
14023TIP3    H263561   1.797   6.688  15.685  0.0820 -0.6964  0.6412
14024TIP3   OH263562   5.374   5.236   3.459  0.0384  0.3493 -0.1914
14024TIP3    H163563   5.350   5.145   3.442 -1.4058  0.7251 -0.2749
14024TIP3    H263564   5.376   5.242   3.555  0.2189  0.2088 -0.1859
14025TIP3   OH263565   1.342   6.157   3.443 -0.5423 -0.7408  0.7105
14025TIP3    H163566   1.348   6.132   3.535 -2.0229 -1.2312  0.6984
14025TIP3    H263567   1.286   6.090   3.404 -3.7107  1.8753  0.3958
14026TIP3   OH263568   2.746   4.777   5.907 -0.1018  0.0967  0.1315
14026TIP3    H163569   2.830   4.753   5.946  1.0191  3.5879  0.1955
14026TIP3    H263570   2.710   4.844   5.965 -2.3355 -0.3508 -0.6206
14027TIP3   OH263571   3.921   2.249  11.527 -0.0090  0.6436  0.5391
14027TIP3    H163572   3.962   2.277  11.445 -1.7738  2.1182  0.0960
14027TIP3    H263573   3.827   2.258  11.511 -0.4724 -0.8068  2.1432
14028TIP3   OH263574   3.076   4.947   2.075 -0.0570  0.3716  0.5873
14028TIP3    H163575   3.084   4.946   2.171  1.6616  0.0745  0.4786
14028TIP3    H263576   3.061   4.856   2.051  0.8437  0.2264  0.5174
14029TIP3   OH263577   0.879   4.110  13.239  0.2499  0.2431  0.0715
14029TIP3    H163578   0.968   4.133  13.210  0.1360  0.9560  0.2718
14029TIP3    H263579   0.822   4.153  13.176  0.0311  0.3164  0.3221
14030TIP3   OH263580   1.751   4.447   0.247 -0.7940  0.0906  0.1966
14030TIP3    H163581   1.837   4.413   0.222 -1.0330 -0.6787  0.4246
14030TIP3    H263582   1.698   4.437   0.168 -1.4039 -1.8650  0.8147
14031TIP3   OH263583   3.549   0.566   0.492  0.1294 -0.0473 -0.2341
14031TIP3    H163584   3.536   0.475   0.467  1.1621 -0.5145  0.8361
14031TIP3    H263585   3.461   0.599   0.509 -0.1589 -1.3055  0.8629
14032TIP3   OH263586   5.468   1.194   2.071 -0.2769 -0.1311  0.2797
14032TIP3    H163587   5.537   1.129   2.083 -1.0438 -1.2450 -0.9067
14032TIP3    H263588   5.490   1.265   2.130  1.2107 -0.9913  0.8109
14033TIP3   OH263589   2.127   6.434   2.277  0.2585  0.1373 -0.1700
14033TIP3    H163590   2.175   6.362   2.236 -0.4138 -0.5198  0.1697
14033TIP3    H263591   2.129   6.414   2.370  0.2829  0.6995 -0.0452
14034TIP3   OH263592   6.692   1.311  10.742  0.0736  0.3190  0.2430
14034TIP3    H163593   6.628   1.252  10.702 -0.3765  0.4417  0.7737
14034TIP3    H263594   6.665   1.319  10.833  1.4420 -0.4279  0.7426
14035TIP3   OH263595   4.065   2.668  10.289 -0.5847 -0.0641  0.2778
14035TIP3    H163596   4.086   2.712  10.206 -0.0981  0.4855  0.6845
14035TIP3    H263597   4.127   2.705  10.352 -0.8621 -0.5791  0.8616
14036TIP3   OH263598   2.949   4.960  10.471  0.0697  0.8037  0.4252
14036TIP3    H163599   2.895   4.999  10.402 -1.1117  1.0761  1.4660
14036TIP3    H263600   3.004   5.032  10.502  1.2204  0.4799 -0.7684
14037TIP3   OH263601   4.482   6.578  16.535  0.3107 -0.0477  0.0714
14037TIP3    H163602   4.434   6.568  16.617 -0.8938 -0.3500 -0.6448
14037TIP3    H263603   4.493   6.673  16.525 -2.8228  0.3173 -1.1750
14038TIP3   OH263604   1.624   2.529  14.831 -0.3875  0.1191 -0.0248
14038TIP3    H163605   1.586   2.442  14.834  0.9757 -0.4873  0.4611
14038TIP3    H263606   1.588   2.569  14.752 -1.5537 -0.6182  0.1182
14039TIP3   OH263607   3.873   5.182  14.012  0.4244 -0.5282  0.4695
14039TIP3    H163608   3.871   5.087  13.997  1.9776 -0.4303 -0.5248
14039TIP3    H263609   3.966   5.204  14.015  0.0830  0.9210  1.1053
14040TIP3   OH263610   5.016   0.587   4.711 -0.1034 -0.5151 -0.7803
14040TIP3    H163611   4.991   0.496   4.698 -1.0718 -0.2102 -1.1803
14040TIP3    H263612   4.949   0.623   4.769  0.9764 -0.3665  0.4055
14041TIP3   OH263613   6.343   1.082   2.706  0.1867  0.6944  0.4607
14041TIP3    H163614   6.348   1.176   2.691 -0.7587  0.4763 -1.6222
14041TIP3    H263615   6.289   1.073   2.784 -0.1749  1.8640  0.3647
14042TIP3   OH263616   1.589   4.216   0.527  0.3368  0.6630  0.3536
14042TIP3    H163617   1.550   4.159   0.594  0.9104 -0.4046 -0.1884
14042TIP3    H263618   1.533   4.293   0.525 -1.7449 -0.7857 -0.3871
14043TIP3   OH263619   5.333   0.448   6.329 -0.4067 -0.5622  0.1056
14043TIP3    H163620   5.396   0.475   6.261 -0.6491 -0.2682 -0.0090
14043TIP3    H263621   5.248   0.476   6.294 -0.2724  2.3979  1.8626
14044TIP3   OH263622   4.884   5.935  15.696  0.1062  0.3518  0.3882
14044TIP3    H163623   4.803   5.947  15.745 -0.2857 -1.4705  0.2354
14044TIP3    H263624   4.918   6.024  15.684 -0.8607  0.9991  2.1194
14045TIP3   OH263625   6.671   4.756  13.358 -0.3387  0.1413 -0.3002
14045TIP3    H163626   6.595   4.767  13.417 -0.6496 -0.1090 -0.6505
14045TIP3    H263627   6.650   4.810  13.283 -0.0138  0.3305 -0.2527
14046TIP3   OH263628   6.231   1.942  14.661 -0.3645  0.0456 -0.1735
14046TIP3    H163629   6.182   2.023  14.674 -0.9297  0.2090 -2.7519
14046TIP3    H263630   6.171   1.872  14.689 -0.1921  0.4615  1.2632
14047TIP3   OH263631   4.774   1.730   2.195  0.1449  0.5358 -0.0818
14047TIP3    H163632   4.777   1.653   2.252  1.2754  0.4532 -0.2167
14047TIP3    H263633   4.813   1.800   2.247  3.0211  0.0200 -1.3109
14048TIP3   OH263634   1.340   5.535  11.531  0.1291  0.1403 -0.3548
14048TIP3    H163635   1.265   5.585  11.561 -0.2871 -0.3869 -0.4940
14048TIP3    H263636   1.410   5.599  11.522 -1.3074  1.4614 -3.9842
14049TIP3   OH263637   6.037   3.813   1.813 -0.6442  0.6480 -0.1425
14049TIP3    H163638   6.105   3.831   1.878  0.4355 -1.2128 -0.6750
14049TIP3    H263639   5.960   3.790   1.865 -0.1721  0.4480  0.4852
14050TIP3   OH263640   1.049   4.397  16.394  0.6170 -0.0948  0.6033
14050TIP3    H163641   1.020   4.309  16.421 -0.7024  0.2174  0.2779
14050TIP3    H263642   0.996   4.457  16.447  1.7972  0.5271  1.1161
14051TIP3   OH263643   5.251   5.603  13.562 -0.2417 -0.1790  0.0514
14051TIP3    H163644   5.202   5.660  13.503 -0.2478  0.8845  1.0537
14051TIP3    H263645   5.210   5.517  13.551 -0.8788  0.2167 -0.7544
14052TIP3   OH263646   0.609   0.236  15.097 -0.0722 -0.4712 -0.0311
14052TIP3    H163647   0.687   0.184  15.076  0.9698  0.2339  1.8633
14052TIP3    H263648   0.613   0.311  15.038  0.9758 -0.2028  0.3526
14053TIP3   OH263649   6.592   0.331  10.969  0.6999  0.3637  0.5235
14053TIP3    H163650   6.563   0.283  10.892  2.9707 -1.2065  0.5498
14053TIP3    H263651   6.649   0.400  10.935  2.4612 -0.9031  0.7469
14054TIP3   OH263652   3.789   5.852  11.505 -0.0999  0.2875  0.2888
14054TIP3    H163653   3.746   5.936  11.487 -0.8194 -0.0547  0.3839
14054TIP3    H263654   3.858   5.874  11.568 -1.4320  0.5391  1.7092
14055TIP3   OH263655   4.177   3.513  16.981  0.5025 -0.2444  0.1665
14055TIP3    H163656   4.240   3.531  16.910 -1.4687  0.7442 -1.4424
14055TIP3    H263657   4.145   3.425  16.962 -0.6798  0.3526 -0.7819
14056TIP3   OH263658   6.471   4.614   0.130  0.1820  0.2468  0.1263
14056TIP3    H163659   6.542   4.573   0.179 -1.0393  0.4373  2.1541
14056TIP3    H263660   6.463   4.701   0.167  0.2765  1.0333 -1.5839
14057TIP3   OH263661   2.870   1.922  14.719 -0.1120  0.4420 -0.0417
14057TIP3    H163662   2.904   1.859  14.783 -1.1269  0.2729  0.3507
14057TIP3    H263663   2.822   1.869  14.656 -0.2850  0.7447 -0.1659
14058TIP3   OH263664   0.640   0.554   3.015 -0.0221 -0.2917  0.1719
14058TIP3    H163665   0.652   0.631   2.958 -1.0307  0.6610  1.2000
14058TIP3    H263666   0.729   0.526   3.035  0.4492  1.8093  1.3332
14059TIP3   OH263667   2.472   2.717  13.492 -0.3846  0.0254  0.9576
14059TIP3    H163668   2.405   2.720  13.423 -0.2381 -2.2515  0.6658
14059TIP3    H263669   2.553   2.696  13.445  0.0312  0.1099  1.6323
14060TIP3   OH263670   5.253   3.524   4.998  0.2789  0.1602 -0.6684
14060TIP3    H163671   5.223   3.434   4.985 -0.2661  0.1334  0.6417
14060TIP3    H263672   5.205   3.575   4.934  0.5944 -0.4752 -1.4283
14061TIP3   OH263673   4.873   5.790   2.954  0.2337 -0.5358  0.1999
14061TIP3    H163674   4.834   5.788   3.041  0.0913  1.4555  0.2377
14061TIP3    H263675   4.959   5.749   2.966 -0.6423 -2.2959  0.7544
14062TIP3   OH263676   2.670   2.989  11.444 -0.4689  0.3089 -0.3197
14062TIP3    H163677   2.690   3.011  11.535 -1.1244 -1.6615  0.3648
14062TIP3    H263678   2.739   3.032  11.393  0.2553  0.9645  1.1558
14063TIP3   OH263679   4.444   5.382  11.562 -0.3351 -0.0879  0.6009
14063TIP3    H163680   4.375   5.333  11.607 -0.9711  0.6273  0.4167
14063TIP3    H263681   4.525   5.345  11.597 -0.7383 -2.3981 -0.7334
14064TIP3   OH263682   2.332   1.827  13.873 -0.4432 -0.2549  0.3775
14064TIP3    H163683   2.320   1.883  13.796 -1.8418  1.3124  1.6566
14064TIP3    H263684   2.372   1.884  13.938 -0.7353 -1.1100  1.3295
14065TIP3   OH263685   4.779   1.393   4.322 -0.2340 -0.0738 -0.2093
14065TIP3    H163686   4.773   1.456   4.394  1.9431  1.0408 -0.8968
14065TIP3    H263687   4.843   1.328   4.352 -0.2856 -0.3149 -0.6192
14066TIP3   OH263688   4.071   0.870   3.992 -1.2177 -0.4166  0.0096
14066TIP3    H163689   4.129   0.911   4.056 -3.0329 -1.2963  2.3467
14066TIP3    H263690   4.075   0.928   3.916  2.1554 -0.1029  0.2651
14067TIP3   OH263691   5.917   1.467   0.282  0.7865 -0.2021  0.2894
14067TIP3    H163692   5.945   1.558   0.286  0.4348  0.2182 -3.1918
14067TIP3    H263693   5.979   1.426   0.220  0.6606 -2.2271  1.4143
14068TIP3   OH263694   6.307   5.770   4.836  0.2896  0.4772  0.4213
14068TIP3    H163695   6.381   5.744   4.782  0.9447  0.6533  1.2176
14068TIP3    H263696   6.346   5.797   4.919 -0.8044 -1.1754  1.5279
14069TIP3   OH263697   2.323   1.600  12.667 -0.1543  0.0109  0.3874
14069TIP3    H163698   2.228   1.593  12.675  0.0695 -1.6237  3.1748
14069TIP3    H263699   2.355   1.511  12.682  1.8501  0.6204  0.0659
14070TIP3   OH263700   1.918   3.748   1.585 -0.2185  0.3556  0.3901
14070TIP3    H163701   1.862   3.766   1.661  0.6604 -2.5559  1.9154
14070TIP3    H263702   1.903   3.655   1.567  1.9044  0.2208 -1.0207
14071TIP3   OH263703   5.125   3.438  14.078  0.0061  0.3149 -0.0061
14071TIP3    H163704   5.207   3.389  14.085  0.1004  0.1565 -1.7575
14071TIP3    H263705   5.061   3.374  14.049 -0.2713  0.8371 -0.5790
14072TIP3   OH263706   0.090   6.565   4.179  0.0736  0.1361  0.0662
14072TIP3    H163707   0.022   6.594   4.119  1.0334  2.0262 -0.1841
14072TIP3    H263708   0.168   6.614   4.152  0.4347  1.5183  3.1570
14073TIP3   OH263709   3.657   3.796  13.151  0.1484 -0.8580  0.6512
14073TIP3    H163710   3.628   3.720  13.100 -0.7189  0.8165 -1.5038
14073TIP3    H263711   3.662   3.867  13.088  0.0949  1.1090  2.7319
14074TIP3   OH263712   2.326   4.829   0.957  0.5393 -0.4610  0.9145
14074TIP3    H163713   2.300   4.772   1.029 -1.8314  0.1069  0.5781
14074TIP3    H263714   2.345   4.770   0.885 -1.3285 -0.8852  0.7428
14075TIP3   OH263715   4.044   3.697   2.901 -0.1156 -0.1961 -0.5018
14075TIP3    H163716   3.950   3.694   2.882 -0.2650  0.9721  0.0260
14075TIP3    H263717   4.052   3.752   2.979  0.9164 -1.1830  0.1231
14076TIP3   OH263718   1.916   0.727   2.164 -0.3784 -0.0341  0.1467
14076TIP3    H163719   1.939   0.779   2.088  0.3387  0.6632  0.8291
14076TIP3    H263720   1.894   0.640   2.128 -0.3078  0.3530 -0.8610
14077TIP3   OH263721   5.372   2.655  15.451 -0.1247  0.3279 -0.1512
14077TIP3    H163722   5.416   2.631  15.532  0.6995 -1.2260 -1.0067
14077TIP3    H263723   5.285   2.615  15.459  0.2261 -0.5087 -0.3275
14078TIP3   OH263724   4.508   2.347   2.539 -0.1653  0.2731  0.0474
14078TIP3    H163725   4.556   2.368   2.619  0.6513 -1.2789  0.0159
14078TIP3    H263726   4.437   2.291   2.568  0.9010 -1.3961 -0.3976
14079TIP3   OH263727   5.275   4.783   4.979 -0.4436  0.7900  0.3006
14079TIP3    H163728   5.325   4.794   5.060 -0.0749 -0.0648  0.2038
14079TIP3    H263729   5.187   4.760   5.007 -0.1674 -0.1215  0.4786
14080TIP3   OH263730   0.110   3.855  12.099  0.6423 -0.3980  0.2402
14080TIP3    H163731   0.025   3.897  12.087  0.0004 -1.0207  2.2639
14080TIP3    H263732   0.174   3.923  12.078 -0.3464  0.5099  0.0933
14081TIP3   OH263733   3.987   5.958  11.674  0.4357  0.2482  0.2683
14081TIP3    H163734   4.071   6.003  11.668  0.5279  0.1200  0.5818
14081TIP3    H263735   3.931   6.018  11.723  0.5129  0.0908  0.5510
14082TIP3   OH263736   2.560   6.849   4.814 -0.1988  0.2360 -0.2576
14082TIP3    H163737   2.540   6.780   4.878  0.9755  0.8285  0.7832
14082TIP3    H263738   2.628   6.901   4.856  0.4961  0.7346 -1.9394
14083TIP3   OH263739   5.927   1.208  16.992 -0.2300  0.0270  0.3730
14083TIP3    H163740   6.021   1.229  16.991 -0.2907  0.2965  0.1491
14083TIP3    H263741   5.916   1.142  16.924 -0.3947  0.8507 -0.4148
14084TIP3   OH263742   5.870   0.058   6.611 -0.2667 -0.2310  0.4171
14084TIP3    H163743   5.953   0.067   6.659  0.9316 -1.9305 -1.1713
14084TIP3    H263744   5.823  -0.011   6.658  0.0563 -0.5569  0.2700
14085TIP3   OH263745   4.510   6.778   6.255  0.2266 -0.4100 -0.6286
14085TIP3    H163746   4.492   6.787   6.349  1.1001 -0.0137 -0.4844
14085TIP3    H263747   4.470   6.855   6.215  2.6073  1.2012 -0.1428
14086TIP3   OH263748   5.523   0.925   3.747  0.2896 -0.2448 -0.3027
14086TIP3    H163749   5.539   0.988   3.818 -1.2533 -2.1003  1.8442
14086TIP3    H263750   5.432   0.898   3.759  0.7340 -2.4901 -1.4239
14087TIP3   OH263751   5.147   2.107   3.080 -0.1253 -0.1284 -0.2459
14087TIP3    H163752   5.205   2.099   3.155 -0.3215 -2.1309 -0.2642
14087TIP3    H263753   5.088   2.032   3.087 -1.6040  0.8894 -1.1826
14088TIP3   OH263754   5.554   2.611  11.633  0.1959 -0.2931 -0.3088
14088TIP3    H163755   5.601   2.633  11.713 -1.3525  2.0707  0.0547
14088TIP3    H263756   5.584   2.676  11.569 -0.0023 -0.9425 -1.0685
14089TIP3   OH263757   1.182   1.618  15.653  0.9614  0.1609  0.5416
14089TIP3    H163758   1.165   1.689  15.715  0.1290  0.1343  0.3615
14089TIP3    H263759   1.244   1.561  15.698 -0.5399 -0.4928  1.8511
14090TIP3   OH263760   4.223   6.010  11.364 -0.2979 -0.1148  0.8537
14090TIP3    H163761   4.276   6.014  11.443  0.4007 -1.3613  0.4767
14090TIP3    H263762   4.185   6.097  11.356  0.5738  0.3817  1.9018
14091TIP3   OH263763   3.544   2.020  16.788 -0.4868 -0.6010 -0.1192
14091TIP3    H163764   3.546   2.083  16.715 -1.3280 -0.4964 -0.0673
14091TIP3    H263765   3.461   1.974  16.777 -0.6147 -0.6011  0.7576
14092TIP3   OH263766   0.998   4.993  12.403 -0.1996  0.3216 -0.3985
14092TIP3    H163767   1.046   5.015  12.483 -1.2118 -1.6820  0.8596
14092TIP3    H263768   1.000   4.897  12.400 -2.4031  0.2535 -1.3605
14093TIP3   OH263769   6.192   0.591  16.168  0.5914 -0.0297  0.3444
14093TIP3    H163770   6.117   0.578  16.225 -0.3015  0.5105 -0.6842
14093TIP3    H263771   6.194   0.513  16.113  1.0074 -0.2101  0.6112
14094TIP3   OH263772   2.383   2.669  14.206 -0.3584  0.4468 -0.2100
14094TIP3    H163773   2.292   2.643  14.216 -0.4554  1.2191  1.2550
14094TIP3    H263774   2.423   2.599  14.154 -1.8898  0.3801 -1.3352
14095TIP3   OH263775   5.690   0.968   4.988 -0.1074  0.1629 -0.0374
14095TIP3    H163776   5.673   1.061   4.975  0.6861  0.4487  0.9262
14095TIP3    H263777   5.651   0.948   5.073 -0.6775 -0.5037 -0.4414
14096TIP3   OH263778   2.186   3.953   3.273  0.2423  0.9004  0.1273
14096TIP3    H163779   2.161   3.952   3.365  2.2178 -0.7313  0.7247
14096TIP3    H263780   2.202   4.045   3.253  0.9235  1.1706  1.7618
14097TIP3   OH263781   2.019   3.165  11.441 -0.1738  0.4040  0.5392
14097TIP3    H163782   2.043   3.231  11.377 -0.6044 -1.9802 -2.3194
14097TIP3    H263783   2.083   3.094  11.427 -2.1836 -1.4932  0.4853
14098TIP3   OH263784   5.915   5.601  15.770 -0.4845 -0.6781 -0.0979
14098TIP3    H163785   5.939   5.599  15.677  1.3322  0.8555  0.2779
14098TIP3    H263786   5.824   5.630  15.771 -1.1675 -2.5545 -1.4283
14099TIP3   OH263787   3.331   3.261  14.978  0.5613 -0.1279 -0.4757
14099TIP3    H163788   3.317   3.326  14.909 -0.4310 -0.3793 -0.5249
14099TIP3    H263789   3.373   3.187  14.934  1.1288  0.2325 -0.5425
14100TIP3   OH263790   5.609   6.145  13.747 -0.0236  0.0208  0.4797
14100TIP3    H163791   5.691   6.097  13.735  1.1365  1.7158  1.1515
14100TIP3    H263792   5.583   6.128  13.837 -1.3167 -1.7726 -0.1811
14101TIP3   OH263793   2.322   3.962  15.772  0.0345 -0.5257  0.6246
14101TIP3    H163794   2.230   3.988  15.764 -0.3702 -2.1303 -0.3886
14101TIP3    H263795   2.320   3.867  15.771  1.8815 -0.6264 -1.7323
14102TIP3   OH263796   1.806   6.740   3.682 -0.1370 -0.2466 -0.6842
14102TIP3    H163797   1.805   6.644   3.683  0.0857 -0.2500 -0.1401
14102TIP3    H263798   1.713   6.765   3.686 -0.1928 -0.4428 -0.7713
14103TIP3   OH263799   3.089   1.906  11.514  0.3564  0.5710 -0.2654
14103TIP3    H163800   3.158   1.944  11.459 -0.5861 -1.2017 -2.8714
14103TIP3    H263801   3.029   1.979  11.530  0.0044  0.9394 -2.7801
14104TIP3   OH263802   2.671   0.138   4.446 -0.5230 -0.3474  0.1532
14104TIP3    H163803   2.714   0.097   4.521 -1.6322  1.1548  1.6824
14104TIP3    H263804   2.580   0.148   4.474 -1.2404 -0.8254 -1.8806
14105TIP3   OH263805   4.367   4.109   1.812 -0.5530 -0.6251  0.3743
14105TIP3    H163806   4.369   4.196   1.774  1.0995 -0.6320  0.3724
14105TIP3    H263807   4.443   4.106   1.870 -0.0197 -2.3745 -0.3394
14106TIP3   OH263808   1.652   4.885  13.106 -0.3593  0.2295 -0.0838
14106TIP3    H163809   1.679   4.909  13.017  0.4704 -3.0981 -0.8554
14106TIP3    H263810   1.592   4.812  13.094 -0.5682 -0.0181  2.1069
14107TIP3   OH263811   6.289   6.308  13.231  0.3292 -0.3280 -0.1624
14107TIP3    H163812   6.329   6.275  13.150 -0.4754 -0.4654 -0.5050
14107TIP3    H263813   6.301   6.238  13.294  2.8445  0.5653  0.4754
14108TIP3   OH263814   5.402   4.504   0.697 -0.2154 -0.3162  0.4169
14108TIP3    H163815   5.349   4.574   0.658  1.5775  0.3630 -0.9380
14108TIP3    H263816   5.473   4.490   0.634 -0.9757 -4.0511  0.1457
14109TIP3   OH263817   0.410   5.421  12.717 -0.1758 -0.1402  0.3459
14109TIP3    H163818   0.451   5.435  12.632 -0.2655  0.7026  0.4368
14109TIP3    H263819   0.377   5.331  12.712  0.4228 -0.3395 -0.2488
14110TIP3   OH263820   3.275   5.103  15.473 -0.7441 -0.1939 -0.1527
14110TIP3    H163821   3.240   5.183  15.511 -0.3274  0.5858 -1.3570
14110TIP3    H263822   3.365   5.099  15.505 -0.8975 -0.4087  0.2512
14111TIP3   OH263823   2.571   3.272  16.745 -0.0076 -0.0185  0.0980
14111TIP3    H163824   2.631   3.242  16.676  0.7934 -0.7962  1.1179
14111TIP3    H263825   2.511   3.199  16.759 -0.1759  0.1432  0.2246
14112TIP3   OH263826   3.208   2.661   0.116 -0.0075  0.2716  0.1839
14112TIP3    H163827   3.237   2.607   0.042  1.0811  1.1104 -0.0380
14112TIP3    H263828   3.113   2.665   0.108  0.2081  2.7220 -2.9506
14113TIP3   OH263829   6.035   4.484   5.295 -0.3283 -0.1854  0.9241
14113TIP3    H163830   6.007   4.568   5.258  1.0879 -0.5407 -1.0872
14113TIP3    H263831   5.994   4.482   5.382  0.0830  2.8488  1.3048
14114TIP3   OH263832   5.922   3.128   6.343 -0.0668 -0.1330  0.0522
14114TIP3    H163833   5.837   3.126   6.301 -0.9344 -0.6252  1.7351
14114TIP3    H263834   5.954   3.038   6.339  0.6527  0.1553 -1.0698
14115TIP3   OH263835   6.144   0.441  14.103 -0.3257  0.7783 -0.0240
14115TIP3    H163836   6.079   0.399  14.160 -0.6769 -0.2971 -1.1898
14115TIP3    H263837   6.093   0.507  14.055 -0.2185  1.0256  0.1957
14116TIP3   OH263838   2.911   1.065   2.687  0.2867 -0.2717  0.0676
14116TIP3    H163839   2.973   0.999   2.717 -0.0414 -0.9038 -0.6089
14116TIP3    H263840   2.844   1.068   2.755  1.4501  0.9964  1.2028
14117TIP3   OH263841   0.417   2.294  10.444  0.2334  0.1659  0.2307
14117TIP3    H163842   0.461   2.358  10.388 -1.0979  0.3678 -0.6133
14117TIP3    H263843   0.481   2.275  10.513  1.3129  1.0738 -0.4877
14118TIP3   OH263844   1.858   1.964  16.790 -0.2487  0.0023  0.7088
14118TIP3    H163845   1.800   1.947  16.864  0.5604 -3.0660  0.7582
14118TIP3    H263846   1.803   1.946  16.713 -0.0926 -0.2481  0.6590
14119TIP3   OH263847   3.976   4.374   1.686  0.1529  0.1358 -0.2281
14119TIP3    H163848   4.005   4.286   1.664  2.2827  0.8139 -0.4173
14119TIP3    H263849   4.024   4.431   1.625  1.5394  1.6328  2.1074
14120TIP3   OH263850   5.101   3.386  12.901 -0.2709 -0.1923 -0.1166
14120TIP3    H163851   5.031   3.332  12.938 -1.5699  1.1527 -0.4858
14120TIP3    H263852   5.182   3.344  12.928 -1.1756 -0.4625  2.4028
14121TIP3   OH263853   0.464   2.566   4.546 -0.4629  0.3322  0.5963
14121TIP3    H163854   0.519   2.567   4.468  0.6319 -1.7749  1.2740
14121TIP3    H263855   0.428   2.655   4.551 -0.6477  0.5086 -2.3154
14122TIP3   OH263856   4.812   6.126  16.507 -0.0052  0.2254 -0.2876
14122TIP3    H163857   4.757   6.178  16.565  0.4035  0.2216  0.1137
14122TIP3    H263858   4.902   6.145  16.536  0.1052 -1.7205  0.7513
14123TIP3   OH263859   2.801   1.731   5.369  0.0401  0.5399 -0.4055
14123TIP3    H163860   2.866   1.690   5.427 -0.8713 -1.8847 -0.9502
14123TIP3    H263861   2.740   1.774   5.429  0.9611  0.9989  0.2229
14124TIP3   OH263862   6.183   3.695  10.497 -0.3106 -0.3557 -0.1083
14124TIP3    H163863   6.127   3.738  10.561  1.8264  0.8139  1.0954
14124TIP3    H263864   6.170   3.746  10.417  0.0759  0.7980  0.5431
14125TIP3   OH263865   1.620   6.021  14.430  0.4418 -0.8449  0.4829
14125TIP3    H163866   1.592   6.088  14.367 -1.3284 -0.1232  1.9394
14125TIP3    H263867   1.549   5.957  14.430  0.0543 -0.4653  2.2067
14126TIP3   OH263868   6.509   0.463  14.902 -0.6381  0.1323  0.5001
14126TIP3    H163869   6.532   0.543  14.856  0.9232  0.4762  1.8077
14126TIP3    H263870   6.551   0.393  14.851 -0.9827  0.2534  0.0433
14127TIP3   OH263871   2.300   1.007   4.289 -0.4488  0.4172  0.2399
14127TIP3    H163872   2.337   0.949   4.222  0.8050  1.0018  0.3960
14127TIP3    H263873   2.227   1.050   4.246 -0.6034 -0.3401 -0.2765
14128TIP3   OH263874   5.336   4.454  13.076 -0.0417  0.7490  0.5081
14128TIP3    H163875   5.373   4.537  13.105  1.3111  0.3779 -0.0840
14128TIP3    H263876   5.410   4.406  13.040 -1.0776 -0.0822 -0.6007
14129TIP3   OH263877   1.607   1.156  16.055 -0.0504  0.4158 -0.1370
14129TIP3    H163878   1.641   1.240  16.085 -1.0526  0.1688  1.8310
14129TIP3    H263879   1.684   1.101  16.044  0.7544  1.9216 -2.7819
14130TIP3   OH263880   4.479   1.613  12.750  0.1350 -0.2213  0.4233
14130TIP3    H163881   4.480   1.574  12.838 -0.2915  2.2999  1.6646
14130TIP3    H263882   4.565   1.655  12.742  0.2313 -0.5732 -0.4507
14131TIP3   OH263883   4.006   4.941  12.121  0.2607  0.0003 -0.0601
14131TIP3    H163884   3.982   5.028  12.152  0.3814  0.4101 -1.0702
14131TIP3    H263885   4.102   4.940  12.124  0.2428 -0.2957  0.4604
14132TIP3   OH263886   1.895   4.482   4.555 -0.5515 -0.1913 -1.1397
14132TIP3    H163887   1.864   4.439   4.635  0.7778  1.5827  0.4319
14132TIP3    H263888   1.831   4.551   4.539  0.8687  1.6064  0.4282
14133TIP3   OH263889   3.406   2.887  11.845 -0.4615  0.4734  0.1216
14133TIP3    H163890   3.377   2.843  11.764  0.3588  0.6448 -0.2770
14133TIP3    H263891   3.405   2.980  11.823  1.7841  0.4329 -0.4222
14134TIP3   OH263892   6.837   2.073  14.156  0.1697  0.1015 -0.2400
14134TIP3    H163893   6.898   2.136  14.117 -1.2210  0.9913 -1.0445
14134TIP3    H263894   6.782   2.044  14.083 -1.4123  0.5562  0.7131
14135TIP3   OH263895   2.919   2.065  11.824  1.0723 -0.1097  0.1142
14135TIP3    H163896   2.847   2.102  11.875  0.5113  0.4092 -1.0299
14135TIP3    H263897   2.937   1.981  11.867 -0.0796 -0.1614  0.5501
14136TIP3   OH263898   3.476   2.726  12.051 -0.5980  0.2747 -0.1665
14136TIP3    H163899   3.463   2.634  12.027  0.9572 -0.0507  0.0982
14136TIP3    H263900   3.450   2.775  11.974  0.8615 -0.5426 -1.2263
14137TIP3   OH263901   3.240   6.667  10.348 -0.1042 -0.0797 -0.1037
14137TIP3    H163902   3.266   6.598  10.288  1.0856 -0.4910  0.8394
14137TIP3    H263903   3.173   6.716  10.301  0.9983 -0.1881 -1.8955
14138TIP3   OH263904   1.726   1.304   0.228  0.6906 -0.1343 -0.0298
14138TIP3    H163905   1.640   1.275   0.199  0.8533  0.9333 -1.7453
14138TIP3    H263906   1.708   1.378   0.286  0.4336  1.1089 -1.6258
14139TIP3   OH263907   2.533   4.556   1.951  0.3156  0.4097 -0.3899
14139TIP3    H163908   2.546   4.504   2.030 -2.5433 -0.7684 -0.5850
14139TIP3    H263909   2.539   4.492   1.879 -1.3714  0.6450 -0.7713
14140TIP3   OH263910   2.111   3.246  16.260 -0.1433 -1.0099  0.2992
14140TIP3    H163911   2.020   3.219  16.251 -0.1727 -0.8290  0.0456
14140TIP3    H263912   2.151   3.179  16.315 -0.6696 -0.5706  1.2377
14141TIP3   OH263913   2.271   0.271  16.046 -0.2399 -0.0732  0.0716
14141TIP3    H163914   2.366   0.266  16.056 -0.2353 -1.3352 -0.3866
14141TIP3    H263915   2.244   0.180  16.035 -1.5668  0.2272  0.6920
14142TIP3   OH263916   5.283   4.093   1.180 -0.4605  0.4730  0.2828
14142TIP3    H163917   5.206   4.107   1.235 -0.8028  0.9176 -0.2985
14142TIP3    H263918   5.285   3.999   1.165 -0.3147  0.3394  1.1261
14143TIP3   OH263919   0.161   0.880  11.304 -0.3242  0.2395 -0.0405
14143TIP3    H163920   0.181   0.859  11.212 -1.4599  2.0159 -0.7462
14143TIP3    H263921   0.246   0.897  11.343  0.1539 -0.2098 -0.8521
14144TIP3   OH263922   1.287   4.505  13.953 -0.2566  0.3340 -0.6251
14144TIP3    H163923   1.239   4.568  13.898 -0.4904  1.4492  0.7994
14144TIP3    H263924   1.219   4.457  14.000 -0.0285  0.5213 -0.0998
14145TIP3   OH263925   2.636   4.423   2.183  0.6097  0.1993 -0.1508
14145TIP3    H163926   2.595   4.423   2.269  1.1467  3.1639  0.1803
14145TIP3    H263927   2.727   4.398   2.199  0.5853  0.2565  0.0702
14146TIP3   OH263928   0.288   4.892   5.753 -0.1579  0.0147 -0.3914
14146TIP3    H163929   0.381   4.875   5.737  0.3652  2.6527 -0.6805
14146TIP3    H263930   0.279   4.892   5.848  0.2824  0.2889 -0.3457
14147TIP3   OH263931   4.174   2.210  15.626  0.0840  0.4056  0.2402
14147TIP3    H163932   4.083   2.219  15.597  0.1043 -0.8200 -0.2911
14147TIP3    H263933   4.225   2.235  15.549  0.1478 -1.7656 -0.4807
14148TIP3   OH263934   6.295   2.393  16.070 -0.8534  0.3239  0.4227
14148TIP3    H163935   6.361   2.351  16.126 -1.1893 -0.9414 -0.0989
14148TIP3    H263936   6.346   2.444  16.007 -0.2778 -1.3504 -0.5469
14149TIP3   OH263937   0.566   1.323   4.483 -0.0979 -0.6923  0.2488
14149TIP3    H163938   0.491   1.297   4.429  0.5269 -1.8616 -0.0850
14149TIP3    H263939   0.551   1.282   4.568 -0.4074  0.0390  0.5554
14150TIP3   OH263940   6.677   4.668   2.862 -0.3758 -0.0719  0.0022
14150TIP3    H163941   6.651   4.757   2.839 -0.4383  0.0979  0.7244
14150TIP3    H263942   6.629   4.612   2.800 -3.1884  0.1537  1.8132
14151TIP3   OH263943   0.468   3.941   1.491 -0.2777  0.2841  0.4805
14151TIP3    H163944   0.532   4.010   1.504  0.1746 -0.3961  2.1701
14151TIP3    H263945   0.508   3.883   1.426  1.3634 -0.6602  2.2162
14152TIP3   OH263946   6.441   3.480   4.451  0.0763 -0.4465 -0.1718
14152TIP3    H163947   6.416   3.417   4.384  1.7245 -2.2432  0.8142
14152TIP3    H263948   6.402   3.445   4.532  1.2176 -0.3556  0.4318
14153TIP3   OH263949   1.058   2.085   0.982  0.5425  0.3210  0.2998
14153TIP3    H163950   1.068   2.061   0.890  1.1996 -0.4223  0.5498
14153TIP3    H263951   0.974   2.129   0.987  0.5105  0.3746 -0.6595
14154TIP3   OH263952   4.501   2.694   2.482 -0.2920 -0.2318 -0.4271
14154TIP3    H163953   4.486   2.654   2.568 -0.4926 -0.5965 -0.6268
14154TIP3    H263954   4.440   2.767   2.477  1.2936  1.2269  0.6560
14155TIP3   OH263955   2.510   4.828   3.139 -0.0297 -0.6619  0.1763
14155TIP3    H163956   2.549   4.911   3.168 -1.1900 -0.4397  1.1786
14155TIP3    H263957   2.469   4.848   3.055 -1.1402  0.0648  0.8619
14156TIP3   OH263958   0.652   5.060  15.704  0.1290 -0.3967 -0.0567
14156TIP3    H163959   0.746   5.045  15.719  0.7763  1.4744 -1.7945
14156TIP3    H263960   0.637   5.149  15.735 -1.2548 -0.8510  0.7002
14157TIP3   OH263961   2.268   2.584   4.371 -0.1785 -0.7516 -0.5395
14157TIP3    H163962   2.179   2.560   4.347 -0.4659  0.5392 -0.8388
14157TIP3    H263963   2.271   2.679   4.359  1.5536 -0.8956 -1.6156
14158TIP3   OH263964   0.485   1.601  13.233 -0.0927  0.6070 -0.1186
14158TIP3    H163965   0.417   1.646  13.183  0.5643  0.5161 -1.1181
14158TIP3    H263966   0.562   1.603  13.177  1.1285  1.8115  1.4956
14159TIP3   OH263967   1.203   0.458   3.603 -0.1867  0.5229 -0.4687
14159TIP3    H163968   1.119   0.460   3.557  0.3104 -0.7705 -1.5052
14159TIP3    H263969   1.259   0.517   3.554 -0.9818  2.9907  1.3930
14160TIP3   OH263970   3.002   0.363   2.782 -0.8410  0.2481  0.2360
14160TIP3    H163971   3.069   0.304   2.748 -1.3844  0.6321 -1.6142
14160TIP3    H263972   2.938   0.371   2.711 -0.9802  2.7485  0.5334
14161TIP3   OH263973   5.863   6.513   3.872 -0.1242 -0.0658 -0.0926
14161TIP3    H163974   5.785   6.563   3.899 -1.6076 -2.4890  0.3677
14161TIP3    H263975   5.909   6.495   3.954  0.6113  0.8081 -0.2977
14162TIP3   OH263976   3.717   1.915   0.903  0.6885 -0.3040 -0.3212
14162TIP3    H163977   3.743   1.990   0.850  0.3854 -0.1632 -0.2745
14162TIP3    H263978   3.621   1.916   0.901  0.6799 -0.5654 -0.1470
14163TIP3   OH263979   5.537   5.786   6.083 -0.3850 -0.7503  0.1577
14163TIP3    H163980   5.500   5.711   6.130 -1.0124  0.2212  1.2768
14163TIP3    H263981   5.532   5.858   6.146  0.4407  0.1785 -0.8023
14164TIP3   OH263982   6.737   3.983   3.510 -0.1474 -0.6989 -0.1091
14164TIP3    H163983   6.678   3.947   3.444 -0.3426 -0.1459 -0.2404
14164TIP3    H263984   6.786   3.908   3.542 -1.1983 -1.2388  0.2835
14165TIP3   OH263985   3.632   1.236  16.220 -0.4173  0.8656  0.3493
14165TIP3    H163986   3.552   1.245  16.271 -1.8392  2.5227 -1.9918
14165TIP3    H263987   3.603   1.205  16.134  1.6528  0.0738 -0.1314
14166TIP3   OH263988   1.564   2.140  15.254  0.5282  0.1248  0.1796
14166TIP3    H163989   1.626   2.166  15.322  0.9220  1.0565 -0.5123
14166TIP3    H263990   1.576   2.205  15.184 -0.4569 -0.3190 -0.4268
14167TIP3   OH263991   1.593   2.027   5.053  0.0049  0.0101  0.5081
14167TIP3    H163992   1.575   1.950   4.999  1.2284 -0.1676  0.3241
14167TIP3    H263993   1.515   2.081   5.045 -0.1794 -0.4150 -0.7400
14168TIP3   OH263994   4.305   4.240   3.353 -0.2170 -0.7804  0.2495
14168TIP3    H163995   4.217   4.276   3.361  0.2808  0.9410 -1.2592
14168TIP3    H263996   4.300   4.179   3.280 -0.0354 -0.1424 -0.3105
14169TIP3   OH263997   4.343   5.795   5.120  0.5845  0.3344  0.3458
14169TIP3    H163998   4.425   5.842   5.134  0.0749  1.1722  0.5979
14169TIP3    H263999   4.313   5.774   5.209  0.7389 -0.3454  0.2376
14170TIP3   OH264000   4.224   1.919   3.989 -0.2629  0.0424  0.0100
14170TIP3    H164001   4.272   2.002   3.993  0.9546 -0.6813  1.0092
14170TIP3    H264002   4.132   1.945   3.985  0.0429  1.4402  1.2146
14171TIP3   OH264003   2.688   4.111   3.410 -0.2667  0.2984 -0.3890
14171TIP3    H164004   2.670   4.205   3.401  0.1323  0.3731 -0.4368
14171TIP3    H264005   2.773   4.108   3.454  0.2242 -0.0314 -1.3261
14172TIP3   OH264006   6.613   5.462   5.487 -0.1930 -0.0472  0.1737
14172TIP3    H164007   6.520   5.451   5.467  0.1107 -0.2652 -1.2147
14172TIP3    H264008   6.640   5.535   5.431  1.0208 -1.5907 -1.3734
14173TIP3   OH264009   5.086   6.674   3.823 -0.8093 -0.3673  0.0316
14173TIP3    H164010   5.032   6.596   3.811 -2.0173  0.3788  0.4206
14173TIP3    H264011   5.107   6.703   3.734 -1.4715 -0.3886 -0.1346
14174TIP3   OH264012   1.251   5.674  12.845  0.9071  0.5917 -0.1511
14174TIP3    H164013   1.255   5.759  12.800  1.3706  1.6924  1.8533
14174TIP3    H264014   1.296   5.689  12.928 -1.9085 -0.6484  1.7600
14175TIP3   OH264015   5.387   6.193   0.758 -0.0145  0.2763  0.3729
14175TIP3    H164016   5.375   6.107   0.799  1.0000 -0.2175 -0.3107
14175TIP3    H264017   5.474   6.221   0.786  0.5217  0.1320 -1.0229
14176TIP3   OH264018   5.040   2.013   0.097  0.3266  0.2939  0.1796
14176TIP3    H164019   4.999   1.931   0.070  1.9775 -0.2703 -0.7845
14176TIP3    H264020   5.131   1.989   0.113  0.1121  1.2413  3.4227
14177TIP3   OH264021   6.190   0.759   5.581 -0.4451 -0.0640  0.2053
14177TIP3    H164022   6.243   0.816   5.526  0.4014 -0.8811  0.1361
14177TIP3    H264023   6.114   0.736   5.528 -0.1775  0.0271 -0.2151
14178TIP3   OH264024   6.451   1.533  16.603  0.7222 -0.0445  0.2244
14178TIP3    H164025   6.453   1.450  16.556  2.5529 -1.1486  2.0516
14178TIP3    H264026   6.407   1.594  16.543 -2.5646 -2.7194 -0.3828
14179TIP3   OH264027   1.597   2.061   5.325  0.0406  0.6518 -0.7955
14179TIP3    H164028   1.678   2.019   5.352 -0.3104  1.3582  1.6136
14179TIP3    H264029   1.605   2.070   5.230  3.1749  1.5143 -0.5727
14180TIP3   OH264030   4.286   5.041  15.601  0.0764  0.2724  0.2027
14180TIP3    H164031   4.194   5.013  15.595  0.0079  0.4459  0.3969
14180TIP3    H264032   4.331   4.992  15.533 -0.6716  2.3189 -1.9252
14181TIP3   OH264033   2.767   1.920  13.651  0.0729 -0.4768  0.0015
14181TIP3    H164034   2.841   1.980  13.654  0.3015 -0.7521 -0.0874
14181TIP3    H264035   2.760   1.894  13.559 -2.0380  1.9026 -0.6278
14182TIP3   OH264036   4.027   4.904   5.892 -0.4743  0.0928  0.6212
14182TIP3    H164037   4.027   4.990   5.934 -2.2982  1.0795 -1.2380
14182TIP3    H264038   3.935   4.879   5.890  0.1188 -2.6273  2.3862
14183TIP3   OH264039   0.314   0.575  16.634  0.3888  0.4886 -0.4309
14183TIP3    H164040   0.345   0.618  16.554  2.1270 -1.6527 -1.0151
14183TIP3    H264041   0.262   0.501  16.602 -0.5791  0.7510  0.4868
14184TIP3   OH264042   2.256   2.633  15.694 -0.7744  0.3353 -0.1926
14184TIP3    H164043   2.323   2.582  15.740 -1.1406 -0.0089 -0.0456
14184TIP3    H264044   2.197   2.568  15.657 -0.2516  0.5916 -1.5251
14185TIP3   OH264045   6.520   1.229  14.625  0.0136 -0.8310  0.2657
14185TIP3    H164046   6.457   1.294  14.656  0.3388 -0.1048 -0.5597
14185TIP3    H264047   6.588   1.280  14.580  0.6184 -1.6864  0.1693
14186TIP3   OH264048   3.235   1.565  15.533 -0.5259 -0.5069  0.0581
14186TIP3    H164049   3.294   1.614  15.591 -2.1584  0.9592  0.5536
14186TIP3    H264050   3.220   1.624  15.459  0.4696 -1.8296 -1.2552
14187TIP3   OH264051   2.484   1.172   1.737 -0.2337  0.3064  0.5432
14187TIP3    H164052   2.541   1.188   1.812 -0.0828  1.5317  0.1996
14187TIP3    H264053   2.429   1.251   1.733 -0.1530  0.3142 -0.6902
14188TIP3   OH264054   5.919   4.208  15.317  0.3764  0.1542  0.1040
14188TIP3    H164055   5.828   4.237  15.325  0.8114  1.2989  1.2323
14188TIP3    H264056   5.933   4.153  15.394  0.6834  0.1182  0.0224
14189TIP3   OH264057   1.733   2.677  11.252  0.9791 -0.4461  0.1216
14189TIP3    H164058   1.786   2.743  11.296  1.7842  0.1546 -1.6679
14189TIP3    H264059   1.772   2.668  11.165 -2.1222  0.4280 -1.5263
14190TIP3   OH264060   5.047   0.149   1.144 -0.7802 -0.6184 -0.1199
14190TIP3    H164061   5.059   0.070   1.197  0.9487 -1.1107 -1.1389
14190TIP3    H264062   5.122   0.204   1.168  0.0383 -0.8511 -1.9722
14191TIP3   OH264063   3.386   1.706   1.930 -0.3234  0.0459 -0.4006
14191TIP3    H164064   3.386   1.783   1.874 -0.7907  1.7469  1.8022
14191TIP3    H264065   3.324   1.646   1.889  2.0980 -0.4781 -3.7027
14192TIP3   OH264066   2.858   5.524  13.983  0.3875  0.8159  0.1200
14192TIP3    H164067   2.904   5.608  13.988  1.2870  0.2762  1.3322
14192TIP3    H264068   2.766   5.547  13.996  0.3996  1.7942 -1.3053
14193TIP3   OH264069   5.768   6.297   1.786  0.0671  0.8443 -0.1163
14193TIP3    H164070   5.690   6.352   1.789 -0.0063  0.7051  0.9512
14193TIP3    H264071   5.832   6.343   1.840  0.1760  0.1538  0.3560
14194TIP3   OH264072   5.500   4.224   6.192  0.3867 -0.0840  0.4751
14194TIP3    H164073   5.563   4.285   6.231  0.4803  1.0947 -1.3805
14194TIP3    H264074   5.545   4.191   6.114 -1.5137  1.3683 -1.3381
14195TIP3   OH264075   0.340   6.268  16.314 -0.2644 -0.8767  0.3654
14195TIP3    H164076   0.280   6.270  16.240  0.5535  3.1178 -0.4161
14195TIP3    H264077   0.298   6.322  16.381  1.4582  0.2790  0.5795
14196TIP3   OH264078   5.887   4.803  13.478 -0.3830  0.0174 -0.2948
14196TIP3    H164079   5.930   4.858  13.413 -0.1339 -0.1146 -0.2444
14196TIP3    H264080   5.943   4.726  13.484  0.4107  0.6648  1.1346
14197TIP3   OH264081   5.881   3.232   3.634 -0.1162 -0.5225 -0.4233
14197TIP3    H164082   5.939   3.302   3.665  0.7189 -1.1490 -0.5163
14197TIP3    H264083   5.794   3.259   3.662  0.5142 -0.8196  2.0940
14198TIP3   OH264084   6.192   5.479  16.489  0.1302 -0.7240 -0.3829
14198TIP3    H164085   6.231   5.554  16.443 -0.0909 -0.8070 -0.7082
14198TIP3    H264086   6.140   5.435  16.422 -0.6412 -0.5399  0.0813
14199TIP3   OH264087   3.518   2.965   3.089 -0.0727  0.1383  0.1221
14199TIP3    H164088   3.531   2.910   3.166 -0.2044  0.2206  0.2043
14199TIP3    H264089   3.436   2.934   3.050 -0.1185  0.2398  0.1375
14200TIP3   OH264090   1.591   5.341  14.403  0.1331 -0.5014 -0.1334
14200TIP3    H164091   1.514   5.370  14.452  0.3560 -1.4682  0.8143
14200TIP3    H264092   1.577   5.248  14.388 -0.4966 -0.0425 -3.0233
14201TIP3   OH264093   2.380   6.535  14.175  0.0500  0.6466  0.5761
14201TIP3    H164094   2.446   6.489  14.227  0.1156  1.0487  0.8480
14201TIP3    H264095   2.430   6.594  14.119  0.0776 -0.6475 -0.8530
14202TIP3   OH264096   3.903   2.133  13.076  0.7679 -0.5031  0.2865
14202TIP3    H164097   3.915   2.162  13.167  2.2965  2.4893 -0.7339
14202TIP3    H264098   3.986   2.156  13.033 -0.9564  1.0460 -2.5051
14203TIP3   OH264099   6.629   4.047   4.682 -0.4090  0.2322  0.1721
14203TIP3    H164100   6.622   3.999   4.764 -1.5771 -1.2951 -0.7714
14203TIP3    H264101   6.709   4.099   4.691 -0.6113  0.2442  2.3226
14204TIP3   OH264102   1.261   0.210  16.027  0.1172  0.3687 -0.2080
14204TIP3    H164103   1.267   0.146  15.956 -0.0518  1.1769 -0.9594
14204TIP3    H264104   1.169   0.237  16.027  0.2873  0.9553 -0.2050
14205TIP3   OH264105   1.861   4.926  16.597  0.0495 -0.0570 -0.1784
14205TIP3    H164106   1.881   5.019  16.604 -1.0919  0.1262  1.0368
14205TIP3    H264107   1.945   4.884  16.580  0.4734  1.2553 -1.4461
14206TIP3   OH264108   4.086   5.706  13.871 -0.3757  0.2574  0.4670
14206TIP3    H164109   4.114   5.691  13.961  1.7773  2.0702  0.1915
14206TIP3    H264110   4.040   5.790  13.873  3.2853  2.5401 -0.5817
14207TIP3   OH264111   3.032   1.671  12.260 -0.2369  0.2074 -0.0957
14207TIP3    H164112   3.027   1.610  12.186 -0.9035  0.5797 -0.3646
14207TIP3    H264113   2.941   1.679  12.291  0.0072  0.2067  0.6439
14208TIP3   OH264114   2.819   0.180  12.634 -0.1427  0.0060  0.2723
14208TIP3    H164115   2.768   0.170  12.554  0.1380 -0.7929  0.1728
14208TIP3    H264116   2.848   0.091  12.655  0.9390  0.3908  0.4965
14209TIP3   OH264117   4.784   3.471  14.923 -0.1543  0.4488  0.0893
14209TIP3    H164118   4.755   3.395  14.973  1.7485  0.7640  1.8344
14209TIP3    H264119   4.717   3.538  14.941  0.1473  0.3518  1.7785
14210TIP3   OH264120   3.508   0.511  11.001  0.3510 -0.2819 -0.2786
14210TIP3    H164121   3.595   0.545  10.981  1.4102 -2.2688  0.6328
14210TIP3    H264122   3.479   0.562  11.077  0.6897  0.4055 -0.6039
14211TIP3   OH264123   5.234   2.290   5.413  0.3402  0.0263 -0.1065
14211TIP3    H164124   5.257   2.302   5.321  1.8872 -2.9019 -0.2143
14211TIP3    H264125   5.283   2.358   5.459  1.7833 -0.2043 -1.2303
14212TIP3   OH264126   2.997   4.513  13.968  0.1117 -0.3566  0.7602
14212TIP3    H164127   3.034   4.597  13.939  0.3986 -0.0190  2.0373
14212TIP3    H264128   3.064   4.476  14.024 -1.0199 -0.2533  2.2265
14213TIP3   OH264129   3.784   1.105   3.311  0.6776  0.2885  0.0873
14213TIP3    H164130   3.817   1.189   3.343 -0.6508  0.1861  1.8629
14213TIP3    H264131   3.826   1.039   3.366 -0.8548  0.0445  1.0349
14214TIP3   OH264132   6.242   4.824  13.884 -0.0997 -0.1859  0.0982
14214TIP3    H164133   6.322   4.795  13.841  2.0374  2.2693  2.0739
14214TIP3    H264134   6.237   4.918  13.866 -2.9597 -0.3543 -0.4922
14215TIP3   OH264135   4.964   4.609   3.330 -0.3648 -0.6711 -0.1423
14215TIP3    H164136   4.936   4.633   3.242  0.7308 -1.6974 -0.7885
14215TIP3    H264137   5.042   4.663   3.346  0.1919 -1.4116 -0.3199
14216TIP3   OH264138   2.514   3.706  10.900  0.4085  0.1972  0.1582
14216TIP3    H164139   2.532   3.774  10.834  1.6879  0.2455  0.5458
14216TIP3    H264140   2.582   3.718  10.966 -0.0010 -0.7889  0.7727
14217TIP3   OH264141   1.815   4.853   5.478 -0.5131  0.4157  0.6179
14217TIP3    H164142   1.797   4.767   5.441  0.9965  0.9872 -1.6024
14217TIP3    H264143   1.908   4.868   5.462 -0.5746  2.1731  1.5862
14218TIP3   OH264144   1.799   5.116  17.001 -0.0519  0.2293  0.3018
14218TIP3    H164145   1.803   5.163  17.084 -0.4585  0.0483  0.4231
14218TIP3    H264146   1.774   5.027  17.025 -1.8858  0.5857 -0.1680
14219TIP3   OH264147   2.826   4.628  14.694 -0.1771 -0.5273  0.5460
14219TIP3    H164148   2.901   4.613  14.637 -0.2575  0.6697  0.0745
14219TIP3    H264149   2.864   4.655  14.778 -0.0726 -1.4232  0.7981
14220TIP3   OH264150   3.779   1.454  13.555  0.0323 -0.0772  0.3006
14220TIP3    H164151   3.865   1.495  13.548  0.1987 -0.7000 -1.7147
14220TIP3    H264152   3.796   1.360  13.549 -0.7085 -0.2722  1.0023
14221TIP3   OH264153   1.065   1.303   1.811 -0.7623  0.5660  0.5772
14221TIP3    H164154   1.099   1.314   1.722 -1.4792  0.4708  0.2822
14221TIP3    H264155   1.076   1.210   1.829  0.3184  0.7537  0.9926
14222TIP3   OH264156   0.434   2.338   5.462 -0.0248 -0.4763  0.1090
14222TIP3    H164157   0.384   2.325   5.381  0.9143 -1.5918 -0.3200
14222TIP3    H264158   0.376   2.310   5.532 -0.4788 -0.4979 -0.2756
14223TIP3   OH264159   3.505   3.019  13.230  0.4343  0.3632 -0.1230
14223TIP3    H164160   3.506   2.975  13.145  0.3526  0.2624 -0.0722
14223TIP3    H264161   3.478   2.951  13.292  0.1494  0.5244 -0.0681
14224TIP3   OH264162   4.373   3.721  17.026  0.0574 -0.1279 -0.5778
14224TIP3    H164163   4.391   3.634  16.990  1.1885  0.0358 -0.4388
14224TIP3    H264164   4.322   3.704  17.105 -0.4549 -0.6137 -1.0043
14225TIP3   OH264165   1.636   6.097   3.878 -0.5182 -0.1398 -0.1566
14225TIP3    H164166   1.611   6.074   3.968  1.4370 -0.8490  0.2332
14225TIP3    H264167   1.710   6.041   3.858 -1.5225 -0.7096 -2.6253
14226TIP3   OH264168   2.935   1.596  15.587  0.2517  0.0960  0.1460
14226TIP3    H164169   2.924   1.504  15.612  1.8581 -0.4495 -0.9486
14226TIP3    H264170   2.972   1.592  15.498  1.7029  1.7538  0.6108
14227TIP3   OH264171   3.222   5.493  13.555  0.3627 -0.8984 -0.1369
14227TIP3    H164172   3.198   5.567  13.499  1.6151  0.0350  0.5141
14227TIP3    H264173   3.153   5.489  13.621 -1.0590 -1.9256 -1.6172
14228TIP3   OH264174   4.375   2.708  13.436 -0.3247  0.7827  0.5090
14228TIP3    H164175   4.347   2.799  13.442  0.4418  0.9917  0.9954
14228TIP3    H264176   4.466   2.709  13.463 -0.8509 -0.4316  2.5745
14229TIP3   OH264177   0.756   2.214  15.622  0.2014  0.3205  0.1238
14229TIP3    H164178   0.732   2.254  15.538 -0.5851 -0.6421 -0.1322
14229TIP3    H264179   0.738   2.281  15.687 -0.6663  0.5400 -0.3320
14230TIP3   OH264180   4.734   0.461   0.339  0.1066  0.4014 -0.0153
14230TIP3    H164181   4.771   0.375   0.321 -0.4262  0.1832 -0.0753
14230TIP3    H264182   4.680   0.481   0.263 -1.3859 -0.1019  0.8820
14231TIP3   OH264183   1.413   5.817  11.481  0.1649 -0.3858  0.1839
14231TIP3    H164184   1.324   5.835  11.513  0.2732 -0.0613  0.3026
14231TIP3    H264185   1.422   5.871  11.402  0.5148  0.1330  0.5772
14232TIP3   OH264186   4.065   3.212  12.611 -0.0496  0.6341 -0.3167
14232TIP3    H164187   4.003   3.245  12.675 -0.5256  0.1388 -0.5120
14232TIP3    H264188   4.130   3.281  12.602  1.2821 -0.1349  2.3224
14233TIP3   OH264189   2.990   2.225   3.685 -0.2393 -0.2651  0.3650
14233TIP3    H164190   2.988   2.256   3.775 -2.3711  0.3110  0.1661
14233TIP3    H264191   3.082   2.232   3.659 -0.0587  2.7294  1.4350
14234TIP3   OH264192   3.382   0.199  11.569 -0.0866  0.7153 -0.0838
14234TIP3    H164193   3.315   0.142  11.531  0.2423 -0.5289  1.1127
14234TIP3    H264194   3.360   0.287  11.537 -1.4738  0.1386 -0.8042
14235TIP3   OH264195   3.458   0.457   2.373  0.0547 -0.1174  0.3771
14235TIP3    H164196   3.453   0.506   2.456 -0.5504  0.3638  0.0627
14235TIP3    H264197   3.422   0.371   2.394 -2.2374  0.7072  0.1069
14236TIP3   OH264198   3.057   2.026   5.745 -0.5876  0.2312  0.4273
14236TIP3    H164199   3.011   1.970   5.809 -2.4988  1.7042  0.4555
14236TIP3    H264200   3.142   2.042   5.785 -1.1313 -0.2081  1.8574
14237TIP3   OH264201   5.020   5.578   1.445  0.1423  0.1675  0.0757
14237TIP3    H164202   4.981   5.602   1.530  0.2447  0.8725 -0.0682
14237TIP3    H264203   4.962   5.619   1.381  0.0370 -0.4097 -0.1996
14238TIP3   OH264204   3.571   2.177   4.475  0.1180 -0.1359 -0.3241
14238TIP3    H164205   3.650   2.222   4.446 -0.1888  0.3120 -0.4688
14238TIP3    H264206   3.582   2.168   4.570  0.3103 -0.0162 -0.3345
14239TIP3   OH264207   6.440   4.555   5.743 -0.3265 -0.6731 -0.1652
14239TIP3    H164208   6.472   4.506   5.819 -2.4183 -1.4497  0.2991
14239TIP3    H264209   6.488   4.638   5.746 -0.0082 -0.8719  1.7485
14240TIP3   OH264210   3.116   4.956  15.896 -0.2188 -0.1436 -0.1101
14240TIP3    H164211   3.157   4.883  15.849 -1.7568 -0.5300 -0.9147
14240TIP3    H264212   3.044   4.983  15.839 -0.0531  1.6097  0.4834
14241TIP3   OH264213   4.902   5.503  12.198 -0.3628 -0.4867 -0.7414
14241TIP3    H164214   4.862   5.585  12.225 -0.8572 -0.6651 -0.9179
14241TIP3    H264215   4.873   5.440  12.265  1.0428 -0.2687  0.1193
14242TIP3   OH264216   1.199   4.366   5.583  0.4377 -0.1632 -0.3300
14242TIP3    H164217   1.141   4.395   5.653 -0.2757  0.9723 -1.3737
14242TIP3    H264218   1.264   4.435   5.575  1.6420 -1.1502  0.4283
14243TIP3   OH264219   3.143   5.277  12.511 -0.0238 -0.2109  0.3442
14243TIP3    H164220   3.075   5.324  12.559  0.2900  0.7495 -0.1106
14243TIP3    H264221   3.207   5.253  12.578  0.4749  1.2259  0.4102
14244TIP3   OH264222   2.428   5.181   2.928  0.0020  0.2694  0.3388
14244TIP3    H164223   2.347   5.173   2.980 -0.0433  2.4390  0.7037
14244TIP3    H264224   2.491   5.219   2.988  1.2887 -1.2436 -0.0029
14245TIP3   OH264225   6.133   2.855   2.323 -0.3338  0.2032 -0.1132
14245TIP3    H164226   6.048   2.889   2.294 -0.1088 -0.9302 -2.2765
14245TIP3    H264227   6.175   2.823   2.243  2.2282  0.8717  0.8502
14246TIP3   OH264228   3.443   1.012  15.225 -0.3487  0.3168 -0.2473
14246TIP3    H164229   3.420   1.095  15.267 -0.6727 -0.4698  1.1999
14246TIP3    H264230   3.364   0.958  15.233  0.5343 -0.8701  0.7775
14247TIP3   OH264231   2.034   3.306   5.574 -0.6540 -0.2830  0.4857
14247TIP3    H164232   2.058   3.217   5.602  1.3649 -0.2448 -0.9272
14247TIP3    H264233   2.082   3.363   5.634  1.9784 -0.2100 -1.5246
14248TIP3   OH264234   6.747   4.749   1.548  0.0165  0.0373 -0.1478
14248TIP3    H164235   6.824   4.784   1.593 -0.8834  0.1255  1.4263
14248TIP3    H264236   6.763   4.764   1.455  1.6955  0.4314  0.1875
14249TIP3   OH264237   2.406   6.602   5.757  0.4384 -0.0469  0.7599
14249TIP3    H164238   2.400   6.519   5.806  3.2038 -0.7293  0.0868
14249TIP3    H264239   2.378   6.668   5.820  1.2176 -1.1812  2.3665
14250TIP3   OH264240   0.805   2.398  14.178 -0.5856 -0.4112 -0.0097
14250TIP3    H164241   0.739   2.443  14.230  0.2017 -0.4867  1.0819
14250TIP3    H264242   0.829   2.322  14.231  1.8006  0.6677  0.5820
14251TIP3   OH264243   5.581   2.601  12.001 -0.1482  0.5708  0.3220
14251TIP3    H164244   5.505   2.654  12.028 -1.0552 -0.8272  0.6139
14251TIP3    H264245   5.547   2.512  11.995  1.4048 -0.0346  0.1041
14252TIP3   OH264246   2.859   4.499  10.915 -0.1826  0.2989 -0.3049
14252TIP3    H164247   2.928   4.539  10.863  0.7731  1.7621  1.9073
14252TIP3    H264248   2.800   4.459  10.851  1.5810  0.8235 -2.3740
14253TIP3   OH264249   1.148   3.253  14.893 -0.5008 -0.2871  0.1763
14253TIP3    H164250   1.149   3.224  14.984 -0.5082 -0.1356  0.2247
14253TIP3    H264251   1.213   3.198  14.850  1.2567  1.2171  0.7623
14254TIP3   OH264252   1.771   3.652   2.253 -0.1898  0.2302  0.3840
14254TIP3    H164253   1.855   3.693   2.272  0.1297 -0.1733 -0.1295
14254TIP3    H264254   1.724   3.653   2.336  0.2413  0.6412  0.6275
14255TIP3   OH264255   0.894   5.272   2.247 -0.3225  0.0903 -0.1395
14255TIP3    H164256   0.930   5.274   2.159 -0.9709  0.3679 -0.4072
14255TIP3    H264257   0.806   5.309   2.238 -0.5930 -0.3608  0.5316
14256TIP3   OH264258   2.992   6.302  12.849  0.3122 -0.0323 -0.1952
14256TIP3    H164259   2.931   6.371  12.876  0.8545  1.2163 -2.0302
14256TIP3    H264260   2.938   6.223  12.844 -0.8355  0.7360 -0.3076
14257TIP3   OH264261   3.330   3.576   0.877  0.4539  0.3305  0.7979
14257TIP3    H164262   3.425   3.566   0.874  0.4790  0.7394 -0.0191
14257TIP3    H264263   3.316   3.671   0.880  0.0589  0.2884  0.3369
14258TIP3   OH264264   5.416   5.439   2.917 -0.4259  0.4522  0.3986
14258TIP3    H164265   5.419   5.414   3.009 -0.9641  0.0324  0.3144
14258TIP3    H264266   5.423   5.534   2.917 -0.3192  0.4445  0.8689
14259TIP3   OH264267   2.002   5.068   3.281 -0.0099  0.4749 -0.8197
14259TIP3    H164268   2.023   5.062   3.374  1.8775  0.1558 -1.2335
14259TIP3    H264269   2.022   5.158   3.257 -0.6551  0.6025 -0.8877
14260TIP3   OH264270   3.621   4.120  15.740  0.1403 -0.1087 -0.0765
14260TIP3    H164271   3.533   4.087  15.722 -0.0638 -1.1061  2.3281
14260TIP3    H264272   3.607   4.205  15.782  0.0025 -1.5831  3.2040
14261TIP3   OH264273   5.203   0.005  14.802  0.6515  0.1027 -0.5741
14261TIP3    H164274   5.219  -0.088  14.792 -0.0483 -0.3642  1.8983
14261TIP3    H264275   5.107   0.013  14.810  0.8160  0.3175  3.6583
14262TIP3   OH264276   3.782   0.506   2.825  0.2204  0.4248 -0.0120
14262TIP3    H164277   3.835   0.428   2.845 -0.4362 -0.2442 -0.8142
14262TIP3    H264278   3.801   0.566   2.897  2.3394  0.3512 -0.4411
14263TIP3   OH264279   1.693   2.295  12.582 -0.4380  0.1483 -0.0778
14263TIP3    H164280   1.626   2.355  12.549 -0.3184  0.5777  0.4278
14263TIP3    H264281   1.745   2.349  12.643  0.2468 -0.2237 -0.3198
14264TIP3   OH264282   2.604   5.619  13.963  0.0543  0.6735 -0.2838
14264TIP3    H164283   2.625   5.659  13.879 -0.2028 -1.3452 -1.3722
14264TIP3    H264284   2.515   5.587  13.953  0.5170 -0.8475  0.2238
14265TIP3   OH264285   5.444   1.046  10.778  0.5284  0.0320 -0.0032
14265TIP3    H164286   5.362   1.037  10.825  1.4102 -0.4696  1.5197
14265TIP3    H264287   5.444   1.137  10.745 -0.7605 -0.0793 -0.3490
14266TIP3   OH264288   1.313   5.328  14.488  0.2849 -0.0389  0.8366
14266TIP3    H164289   1.315   5.262  14.558  1.8229 -0.3209  0.5614
14266TIP3    H264290   1.281   5.281  14.411 -0.6272  0.0693  1.1412
14267TIP3   OH264291   6.674   0.463   3.087  0.0800 -0.8719 -0.0750
14267TIP3    H164292   6.739   0.452   3.018  1.5186 -0.4501  1.1644
14267TIP3    H264293   6.651   0.556   3.083 -1.3176 -1.2355 -1.2260
14268TIP3   OH264294   2.218   1.519  15.353  0.1370  0.0668  0.1103
14268TIP3    H164295   2.124   1.508  15.335 -0.2436  0.3332  1.8079
14268TIP3    H264296   2.229   1.488  15.443  1.5789  0.5856  0.1318
14269TIP3   OH264297   1.315   3.415   2.201  0.1040 -0.0009 -0.0510
14269TIP3    H164298   1.219   3.418   2.192 -0.2133 -1.8599  1.9903
14269TIP3    H264299   1.347   3.423   2.111 -2.0497 -1.1612 -1.0066
14270TIP3   OH264300   3.622   0.412  12.012  0.1243  0.0357  0.7498
14270TIP3    H164301   3.686   0.392  12.080  0.3961 -2.3702 -0.1228
14270TIP3    H264302   3.559   0.341  12.016  0.0865 -0.1221 -1.4214
14271TIP3   OH264303   2.979   6.713   6.086  0.1161 -0.3320  0.4169
14271TIP3    H164304   3.042   6.657   6.040  2.2817  0.7802  1.7986
14271TIP3    H264305   2.894   6.676   6.066  1.3150 -3.0753 -0.1129
14272TIP3   OH264306   6.538   6.336   4.104  0.0353 -0.3637  0.4446
14272TIP3    H164307   6.630   6.342   4.081 -0.2221 -1.1142 -0.9387
14272TIP3    H264308   6.534   6.355   4.197  1.3674  1.4747  0.1665
14273TIP3   OH264309   2.659   1.551   5.680 -0.0487  0.2959  0.1010
14273TIP3    H164310   2.576   1.532   5.636  1.0316 -1.8068 -1.1620
14273TIP3    H264311   2.652   1.508   5.765 -0.2913  0.2179  0.0421
14274TIP3   OH264312   6.548   1.303   4.993 -0.6304  0.1996 -0.3830
14274TIP3    H164313   6.469   1.304   5.047  0.9372  1.5778  2.0974
14274TIP3    H264314   6.533   1.372   4.928 -0.9303  1.5431  1.0290
14275TIP3   OH264315   6.106   3.019   3.003  0.7129 -0.3804 -0.6452
14275TIP3    H164316   6.169   2.966   2.955  1.8006  0.3311 -0.0680
14275TIP3    H264317   6.122   3.109   2.972 -0.3752 -0.2488 -0.8569
14276TIP3   OH264318   5.152   6.630   1.894  0.3664  0.3014  0.1880
14276TIP3    H164319   5.129   6.568   1.964  0.2689  0.2192  0.0838
14276TIP3    H264320   5.224   6.588   1.847 -0.6278 -0.3843 -0.7545
14277TIP3   OH264321   1.654   3.876  16.557 -0.2353 -0.0834  0.1054
14277TIP3    H164322   1.610   3.864  16.472  2.2526 -0.3331 -1.2513
14277TIP3    H264323   1.733   3.925  16.536 -0.1790  1.0222  2.5468
14278TIP3   OH264324   4.652   5.118   5.165 -0.1621  0.2426 -0.3184
14278TIP3    H164325   4.728   5.062   5.178 -1.0129 -0.8031  0.3652
14278TIP3    H264326   4.636   5.156   5.252  1.2632  2.7598 -1.0539
14279TIP3   OH264327   1.174   5.590   2.109 -0.7041 -0.1221 -0.0089
14279TIP3    H164328   1.117   5.667   2.110 -2.0949 -1.1159 -0.2221
14279TIP3    H264329   1.193   5.576   2.016  1.0206  0.9626  0.1237
14280TIP3   OH264330   3.116   4.350  11.045 -0.3348  0.8757  0.6752
14280TIP3    H164331   3.156   4.275  11.001  2.9794  1.9305  1.5304
14280TIP3    H264332   3.054   4.385  10.982 -2.3348 -2.6889  0.3848
14281TIP3   OH264333   6.242   0.413   0.234 -0.1806  0.4668  0.0286
14281TIP3    H164334   6.331   0.383   0.214 -0.5411 -0.1443 -0.7130
14281TIP3    H264335   6.207   0.440   0.149 -1.6892 -2.0081 -0.2222
14282TIP3   OH264336   3.280   1.853   2.998 -0.0621  0.0541  0.2462
14282TIP3    H164337   3.267   1.786   2.931 -1.3345 -0.4948  1.0091
14282TIP3    H264338   3.359   1.826   3.044 -0.7178 -1.1065  0.7297
14283TIP3   OH264339   6.339   0.047  15.104 -0.6536  0.2122 -0.2838
14283TIP3    H164340   6.270  -0.016  15.120  0.5422 -0.7102  1.4228
14283TIP3    H264341   6.299   0.132  15.123 -1.6674 -0.1823 -0.5964
14284TIP3   OH264342   2.816   6.591   0.416 -0.0607  0.0922  0.2755
14284TIP3    H164343   2.756   6.536   0.364  0.2549  0.0939 -0.1007
14284TIP3    H264344   2.799   6.566   0.506 -1.4385  0.9027  0.2750
14285TIP3   OH264345   5.362   0.686  11.372  0.6287 -0.1866 -0.1561
14285TIP3    H164346   5.337   0.779  11.368  2.1277  0.2227 -0.5855
14285TIP3    H264347   5.393   0.674  11.461 -0.5426 -0.5614  0.2172
14286TIP3   OH264348   3.515   1.161   3.237  0.5687 -0.1435 -0.4416
14286TIP3    H164349   3.598   1.136   3.276 -0.5116 -2.0166  0.8252
14286TIP3    H264350   3.489   1.084   3.186 -0.2498  0.5255 -1.0593
14287TIP3   OH264351   5.334   0.410  12.846  0.0734 -0.2215 -0.3980
14287TIP3    H164352   5.403   0.344  12.842  0.5291  0.2289  0.0172
14287TIP3    H264353   5.264   0.375  12.790  0.8815 -0.3905 -1.3311
14288TIP3   OH264354   3.729   1.532  11.656  0.5556 -0.1800  1.0483
14288TIP3    H164355   3.759   1.447  11.689  0.2940  0.0093  1.7778
14288TIP3    H264356   3.687   1.574  11.731 -1.2195 -0.2929  0.1777
14289TIP3   OH264357   3.695   5.299  11.754  0.1850 -0.5240 -0.5211
14289TIP3    H164358   3.630   5.358  11.793  2.2645  3.0876 -2.0159
14289TIP3    H264359   3.657   5.272  11.671 -0.3911 -0.5575 -0.2550
14290TIP3   OH264360   1.350   3.266  15.460 -0.3532  0.0528 -0.1919
14290TIP3    H164361   1.381   3.183  15.425 -3.9713 -1.4029 -0.4027
14290TIP3    H264362   1.348   3.252  15.555 -3.1325 -1.1608 -0.3143
14291TIP3   OH264363   6.261   2.621  14.840  0.2661 -0.0578  0.3466
14291TIP3    H164364   6.205   2.623  14.762  2.1806 -0.2616 -1.0948
14291TIP3    H264365   6.200   2.606  14.913 -1.7885  1.6948 -0.8823
14292TIP3   OH264366   6.832   5.996   3.981  0.1471 -0.0881  0.1105
14292TIP3    H164367   6.805   6.081   4.016  0.0017  0.0927 -0.4333
14292TIP3    H264368   6.851   6.013   3.889 -1.0084 -0.8813 -0.2919
14293TIP3   OH264369   1.944   5.551  14.703 -0.0630  0.0125  0.3268
14293TIP3    H164370   1.849   5.552  14.707 -0.1617 -1.4699 -0.6689
14293TIP3    H264371   1.968   5.626  14.649 -0.7020 -0.0269 -0.0095
14294TIP3   OH264372   1.580   1.443   2.608  0.1481 -0.0678 -0.0328
14294TIP3    H164373   1.494   1.470   2.574  0.3394  0.2901 -0.2381
14294TIP3    H264374   1.596   1.359   2.565 -1.6491 -1.9089  2.6100
14295TIP3   OH264375   2.485   0.157   2.904  0.5966 -0.2293 -0.3029
14295TIP3    H164376   2.401   0.130   2.941  0.7738  1.0057  1.1187
14295TIP3    H264377   2.502   0.242   2.945  1.6358  0.4282 -2.0196
14296TIP3   OH264378   4.940   4.341   4.561 -0.3811 -0.3093 -0.0263
14296TIP3    H164379   4.944   4.372   4.470  2.0047  0.5946  0.3015
14296TIP3    H264380   5.015   4.282   4.569 -1.2848 -1.3571  1.0454
14297TIP3   OH264381   6.771   2.750  11.278  0.4996  0.8503  0.3663
14297TIP3    H164382   6.829   2.746  11.202  0.5822  0.0542  0.4712
14297TIP3    H264383   6.684   2.729  11.243  0.5089  0.6481  0.4662
14298TIP3   OH264384   1.020   3.560  11.728 -0.0461  0.2865  0.1888
14298TIP3    H164385   0.950   3.495  11.729 -0.9334  1.2301  0.9033
14298TIP3    H264386   1.089   3.520  11.674 -1.3736 -0.3910 -1.0720
14299TIP3   OH264387   2.318   2.733  13.271  0.3791  0.3090 -0.2353
14299TIP3    H164388   2.235   2.686  13.268 -0.1532  0.8929  2.2993
14299TIP3    H264389   2.330   2.768  13.183 -1.2420 -1.1357 -1.0838
14300TIP3   OH264390   0.537   3.483   4.660 -0.4224  0.4865  0.2218
14300TIP3    H164391   0.581   3.568   4.656  1.2361 -0.3817 -0.7980
14300TIP3    H264392   0.532   3.463   4.754  1.0858  0.7512  0.3764
14301TIP3   OH264393   4.246   2.963  15.571  0.1726  0.2307 -0.0814
14301TIP3    H164394   4.196   2.975  15.652 -0.0191  0.5089 -0.2403
14301TIP3    H264395   4.308   3.036  15.570  0.5156 -0.0562  0.0638
14302TIP3   OH264396   0.423   0.520  15.302  0.1945 -0.3843 -0.1181
14302TIP3    H164397   0.512   0.486  15.293 -0.4139 -2.1588  0.3305
14302TIP3    H264398   0.367   0.450  15.271 -1.0367  1.2791 -1.8923
14303TIP3   OH264399   4.411   4.356  10.783 -0.1364 -0.2540  0.5159
14303TIP3    H164400   4.400   4.372  10.690  1.2439  0.2320  0.4225
14303TIP3    H264401   4.402   4.262  10.793 -0.4447 -0.2902 -0.0804
14304TIP3   OH264402   3.687   3.113   6.882 -0.6519  0.4090 -0.1922
14304TIP3    H164403   3.755   3.094   6.947 -0.1159  0.3447 -0.7593
14304TIP3    H264404   3.655   3.027   6.855  0.4543  0.3302 -1.3788
14305TIP3   OH264405   4.510   3.912   3.411  0.7268  0.0876 -0.1760
14305TIP3    H164406   4.488   3.829   3.452 -0.2064  0.7082  0.6102
14305TIP3    H264407   4.548   3.888   3.326 -1.6602 -1.0803 -0.9945
14306TIP3   OH264408   2.494   6.156   2.010 -0.4674  0.5980 -0.5566
14306TIP3    H164409   2.523   6.072   2.047 -1.2407  0.8885  0.7718
14306TIP3    H264410   2.545   6.166   1.930  0.3986 -0.6413 -0.1841
14307TIP3   OH264411   1.205   1.850  12.860  0.4014 -0.0449  0.6578
14307TIP3    H164412   1.139   1.853  12.929 -0.1842  0.0828  0.1031
14307TIP3    H264413   1.278   1.901  12.894 -0.8944  2.2864  0.1599
14308TIP3   OH264414   2.926   4.328  15.635  0.5360  0.0784 -0.3727
14308TIP3    H164415   2.957   4.239  15.648 -0.3365 -0.4023 -1.4382
14308TIP3    H264416   3.004   4.383  15.648  1.2191 -0.8818 -0.3367
14309TIP3   OH264417   1.282   4.748   3.373  0.1746 -0.1481  0.4591
14309TIP3    H164418   1.188   4.762   3.363  0.1639 -0.1931  0.4923
14309TIP3    H264419   1.309   4.810   3.441  0.3579  0.5642 -0.2630
14310TIP3   OH264420   4.761   3.049  16.197  0.5981  0.4563  0.1699
14310TIP3    H164421   4.748   3.044  16.291  1.2372  0.2168  0.2516
14310TIP3    H264422   4.772   3.142  16.179  0.3170  0.5158  0.3117
14311TIP3   OH264423   5.593   0.789  15.681  0.4603 -0.2146 -0.5502
14311TIP3    H164424   5.671   0.787  15.625  0.3078 -2.2065 -0.7612
14311TIP3    H264425   5.524   0.824  15.626  1.0589  1.0351 -0.5348
14312TIP3   OH264426   0.178   1.058   0.340  0.1624  0.2664  0.4284
14312TIP3    H164427   0.210   0.969   0.325  1.5274  1.1084 -2.0779
14312TIP3    H264428   0.115   1.073   0.270  0.2652  1.4398  0.5715
14313TIP3   OH264429   0.125   4.681   3.867 -0.6688  0.1718 -0.9056
14313TIP3    H164430   0.209   4.727   3.865  0.1600 -1.1425  0.7642
14313TIP3    H264431   0.088   4.702   3.952  0.2232 -2.8967  0.3983
14314TIP3   OH264432   5.414   6.657   3.729  0.0498 -0.2846 -0.5631
14314TIP3    H164433   5.385   6.658   3.820 -0.2183 -0.8033 -0.6389
14314TIP3    H264434   5.456   6.743   3.716  0.9223 -0.5614  0.3102
14315TIP3   OH264435   4.803   0.687  15.520 -0.1152  0.3980  0.0371
14315TIP3    H164436   4.758   0.632  15.455  1.3305  0.7784 -1.3380
14315TIP3    H264437   4.879   0.721  15.474  0.1203  1.9459  1.4835
14316TIP3   OH264438   6.401   1.651  15.179  0.0413  0.5571 -0.2710
14316TIP3    H164439   6.425   1.659  15.271 -0.4694  0.5238 -0.1341
14316TIP3    H264440   6.368   1.738  15.155 -1.6199  0.0690  0.1033
14317TIP3   OH264441   3.122   0.127  11.378  0.1127 -0.3601  0.9190
14317TIP3    H164442   3.122   0.197  11.444  0.5061 -0.1742  0.7274
14317TIP3    H264443   3.033   0.092  11.380  0.3971 -1.1261  2.3743
14318TIP3   OH264444   4.779   0.034  11.863  0.1531 -0.2911  0.0908
14318TIP3    H164445   4.769   0.122  11.827  1.1257 -0.4178 -0.5246
14318TIP3    H264446   4.734  -0.023  11.800  1.2093 -0.4294 -0.5724
14319TIP3   OH264447   3.333   4.689   2.672  0.3658 -0.2272  0.1184
14319TIP3    H164448   3.374   4.658   2.591  2.4054  1.0033  0.6013
14319TIP3    H264449   3.381   4.645   2.742 -1.2895 -1.1776  0.7133
14320TIP3   OH264450   2.530   6.784  14.122 -0.0302  0.3604  0.1385
14320TIP3    H164451   2.542   6.862  14.069 -1.7355  0.9544  0.5752
14320TIP3    H264452   2.618   6.746  14.129  0.7936  2.1056 -0.2548
14321TIP3   OH264453   1.201   3.235   4.669  0.0563  0.1289  0.2805
14321TIP3    H164454   1.112   3.222   4.636  0.8793 -1.0167 -1.7198
14321TIP3    H264455   1.214   3.330   4.668 -1.4728  0.3962  1.6835
14322TIP3   OH264456   5.229   6.741   3.445 -0.0043  0.4860 -0.3849
14322TIP3    H164457   5.244   6.646   3.444  0.2386  0.5245 -0.3266
14322TIP3    H264458   5.315   6.779   3.464 -0.1572  0.7070 -0.1307
14323TIP3   OH264459   2.973   3.040   0.815  0.1170 -0.0619  0.6878
14323TIP3    H164460   2.990   3.113   0.875  1.5617 -0.3910  0.7095
14323TIP3    H264461   3.009   2.963   0.860 -0.4570 -0.6282  0.2086
14324TIP3   OH264462   4.138   1.948   1.371 -0.1146 -0.2646  0.2071
14324TIP3    H164463   4.092   2.013   1.319 -0.1201 -0.8620 -0.5556
14324TIP3    H264464   4.196   1.999   1.428 -2.1091  0.5417  1.6391
14325TIP3   OH264465   5.919   5.331   0.756  0.3433 -0.2492 -0.4401
14325TIP3    H164466   5.955   5.366   0.838  1.7702  1.0013 -1.5348
14325TIP3    H264467   5.873   5.252   0.782  0.7430  0.1233  1.5774
14326TIP3   OH264468   1.887   0.326  17.084 -0.5071 -0.0328 -0.6211
14326TIP3    H164469   1.958   0.305  17.022  1.2174 -0.8679  1.4854
14326TIP3    H264470   1.911   0.412  17.118 -1.8934  0.7910 -1.6472
14327TIP3   OH264471   5.064   3.718   0.473  0.2086 -0.1650 -0.1970
14327TIP3    H164472   5.110   3.766   0.404  0.5360 -0.2625 -0.0495
14327TIP3    H264473   4.972   3.741   0.461  0.3029  0.0884 -0.4524
14328TIP3   OH264474   5.818   1.197   2.349  0.3391  0.3318  0.0136
14328TIP3    H164475   5.757   1.162   2.414  1.5403 -0.7846  0.5855
14328TIP3    H264476   5.884   1.129   2.339  0.5898  0.7815 -1.8539
14329TIP3   OH264477   3.254   3.697  12.960 -0.2227 -0.2007 -0.3517
14329TIP3    H164478   3.243   3.719  12.867 -1.4667  1.7483  0.2035
14329TIP3    H264479   3.304   3.769  12.997  0.4120 -1.0396  0.4844
14330TIP3   OH264480   5.483   4.531   1.202 -0.5146 -0.1444  0.2257
14330TIP3    H164481   5.499   4.438   1.216  1.2662  0.1347  0.3142
14330TIP3    H264482   5.522   4.549   1.117 -3.0637  0.0607 -0.9844
14331TIP3   OH264483   6.823   2.824   5.927 -0.3739 -0.4147  1.0461
14331TIP3    H164484   6.898   2.823   5.986  1.3429 -1.1717 -1.0190
14331TIP3    H264485   6.807   2.731   5.908 -2.5725 -0.3629  2.2159
14332TIP3   OH264486   1.492   3.046  15.410  0.0561 -0.1704 -0.2022
14332TIP3    H164487   1.584   3.021  15.419  0.6493  2.2039  1.3413
14332TIP3    H264488   1.452   2.974  15.361  2.2063 -2.4295  1.0956
14333TIP3   OH264489   5.380   4.062  10.604 -0.1356 -0.0873  0.2433
14333TIP3    H164490   5.425   4.139  10.639 -0.8314  0.8942 -0.9429
14333TIP3    H264491   5.290   4.091  10.591 -0.3868 -1.0844 -0.2867
14334TIP3   OH264492   4.337   4.861   0.289  0.8809  0.2735  0.3165
14334TIP3    H164493   4.418   4.909   0.304  1.1449 -0.1505  0.2500
14334TIP3    H264494   4.283   4.921   0.238  0.0077  1.7179  2.7680
14335TIP3   OH264495   1.084   5.655  15.014 -0.0987 -0.5648 -0.1301
14335TIP3    H164496   1.116   5.726  14.957 -0.3442 -0.6019 -0.3150
14335TIP3    H264497   0.990   5.656  15.002  0.1027 -3.3548 -3.0252
14336TIP3   OH264498   3.209   4.351   5.264 -0.2291 -0.2484  0.4330
14336TIP3    H164499   3.257   4.426   5.229 -1.3904  0.6595  0.7145
14336TIP3    H264500   3.136   4.390   5.311 -0.7292 -1.5690  0.7870
14337TIP3   OH264501   6.603   2.830  16.076  0.3011  0.1010  0.1718
14337TIP3    H164502   6.646   2.799  16.155  0.6321  0.1845  0.0259
14337TIP3    H264503   6.531   2.768  16.062  0.0328  0.2886  0.7244
14338TIP3   OH264504   5.725   2.815  13.545 -0.2594  0.0623 -0.0229
14338TIP3    H164505   5.787   2.867  13.595 -1.2516  0.5342  0.7447
14338TIP3    H264506   5.654   2.875  13.524 -1.8775 -1.1350  1.6719
14339TIP3   OH264507   3.203   5.668  16.914 -0.4060 -0.1686  0.2524
14339TIP3    H164508   3.129   5.728  16.915 -0.0541  0.3220 -1.2589
14339TIP3    H264509   3.175   5.596  16.857  0.3722  0.1734 -0.5881
14340TIP3   OH264510   5.211   4.468  12.098  0.0468 -0.4393  0.3295
14340TIP3    H164511   5.247   4.454  12.010 -1.4604  2.8623 -1.0082
14340TIP3    H264512   5.279   4.517  12.144  0.0463 -0.4209  0.3106
14341TIP3   OH264513   0.155   3.036   4.367  0.1938  0.0858 -0.3482
14341TIP3    H164514   0.059   3.032   4.375  0.3381 -1.1950  1.4064
14341TIP3    H264515   0.176   2.973   4.299 -0.1522 -0.2966 -0.1043
14342TIP3   OH264516   3.915   1.776   3.903  0.3968  0.1822 -0.5328
14342TIP3    H164517   3.950   1.717   3.970 -0.8013 -0.9148 -0.8342
14342TIP3    H264518   3.951   1.862   3.926 -0.0228 -0.1405  1.5696
14343TIP3   OH264519   1.594   6.408  12.371 -0.3091  0.5071  0.0329
14343TIP3    H164520   1.534   6.418  12.296 -0.0438 -0.7289 -0.3747
14343TIP3    H264521   1.537   6.414  12.448 -0.9661 -0.5512 -0.3451
14344TIP3   OH264522   1.250   1.308   5.253 -0.0476 -0.0822 -0.4802
14344TIP3    H164523   1.228   1.369   5.324 -1.2145  0.8808 -1.6146
14344TIP3    H264524   1.318   1.353   5.203  0.4661 -0.5689 -0.2255
14345TIP3   OH264525   3.936   2.921  10.678  0.0616  0.4359  0.3697
14345TIP3    H164526   4.014   2.868  10.695  0.2215  0.4121 -0.4007
14345TIP3    H264527   3.960   3.009  10.706 -0.2895  0.0718  1.8875
14346TIP3   OH264528   2.104   1.954  11.911 -0.3675 -0.0915  0.5263
14346TIP3    H164529   2.023   1.998  11.935  0.7262  1.5214  1.5117
14346TIP3    H264530   2.089   1.921  11.823 -1.1692  2.7177 -0.4941
14347TIP3   OH264531   1.151   0.122   3.717 -0.1695  0.4564 -0.2100
14347TIP3    H164532   1.098   0.123   3.637 -0.2980 -0.6505 -0.1525
14347TIP3    H264533   1.131   0.038   3.758 -0.9321  1.4308  1.5441
14348TIP3   OH264534   2.483   3.714   1.038 -0.2289 -0.4352 -0.5307
14348TIP3    H164535   2.435   3.645   1.085  0.6933 -0.8939 -0.2393
14348TIP3    H264536   2.415   3.773   1.007 -0.9580 -0.8320  0.2586
14349TIP3   OH264537   6.551   0.241   3.538 -0.1964  0.6320 -0.0215
14349TIP3    H164538   6.566   0.261   3.446 -0.5638 -1.1451 -0.4987
14349TIP3    H264539   6.456   0.242   3.548 -0.2372 -0.7882 -0.0776
14350TIP3   OH264540   5.324   5.733  14.636 -0.1690  0.4608 -0.0014
14350TIP3    H164541   5.242   5.767  14.671  0.9717  2.3377  1.0531
14350TIP3    H264542   5.317   5.638  14.645 -1.7569  0.6443  1.1582
14351TIP3   OH264543   4.865   4.040   2.589  0.5364  0.4420 -0.1324
14351TIP3    H164544   4.825   4.123   2.562  2.3057  1.5457  0.4639
14351TIP3    H264545   4.801   4.001   2.649 -1.6845 -0.1734 -2.6927
14352TIP3   OH264546   0.330   1.376   6.566  0.4710  0.7120  0.2172
14352TIP3    H164547   0.253   1.365   6.622  1.1682  1.5675  1.3706
14352TIP3    H264548   0.404   1.373   6.626  1.3453  0.0861 -0.8610
14353TIP3   OH264549   1.369   2.437   5.172 -0.2404  0.3818  0.5281
14353TIP3    H164550   1.381   2.465   5.081  0.6187 -0.3279  0.4140
14353TIP3    H264551   1.274   2.438   5.185 -0.4341 -0.5413 -0.7060
14354TIP3   OH264552   2.986   4.164  15.984 -0.1838 -0.2391  0.0784
14354TIP3    H164553   3.051   4.137  16.049  0.4259 -0.3963 -0.5945
14354TIP3    H264554   2.904   4.168  16.033  0.4410  0.6412  1.1026
14355TIP3   OH264555   5.543   4.267   3.520 -0.0977 -0.6256 -0.3697
14355TIP3    H164556   5.630   4.259   3.481  0.3683  1.9065 -0.0412
14355TIP3    H264557   5.483   4.245   3.449  0.7791  1.3272 -1.8118
14356TIP3   OH264558   1.705   6.285   2.846 -0.0245  0.2991 -0.3752
14356TIP3    H164559   1.660   6.367   2.830  1.6055  1.3070 -0.0154
14356TIP3    H264560   1.790   6.310   2.882  0.1642 -1.5692  0.6510
14357TIP3   OH264561   5.684   4.863  14.045  0.1130 -0.1362 -0.3966
14357TIP3    H164562   5.780   4.858  14.046  0.1403 -0.4162 -1.9902
14357TIP3    H264563   5.665   4.939  13.990 -0.5842 -0.8931 -1.2289
14358TIP3   OH264564   4.107   1.126   0.971 -0.0838 -0.8036  0.3808
14358TIP3    H164565   4.117   1.045   1.021 -2.4542 -0.6898  1.1542
14358TIP3    H264566   4.081   1.097   0.883 -0.7818 -0.9036  0.6151
14359TIP3   OH264567   2.312   5.768  15.230  0.2728  0.1689  0.4160
14359TIP3    H164568   2.288   5.851  15.188  1.3674  0.4216  0.2600
14359TIP3    H264569   2.303   5.703  15.160 -0.8752  0.0883  0.6147
14360TIP3   OH264570   3.278   2.869  13.190 -0.4891 -0.0369 -0.3105
14360TIP3    H164571   3.313   2.892  13.104  2.4171  1.1017  1.0409
14360TIP3    H264572   3.316   2.784  13.209 -0.0434  0.2971  0.3409
14361TIP3   OH264573   4.278   4.267   5.515  0.3614  0.1669 -0.0186
14361TIP3    H164574   4.249   4.255   5.425 -1.9551 -2.1972  0.9118
14361TIP3    H264575   4.354   4.209   5.523 -0.2379 -0.6549 -0.1359
14362TIP3   OH264576   4.267   5.955   2.017 -1.0390  0.1107 -0.3061
14362TIP3    H164577   4.309   5.880   1.975 -2.4859 -0.9388  0.0122
14362TIP3    H264578   4.268   5.935   2.110 -2.4122 -0.0861 -0.3037
14363TIP3   OH264579   1.141   4.270  11.489 -0.0027 -0.4506 -0.8289
14363TIP3    H164580   1.082   4.199  11.516 -0.4992 -0.1823 -1.2106
14363TIP3    H264581   1.110   4.297  11.403  0.9444 -0.5987 -1.2357
14364TIP3   OH264582   6.427   6.200  15.859 -0.3340 -0.8106 -0.0912
14364TIP3    H164583   6.414   6.295  15.856  1.0655 -0.6106 -0.5607
14364TIP3    H264584   6.444   6.175  15.768  1.7025 -1.1108  0.3227
14365TIP3   OH264585   1.609   4.433  12.056  0.0818 -0.0141  0.1385
14365TIP3    H164586   1.595   4.519  12.097 -1.2968 -0.8408  1.5463
14365TIP3    H264587   1.520   4.398  12.043  0.5803 -0.7158 -1.5798
14366TIP3   OH264588   1.414   5.883  13.656 -0.0462 -0.6780  0.0087
14366TIP3    H164589   1.350   5.818  13.684 -0.4920  0.9927  3.3039
14366TIP3    H264590   1.495   5.834  13.646 -1.2392 -2.4369 -2.0139
14367TIP3   OH264591   0.241   1.781   0.567  0.1722 -0.3186 -0.2996
14367TIP3    H164592   0.281   1.695   0.576  0.1262 -0.4422 -1.1871
14367TIP3    H264593   0.260   1.807   0.477 -1.3163 -0.1636 -0.5917
14368TIP3   OH264594   2.233   6.367   0.243 -0.0756 -0.0416 -0.2011
14368TIP3    H164595   2.307   6.337   0.296 -1.2655 -0.3094  1.3853
14368TIP3    H264596   2.193   6.287   0.210 -1.4319 -0.1055  1.4867
14369TIP3   OH264597   3.093   4.721   0.196  0.0962 -0.0770 -0.2393
14369TIP3    H164598   3.117   4.797   0.143  1.6990  2.3852  3.6012
14369TIP3    H264599   3.177   4.682   0.221 -0.6773 -2.7184 -1.3661
14370TIP3   OH264600   6.746   4.568   2.132  0.1289  0.2529  0.0205
14370TIP3    H164601   6.689   4.588   2.058 -3.8837 -0.4105  2.6256
14370TIP3    H264602   6.741   4.472   2.141  2.8766 -0.0289 -0.3914
14371TIP3   OH264603   2.407   5.970  11.479  0.3087 -0.7924 -0.5395
14371TIP3    H164604   2.324   5.923  11.471 -0.1796  0.1438 -1.1383
14371TIP3    H264605   2.467   5.924  11.420 -0.3612 -0.2540 -1.6705
14372TIP3   OH264606   6.525   2.747   4.948  0.2546  0.0798  0.5508
14372TIP3    H164607   6.457   2.814   4.955  0.6687  0.4607  0.9857
14372TIP3    H264608   6.605   2.795   4.929  0.4214 -0.3598  0.1303
14373TIP3   OH264609   1.334   5.851   5.695 -0.5197 -0.0676  0.0497
14373TIP3    H164610   1.273   5.804   5.752  0.2146 -0.6932  0.3279
14373TIP3    H264611   1.296   5.939   5.688 -1.4971 -0.4663  0.1462
14374TIP3   OH264612   6.448   6.268   5.897  0.3709 -0.6497  0.2334
14374TIP3    H164613   6.441   6.174   5.908 -1.1897 -0.5698  0.1363
14374TIP3    H264614   6.507   6.296   5.966  0.0839 -1.5799  0.8685
14375TIP3   OH264615   2.764   1.641   5.004 -0.3037  0.3827  0.0934
14375TIP3    H164616   2.814   1.720   5.023 -0.4887  0.3238  0.8556
14375TIP3    H264617   2.819   1.569   5.035 -1.0989  0.3488  1.5259
14376TIP3   OH264618   3.645   6.540   2.445  0.2932  0.2608 -0.7570
14376TIP3    H164619   3.633   6.548   2.351 -2.6876 -0.3376 -0.5189
14376TIP3    H264620   3.604   6.619   2.481  0.4611 -0.0262  0.0861
14377TIP3   OH264621   2.796   0.133  11.192 -0.4682 -0.5589  0.2601
14377TIP3    H164622   2.836   0.154  11.108  0.4807  1.7918  1.1872
14377TIP3    H264623   2.866   0.091  11.242 -0.2181  0.3339  0.6864
14378TIP3   OH264624   5.037   6.663   6.153 -0.2407 -0.0509  0.0501
14378TIP3    H164625   5.042   6.729   6.222  0.4393 -1.1015  1.0323
14378TIP3    H264626   4.943   6.650   6.139 -0.3910  0.0544  0.9107
14379TIP3   OH264627   3.535   1.109   6.595  0.1924 -0.1331  0.2768
14379TIP3    H164628   3.459   1.069   6.639  0.2150  0.3157  0.7263
14379TIP3    H264629   3.509   1.200   6.580  0.9236  0.2240  1.1139
14380TIP3   OH264630   5.380   2.500   5.865 -0.2577 -0.6335 -0.1478
14380TIP3    H164631   5.375   2.596   5.865 -1.4793 -0.6638  0.9966
14380TIP3    H264632   5.456   2.480   5.919 -0.9157 -0.2973  0.9402
14381TIP3   OH264633   2.874   3.849  16.400  0.0449  0.1862  0.4266
14381TIP3    H164634   2.845   3.865  16.490 -0.4808  2.6156 -0.1042
14381TIP3    H264635   2.835   3.920  16.349  0.4272 -1.0553 -1.7227
14382TIP3   OH264636   6.778   2.575  11.491  0.2729  0.0816 -0.3608
14382TIP3    H164637   6.705   2.515  11.479  0.7041 -0.7486  0.8715
14382TIP3    H264638   6.795   2.611  11.404 -2.4971  1.4137 -0.4360
14383TIP3   OH264639   5.327   0.839   4.138 -0.4015  0.1754  0.2340
14383TIP3    H164640   5.327   0.904   4.209  0.7207  0.1963  0.2332
14383TIP3    H264641   5.257   0.777   4.163 -0.6454  0.6911  0.8755
14384TIP3   OH264642   5.138   4.092   4.693 -0.7437  0.0791 -0.5684
14384TIP3    H164643   5.186   4.175   4.695 -0.0671 -0.3231  1.1412
14384TIP3    H264644   5.143   4.064   4.601  1.9148  0.2695 -0.5432
14385TIP3   OH264645   5.802   0.826   0.708 -0.9372  0.7612  0.3743
14385TIP3    H164646   5.798   0.837   0.803  1.2419  1.1264  0.4688
14385TIP3    H264647   5.894   0.839   0.686 -1.2806  0.0170 -1.7226
14386TIP3   OH264648   0.829   2.589  12.714 -0.2367 -0.6994 -0.2857
14386TIP3    H164649   0.806   2.628  12.630 -1.0872  0.1035  0.3018
14386TIP3    H264650   0.813   2.495  12.703 -1.7699 -0.4171 -0.5745
14387TIP3   OH264651   1.563   1.352  14.552  0.3043  0.5141  0.1340
14387TIP3    H164652   1.468   1.341  14.553  0.3340  0.0768 -0.9245
14387TIP3    H264653   1.576   1.446  14.568 -0.2759  0.4820  0.8372
14388TIP3   OH264654   6.075   2.149  13.394  0.0906  0.2973  0.1299
14388TIP3    H164655   5.990   2.162  13.436  0.2005 -0.6929  0.6955
14388TIP3    H264656   6.084   2.223  13.334 -0.3808  1.3675  1.3440
14389TIP3   OH264657   6.654   1.067   2.068 -0.0743 -0.1240 -0.2542
14389TIP3    H164658   6.564   1.068   2.033  0.1118  1.6042 -0.7480
14389TIP3    H264659   6.644   1.035   2.158 -1.0648 -0.7611 -0.5689
14390TIP3   OH264660   6.206   6.567   3.911 -0.2722  0.5091  0.3800
14390TIP3    H164661   6.265   6.582   3.985 -1.5827  3.1562  1.0267
14390TIP3    H264662   6.127   6.532   3.951 -0.5939  0.9065  0.0996
14391TIP3   OH264663   2.864   2.077   3.016  0.2677 -0.2060  0.2724
14391TIP3    H164664   2.875   2.151   3.077 -0.1806  0.1897 -0.1174
14391TIP3    H264665   2.919   2.008   3.052 -0.3605 -0.1418  1.3946
14392TIP3   OH264666   4.955   1.223   2.053  0.5074  0.2098  0.0102
14392TIP3    H164667   4.926   1.297   2.107  1.0984  1.3575 -1.1887
14392TIP3    H264668   4.937   1.250   1.963 -1.3641 -2.0676 -0.3865
14393TIP3   OH264669   2.003   6.354  11.962  0.4878 -0.5890  0.3124
14393TIP3    H164670   1.988   6.274  11.911  0.1218 -0.5181  0.3065
14393TIP3    H264671   2.004   6.424  11.897 -0.6148 -0.4221  0.4612
14394TIP3   OH264672   4.174   3.759  16.538  0.2527  0.0954  0.3731
14394TIP3    H164673   4.196   3.777  16.629  0.4688  0.5545  0.2322
14394TIP3    H264674   4.228   3.820  16.487 -1.5853  1.5216  0.0247
14395TIP3   OH264675   5.148   5.627   4.935 -0.3319  0.1477  0.7792
14395TIP3    H164676   5.109   5.564   4.995  0.7182 -0.3231  0.9951
14395TIP3    H264677   5.182   5.573   4.863  1.0150  0.3924  1.2052
14396TIP3   OH264678   2.437   1.593   4.564 -0.2637 -0.1551  0.0693
14396TIP3    H164679   2.469   1.656   4.629  1.4000  0.2302 -1.0596
14396TIP3    H264680   2.393   1.647   4.498  1.2549 -0.0871 -0.9533
14397TIP3   OH264681   4.713   0.206  12.785  0.2930 -0.0577 -0.5431
14397TIP3    H164682   4.724   0.111  12.776 -0.1399 -0.2187  0.4936
14397TIP3    H264683   4.675   0.233  12.701 -0.9531 -1.0372 -0.3301
14398TIP3   OH264684   3.905   2.598  16.994  0.6828 -0.5836  0.0030
14398TIP3    H164685   3.861   2.675  17.029 -0.1481  0.0333 -2.2567
14398TIP3    H264686   3.993   2.629  16.971  0.4367 -0.3560 -0.6561
14399TIP3   OH264687   6.247   1.643  13.629  0.4400  0.2772  0.1921
14399TIP3    H164688   6.187   1.692  13.572 -0.0667  0.8741  1.1968
14399TIP3    H264689   6.208   1.652  13.716  1.3440 -0.3834  0.6730
14400TIP3   OH264690   4.524   6.013   2.967 -0.1461  0.6562 -0.3199
14400TIP3    H164691   4.589   6.003   2.898 -1.2916 -0.4538 -1.3014
14400TIP3    H264692   4.555   6.087   3.020  2.2538 -0.2671 -0.3010
14401TIP3   OH264693   4.066   0.355  12.509  0.4503  0.0302 -0.6296
14401TIP3    H164694   4.014   0.435  12.509  0.4422  0.0466 -2.0754
14401TIP3    H264695   4.100   0.348  12.599  0.1256  1.4298 -0.3834
14402TIP3   OH264696   4.248   2.134  16.837  0.4023 -0.7529 -0.1357
14402TIP3    H164697   4.298   2.204  16.796  0.4106 -0.1980  0.8096
14402TIP3    H264698   4.209   2.087  16.763 -0.4735  0.8772 -0.7708
14403TIP3   OH264699   5.607   6.463  12.688  0.0776  0.3803  0.2609
14403TIP3    H164700   5.567   6.404  12.624  0.1060  1.2112 -0.5325
14403TIP3    H264701   5.598   6.416  12.771 -2.6366  0.5570  0.1494
14404TIP3   OH264702   0.710   5.189  16.432 -0.4360 -0.0735 -0.2005
14404TIP3    H164703   0.729   5.240  16.354 -0.7637 -0.0600 -0.2753
14404TIP3    H264704   0.630   5.229  16.468  0.1463  0.4117  0.5785
14405TIP3   OH264705   1.419   5.745   0.055 -0.2018 -0.0895 -0.1844
14405TIP3    H164706   1.409   5.839   0.068 -0.8470 -0.1744  0.0118
14405TIP3    H264707   1.508   5.725   0.084  0.0131  0.4917 -0.4415
14406TIP3   OH264708   0.097   5.392  13.708  0.7051  0.1216  0.1535
14406TIP3    H164709   0.189   5.392  13.734  0.4485 -0.1315  1.1206
14406TIP3    H264710   0.085   5.473  13.659  1.2258  0.6067  0.8220
14407TIP3   OH264711   1.010   1.714  12.717 -0.4045 -0.0773 -0.5194
14407TIP3    H164712   0.994   1.620  12.714 -1.7802  0.0375  1.6630
14407TIP3    H264713   1.092   1.723  12.766  0.4046 -0.1526 -1.8102
14408TIP3   OH264714   4.404   1.842   5.315  0.0556 -0.2704  0.0345
14408TIP3    H164715   4.453   1.771   5.273  0.9672  0.8711 -0.8944
14408TIP3    H264716   4.448   1.855   5.399  0.2595 -0.3874 -0.0541
14409TIP3   OH264717   4.805   0.259   1.094  0.1935  0.0673  0.3775
14409TIP3    H164718   4.887   0.213   1.114  0.3120  0.4152  0.7121
14409TIP3    H264719   4.827   0.314   1.019  0.3199  0.2904  0.5746
14410TIP3   OH264720   6.025   0.965  13.482  0.5965  0.2197 -0.6519
14410TIP3    H164721   5.932   0.945  13.483  0.5149  0.5664 -1.2958
14410TIP3    H264722   6.068   0.880  13.493  0.1998  0.1731  0.6881
14411TIP3   OH264723   3.992   1.437  12.751  0.7278 -0.3225  0.2529
14411TIP3    H164724   3.936   1.367  12.720  0.4553  0.2589 -0.6046
14411TIP3    H264725   3.958   1.516  12.708  2.2561  0.0342 -0.3846
14412TIP3   OH264726   0.571   3.761  16.824  0.3620  0.3836  0.0533
14412TIP3    H164727   0.629   3.832  16.853  1.5963  0.3069 -2.0261
14412TIP3    H264728   0.534   3.727  16.905  4.2780 -0.4513  1.7520
14413TIP3   OH264729   1.752   0.243  13.559 -0.3598 -0.3021  0.2888
14413TIP3    H164730   1.731   0.320  13.506 -1.0230  0.2481  1.3153
14413TIP3    H264731   1.694   0.174  13.526 -0.9198  0.0943  0.4211
14414TIP3   OH264732   1.502   2.625  12.633  0.2846 -0.4258 -0.4255
14414TIP3    H164733   1.506   2.567  12.556  2.7058 -0.9958  0.0536
14414TIP3    H264734   1.485   2.566  12.706  0.1616 -0.1752 -0.2519
14415TIP3   OH264735   2.242   0.387   0.343  0.2684  0.1351  0.2957
14415TIP3    H164736   2.172   0.340   0.298  1.5543 -1.0497 -0.5413
14415TIP3    H264737   2.199   0.430   0.416 -1.5792  0.6197 -1.0037
14416TIP3   OH264738   6.488   0.719  13.339  0.0392  0.0189  0.5253
14416TIP3    H164739   6.416   0.775  13.310  0.6838  0.1074 -0.9733
14416TIP3    H264740   6.567   0.765  13.312  0.5928 -1.5834 -0.7458
14417TIP3   OH264741   1.705   1.918  16.564 -0.4856 -0.6372 -0.3258
14417TIP3    H164742   1.770   1.977  16.525 -0.7678 -0.1034 -0.0038
14417TIP3    H264743   1.621   1.950  16.531 -0.9095  0.9429  2.0229
14418TIP3   OH264744   2.581   1.915   3.726 -0.2953  0.6600  0.7746
14418TIP3    H164745   2.639   1.888   3.655  0.2215  2.6853  0.3621
14418TIP3    H264746   2.500   1.941   3.682  0.2877  2.6367  0.8114
14419TIP3   OH264747   5.213   6.007  13.638  0.4543 -0.5986  0.1190
14419TIP3    H164748   5.256   5.955  13.706 -0.3691 -0.7284  0.5595
14419TIP3    H264749   5.282   6.063  13.603  0.9733 -0.7817  0.8290
14420TIP3   OH264750   2.442   1.777  12.338  0.3036  0.1915  0.9284
14420TIP3    H164751   2.367   1.837  12.338 -0.0456 -0.2050 -0.3533
14420TIP3    H264752   2.412   1.702  12.286  1.5638  0.0039  0.4423
14421TIP3   OH264753   3.180   2.905  10.655  0.2806 -0.4841 -0.1966
14421TIP3    H164754   3.164   2.891  10.749  0.2358 -1.5618 -0.3520
14421TIP3    H264755   3.188   3.000  10.646 -2.4072 -0.1208  0.4871
14422TIP3   OH264756   2.156   1.945  11.356  0.0022 -0.2032  0.4287
14422TIP3    H164757   2.145   1.850  11.366 -0.7420 -0.4059 -1.7908
14422TIP3    H264758   2.070   1.981  11.377  0.3340  0.0268  1.4504
14423TIP3   OH264759   0.220   4.563   5.385  0.0584 -0.3373  0.1149
14423TIP3    H164760   0.262   4.649   5.383 -0.8820  0.2003  1.5602
14423TIP3    H264761   0.253   4.523   5.465 -3.0029  0.6112  2.0201
14424TIP3   OH264762   4.931   3.698  14.791  0.2739  0.8193 -0.0988
14424TIP3    H164763   5.014   3.721  14.833  0.5921 -0.4916  0.0140
14424TIP3    H264764   4.900   3.622  14.838 -2.5051  2.9301  1.7717
14425TIP3   OH264765   1.796   0.836  14.526  0.7958 -0.3646  0.4125
14425TIP3    H164766   1.796   0.924  14.488 -0.0029 -0.7205 -0.4629
14425TIP3    H264767   1.734   0.787  14.472  1.5613 -1.5906  0.6111
14426TIP3   OH264768   1.120   2.774   2.566  0.6272 -0.5260  0.2823
14426TIP3    H164769   1.172   2.731   2.634  0.1084 -1.2950  0.2146
14426TIP3    H264770   1.089   2.702   2.511  0.9944  0.0793 -0.7449
14427TIP3   OH264771   2.419   4.226  11.862  0.2563 -0.4055 -0.1109
14427TIP3    H164772   2.342   4.192  11.817  0.1742  0.6584 -0.8061
14427TIP3    H264773   2.418   4.182  11.947 -1.1778 -0.3519 -0.0661
14428TIP3   OH264774   4.948   2.130  12.444 -0.0093  0.1299 -0.4067
14428TIP3    H164775   4.994   2.079  12.510 -0.5661 -0.7003 -0.6397
14428TIP3    H264776   4.964   2.221  12.468  0.3512 -0.1580  0.4810
14429TIP3   OH264777   4.941   5.999   6.617  0.5784 -0.8393  0.5446
14429TIP3    H164778   4.886   5.954   6.682  0.1867 -1.2897 -0.0805
14429TIP3    H264779   4.880   6.056   6.570  1.6304  3.5358  3.8723
14430TIP3   OH264780   2.309   4.837  14.336  0.7166 -0.5655  0.5512
14430TIP3    H164781   2.383   4.837  14.274 -0.0420  1.1760 -0.4405
14430TIP3    H264782   2.239   4.791  14.290  0.4955 -0.2262  0.5412
14431TIP3   OH264783   5.015   6.744  12.987 -0.1570  0.2679 -0.2537
14431TIP3    H164784   4.953   6.718  13.055  0.1378  1.1581  0.3662
14431TIP3    H264785   5.084   6.678  12.991 -0.7297 -0.3587 -0.5074
14432TIP3   OH264786   6.194   3.636  16.217  0.1912  0.1841  0.7748
14432TIP3    H164787   6.255   3.572  16.181  0.8576  0.7470  0.8968
14432TIP3    H264788   6.111   3.616  16.173  0.3890 -0.7502  0.8005
14433TIP3   OH264789   2.297   2.222  13.440  0.0622 -0.2499  0.3683
14433TIP3    H164790   2.352   2.230  13.362 -1.2074  0.8670 -0.4576
14433TIP3    H264791   2.339   2.153  13.492  0.7508 -1.2691 -1.4489
14434TIP3   OH264792   2.070   6.807   5.943 -0.8651  0.3319  0.8044
14434TIP3    H164793   2.165   6.803   5.942 -0.8695 -0.5583  1.6595
14434TIP3    H264794   2.047   6.806   6.036 -1.7877 -3.5537  0.7130
14435TIP3   OH264795   5.526   2.760  13.112 -0.1818  0.0511  0.4847
14435TIP3    H164796   5.543   2.769  13.018 -2.3589  0.4150  0.0591
14435TIP3    H264797   5.433   2.783  13.121  0.4004  1.7839  2.9843
14436TIP3   OH264798   5.586   6.289  15.070  0.7067  0.5261 -0.1112
14436TIP3    H164799   5.545   6.341  15.139  0.1917 -1.3472  1.0715
14436TIP3    H264800   5.680   6.306  15.080  0.7204 -0.3940  1.6968
14437TIP3   OH264801   0.890   0.519   0.756 -0.2678 -0.1477  0.2311
14437TIP3    H164802   0.871   0.546   0.846 -1.0452 -0.8728  0.2975
14437TIP3    H264803   0.823   0.454   0.736  1.1967 -1.6146 -0.1212
14438TIP3   OH264804   2.779   3.571  11.281 -0.3497 -0.9445 -0.3451
14438TIP3    H164805   2.744   3.529  11.203 -0.7639 -3.4140  1.0617
14438TIP3    H264806   2.711   3.559  11.347  0.4153  0.1469  0.6881
14439TIP3   OH264807   5.259   5.745  15.988  0.0801 -0.1612  0.1742
14439TIP3    H164808   5.297   5.675  15.935  0.5765 -0.4658  0.9199
14439TIP3    H264809   5.198   5.790  15.928 -2.0852 -2.6739  0.3056
14440TIP3   OH264810   6.359   4.633   1.201 -0.6180 -0.5328  0.4360
14440TIP3    H164811   6.415   4.600   1.271 -1.0005  0.1469  1.0720
14440TIP3    H264812   6.371   4.571   1.129  2.0593  0.3402  0.0093
14441TIP3   OH264813   5.231   4.335  10.883  0.5414  0.3580 -0.3229
14441TIP3    H164814   5.208   4.428  10.880  0.0996  0.3101  1.0360
14441TIP3    H264815   5.160   4.291  10.835  0.5846  0.6793 -0.6879
14442TIP3   OH264816   0.172   0.811  13.961 -0.1272 -0.4924 -0.1248
14442TIP3    H164817   0.252   0.864  13.954 -0.6609  0.4897  0.8096
14442TIP3    H264818   0.104   0.865  13.921 -0.3312 -1.3718 -1.0207
14443TIP3   OH264819   5.493   2.576   0.166  0.3895 -0.5087 -0.4145
14443TIP3    H164820   5.469   2.642   0.101  0.1708 -0.1744  0.0024
14443TIP3    H264821   5.410   2.546   0.202  0.5467  0.0340  0.4224
14444TIP3   OH264822   6.069   5.721   5.052 -0.0470  0.2196 -0.3188
14444TIP3    H164823   6.129   5.774   5.000  2.8270 -0.3495  2.1223
14444TIP3    H264824   6.053   5.643   4.998  1.3785  0.4477 -1.1130
14445TIP3   OH264825   0.273   0.872  12.882 -0.5979  0.6714 -0.4997
14445TIP3    H164826   0.231   0.887  12.967  0.4161  1.3609 -0.1092
14445TIP3    H264827   0.316   0.955  12.861  0.5413 -0.0003 -0.9026
14446TIP3   OH264828   3.158   6.372  13.822  0.0120 -0.4231  0.6939
14446TIP3    H164829   3.169   6.456  13.866 -1.1852 -0.7632  1.7041
14446TIP3    H264830   3.128   6.395  13.734  0.2416  0.2173  0.7765
14447TIP3   OH264831   0.725   0.673  16.639 -0.2519 -0.6621 -0.0014
14447TIP3    H164832   0.706   0.728  16.563 -0.1854 -1.7426 -0.8433
14447TIP3    H264833   0.709   0.729  16.715  0.6979  0.7813 -0.8175
14448TIP3   OH264834   5.774   5.354  15.967  0.1429  0.0275 -0.0224
14448TIP3    H164835   5.804   5.423  15.909 -1.3972  1.6514  0.9836
14448TIP3    H264836   5.706   5.396  16.020 -0.6153 -2.1878  0.8702
14449TIP3   OH264837   1.171   5.301  15.551  0.0166  0.1607  0.3519
14449TIP3    H164838   1.212   5.385  15.529  0.3954 -0.3877 -1.1331
14449TIP3    H264839   1.244   5.242  15.568 -0.1204 -0.5996 -1.4679
14450TIP3   OH264840   3.168   0.418   2.422  0.0968  0.1313  0.0683
14450TIP3    H164841   3.073   0.433   2.423  0.2330  2.2126 -2.8967
14450TIP3    H264842   3.179   0.339   2.370 -0.0082  0.2302 -0.1065
14451TIP3   OH264843   4.420   4.257   4.140  0.4556 -0.0311  0.3515
14451TIP3    H164844   4.339   4.305   4.156  0.4446  0.1684 -0.2871
14451TIP3    H264845   4.447   4.283   4.052  0.6086 -0.9751  0.1091
14452TIP3   OH264846   1.532   2.065   3.274 -0.3636 -0.0371  0.7930
14452TIP3    H164847   1.487   2.075   3.191  1.4021  1.2504 -0.0668
14452TIP3    H264848   1.466   2.029   3.333 -1.1801 -2.8181 -1.6017
14453TIP3   OH264849   5.395   3.081  12.662 -0.1519  0.4143  0.1556
14453TIP3    H164850   5.443   3.145  12.716  2.3689  0.7980 -2.2664
14453TIP3    H264851   5.309   3.120  12.649  0.4005  2.0090  0.9953
14454TIP3   OH264852   2.271   3.386   5.693  0.2048 -0.3128 -0.1668
14454TIP3    H164853   2.265   3.296   5.726  0.9141 -0.9641 -1.7454
14454TIP3    H264854   2.362   3.395   5.665  0.2599  1.0687  0.3899
14455TIP3   OH264855   4.310   4.854   2.080  0.2961  0.3238  0.3286
14455TIP3    H164856   4.311   4.832   1.987 -0.4352  0.2723  0.3244
14455TIP3    H264857   4.307   4.950   2.082 -1.7170  0.3065  0.2415
14456TIP3   OH264858   3.996   3.972  14.036 -0.0790  0.3322  0.1942
14456TIP3    H164859   4.000   4.002  13.945  0.9538  0.3554  0.2290
14456TIP3    H264860   3.939   3.895  14.034  1.2234 -0.6572 -0.7765
14457TIP3   OH264861   1.462   3.474  15.340 -0.0739 -0.4022  0.6946
14457TIP3    H164862   1.415   3.393  15.359 -2.7668  0.1730 -2.6113
14457TIP3    H264863   1.398   3.543  15.358  0.4533  0.6257 -1.1222
14458TIP3   OH264864   1.705   2.254  16.637 -0.2635 -0.0079  0.4925
14458TIP3    H164865   1.797   2.260  16.660 -0.0582  1.0062 -0.5277
14458TIP3    H264866   1.669   2.341  16.659 -0.7688 -0.1016  0.0628
14459TIP3   OH264867   5.099   5.078   0.614  0.1342 -0.2711 -0.5287
14459TIP3    H164868   5.012   5.057   0.646  0.9669  0.2643  2.4326
14459TIP3    H264869   5.156   5.012   0.654  1.3004  0.4360 -0.9479
14460TIP3   OH264870   0.339   6.754  12.770 -0.5323 -0.8805  0.3092
14460TIP3    H164871   0.255   6.760  12.816  0.9270 -1.5762  3.3866
14460TIP3    H264872   0.379   6.839  12.784 -0.6763 -0.5717 -1.0981
14461TIP3   OH264873   2.037   1.649  12.018  0.7816  0.3522 -0.4672
14461TIP3    H164874   1.945   1.627  12.009  1.2924 -1.5082 -1.9040
14461TIP3    H264875   2.057   1.703  11.941  0.8937  0.7419 -0.1661
14462TIP3   OH264876   1.160   5.962  12.842 -0.4675 -0.3860  0.0691
14462TIP3    H164877   1.126   6.044  12.876  0.6758  1.4777 -2.8837
14462TIP3    H264878   1.086   5.921  12.798 -0.3021  0.9203 -1.5364
14463TIP3   OH264879   3.593   1.596   3.733 -0.4092  0.1747 -0.2956
14463TIP3    H164880   3.687   1.578   3.730 -0.7382 -1.6451 -1.3609
14463TIP3    H264881   3.575   1.645   3.652 -0.3631  0.6920  0.0018
14464TIP3   OH264882   1.502   6.712   6.461  0.1531  0.5039  0.7964
14464TIP3    H164883   1.494   6.798   6.504 -1.8038 -0.0014  1.5442
14464TIP3    H264884   1.413   6.690   6.435  0.8535 -0.6420 -0.7592
14465TIP3   OH264885   2.554   0.797  13.829 -0.1695  0.3534  0.3924
14465TIP3    H164886   2.466   0.767  13.807 -0.1441 -0.0061  0.7717
14465TIP3    H264887   2.570   0.870  13.769 -0.5671  0.1625  0.0479
14466TIP3   OH264888   0.001   0.926  14.937 -0.2838  0.0767  0.2100
14466TIP3    H164889  -0.007   0.965  14.850 -1.2417 -0.9609 -0.1920
14466TIP3    H264890   0.089   0.888  14.937 -0.7193 -1.0111 -0.8050
14467TIP3   OH264891   4.697   5.128  12.217  0.7352 -0.4768 -0.4225
14467TIP3    H164892   4.617   5.103  12.263 -1.0218  1.2272 -2.3443
14467TIP3    H264893   4.750   5.048  12.215 -0.9665 -1.6910  0.7892
14468TIP3   OH264894   1.533   3.108  14.104  0.3877 -0.2280  0.5148
14468TIP3    H164895   1.617   3.155  14.105  0.8735 -1.0760  1.0870
14468TIP3    H264896   1.496   3.127  14.018  1.3489 -0.1541  0.1026
14469TIP3   OH264897   0.957   0.806  16.531  0.1828  0.1241 -0.6091
14469TIP3    H164898   0.928   0.733  16.587  1.4947 -0.6042 -0.8323
14469TIP3    H264899   0.935   0.778  16.442 -0.6877  0.6902 -0.5827
14470TIP3   OH264900   3.979   4.784   4.091 -0.2504  0.3488  0.2229
14470TIP3    H164901   3.976   4.821   4.003  1.3537 -1.5533 -0.7052
14470TIP3    H264902   3.919   4.710   4.088  1.0199 -0.7062  0.1951
14471TIP3   OH264903   6.525   1.520   0.049  0.5980 -0.4127 -0.1075
14471TIP3    H164904   6.488   1.527  -0.039  2.0010  1.8810 -0.6175
14471TIP3    H264905   6.620   1.518   0.034  0.8336 -1.0282  1.3375
14472TIP3   OH264906   3.696   4.175   2.877 -0.0541  0.1094 -0.0533
14472TIP3    H164907   3.738   4.191   2.793  1.0664 -0.4878  0.3790
14472TIP3    H264908   3.604   4.162   2.856  0.0003  1.2064 -1.0468
14473TIP3   OH264909   3.685   0.099   2.232 -0.1031  0.4631  0.1322
14473TIP3    H164910   3.657   0.111   2.141 -1.2886 -1.2860  0.2149
14473TIP3    H264911   3.752   0.030   2.228  0.1947  0.7266  0.5230
14474TIP3   OH264912   3.726   0.469  16.292  0.1296 -0.0328  0.5613
14474TIP3    H164913   3.642   0.427  16.311  1.1764 -2.0849  0.8899
14474TIP3    H264914   3.779   0.454  16.370  0.4533  2.3706  0.8899
14475TIP3   OH264915   3.015   1.422  13.592  0.2859 -0.0920  0.6142
14475TIP3    H164916   3.085   1.462  13.539 -0.7690  0.2850 -0.5328
14475TIP3    H264917   3.056   1.345  13.632  2.5532  2.2584  3.2856
14476TIP3   OH264918   4.009   1.191   1.788 -0.4441 -0.6470  0.5741
14476TIP3    H164919   4.065   1.255   1.833  1.4308 -0.7050 -1.4959
14476TIP3    H264920   4.031   1.108   1.829  4.3401 -1.4104 -2.7143
14477TIP3   OH264921   4.735   5.165  11.324 -0.0580 -0.1682 -0.8687
14477TIP3    H164922   4.757   5.085  11.371  1.0955  1.4861  1.6265
14477TIP3    H264923   4.789   5.161  11.245  2.4068 -0.4837  0.7087
14478TIP3   OH264924   6.640   3.978  11.632 -0.8279  0.0124  0.1137
14478TIP3    H164925   6.696   4.050  11.605  0.2018  0.3651  2.8259
14478TIP3    H264926   6.561   4.020  11.666  0.0183  0.0201  2.2560
14479TIP3   OH264927   4.448   0.167  14.028 -0.6572 -0.5102  0.2407
14479TIP3    H164928   4.536   0.199  14.049  0.6086 -1.7041 -2.6685
14479TIP3    H264929   4.393   0.201  14.099  1.4322  3.4889  0.2506
14480TIP3   OH264930   6.595   5.074   1.331  0.6824  0.1755 -0.3183
14480TIP3    H164931   6.629   5.159   1.361 -0.5112  1.3861 -2.1280
14480TIP3    H264932   6.509   5.095   1.294 -0.1711 -2.0552  0.2310
14481TIP3   OH264933   2.370   2.740   0.632 -0.8124 -0.2787  0.1954
14481TIP3    H164934   2.412   2.674   0.686 -1.4914 -0.7726  0.1331
14481TIP3    H264935   2.276   2.723   0.640 -0.9591  0.0345 -0.6300
14482TIP3   OH264936   0.521   4.838  13.754 -0.0594  0.2837 -0.0525
14482TIP3    H164937   0.547   4.876  13.838 -0.6128 -0.5602  0.5219
14482TIP3    H264938   0.432   4.870  13.740 -1.2515 -2.1230  1.3349
14483TIP3   OH264939   3.697   2.480   0.544  0.2243  0.1652 -1.2678
14483TIP3    H164940   3.690   2.514   0.633  0.9872 -0.2517 -1.0403
14483TIP3    H264941   3.662   2.550   0.489  2.2284  1.5851 -0.8530
14484TIP3   OH264942   3.664   0.813   1.268 -0.3799  0.2374  0.0778
14484TIP3    H164943   3.667   0.787   1.176  0.4587  0.3022  0.0786
14484TIP3    H264944   3.572   0.803   1.293 -0.5730  0.0045 -0.7021
14485TIP3   OH264945   5.751   4.738   2.370 -0.3929 -0.2671 -0.0382
14485TIP3    H164946   5.845   4.750   2.361 -0.3758  0.0575  0.5314
14485TIP3    H264947   5.742   4.655   2.419 -0.4224 -0.6746 -0.7278
14486TIP3   OH264948   4.845   5.225   3.645  0.0126 -0.4922  0.1058
14486TIP3    H164949   4.924   5.280   3.650 -0.6878  0.6080 -0.6012
14486TIP3    H264950   4.879   5.138   3.624  0.9703  0.2996 -2.0171
14487TIP3   OH264951   5.741   6.503   5.364 -0.2643 -0.5480 -0.0936
14487TIP3    H164952   5.758   6.506   5.458 -0.6170  2.4229 -0.0275
14487TIP3    H264953   5.654   6.542   5.354 -0.9642 -2.3442 -1.5499
14488TIP3   OH264954   6.022   1.556  16.345  0.4534 -0.5077 -0.2577
14488TIP3    H164955   6.053   1.628  16.291  0.2160 -1.3826 -1.6212
14488TIP3    H264956   5.983   1.598  16.421  1.7580  0.7267 -0.2405
14489TIP3   OH264957   3.710   4.518  12.052  0.4290  0.4550 -0.0670
14489TIP3    H164958   3.783   4.477  12.006  1.8879  3.2437 -0.4766
14489TIP3    H264959   3.728   4.612  12.045 -3.0292  1.2511  0.1793
14490TIP3   OH264960   0.195   5.396   2.163  0.0578 -0.4029 -0.0530
14490TIP3    H164961   0.166   5.336   2.094  0.0466  0.1936 -0.5747
14490TIP3    H264962   0.290   5.387   2.163  0.0659 -0.3196 -0.2239
14491TIP3   OH264963   5.744   1.110   0.067 -0.4615 -0.0577 -0.0451
14491TIP3    H164964   5.830   1.116   0.025  0.0861 -2.9770  0.4159
14491TIP3    H264965   5.693   1.179   0.026  0.9144 -0.7815 -3.3521
14492TIP3   OH264966   0.827   6.501   1.933  0.1286  0.0529 -0.0791
14492TIP3    H164967   0.780   6.418   1.925  0.0443  0.0827  0.1027
14492TIP3    H264968   0.881   6.506   1.854  1.7343 -1.1782  0.8615
14493TIP3   OH264969   5.242   0.248   5.556 -0.1891 -0.3960 -0.0955
14493TIP3    H164970   5.209   0.335   5.579  0.6851 -0.2636  0.7228
14493TIP3    H264971   5.272   0.258   5.466 -2.1060 -0.4668 -0.7933
14494TIP3   OH264972   3.236   1.585   1.728  0.0110  0.0811  0.3963
14494TIP3    H164973   3.304   1.623   1.672  2.0986 -1.2256  1.9194
14494TIP3    H264974   3.160   1.577   1.670  1.3424  0.9386 -1.5901
14495TIP3   OH264975   3.931   2.595   4.607 -0.1499 -0.2752  0.0434
14495TIP3    H164976   3.977   2.519   4.572 -1.1139 -1.1167  0.5582
14495TIP3    H264977   3.917   2.651   4.531 -2.3356 -2.1296 -1.0350
14496TIP3   OH264978   4.271   0.183   1.095  0.3241 -0.2233  0.4293
14496TIP3    H164979   4.305   0.266   1.062 -1.8195  1.3327  1.8535
14496TIP3    H264980   4.311   0.116   1.040  0.6022  1.8769 -2.0846
14497TIP3   OH264981   3.180   2.387  11.658  0.1085  0.2493  0.6977
14497TIP3    H164982   3.100   2.418  11.617  0.1044  2.4307  2.1929
14497TIP3    H264983   3.249   2.410  11.595 -0.3665 -1.6864 -0.6184
14498TIP3   OH264984   1.071   1.044   0.958 -0.2489  0.4744  0.1931
14498TIP3    H164985   1.151   1.076   1.000 -0.5290  0.1301  1.0086
14498TIP3    H264986   1.002   1.065   1.020 -0.7812  0.6852 -0.4671
14499TIP3   OH264987   6.248   0.411  10.603  0.0725  0.0049 -0.3131
14499TIP3    H164988   6.188   0.485  10.609  0.7903  0.5382  0.5315
14499TIP3    H264989   6.195   0.340  10.567 -1.1115  0.4147  0.5627
14500TIP3   OH264990   1.115   0.026   0.866  0.0223 -0.5996  0.0319
14500TIP3    H164991   1.181  -0.010   0.807 -0.1194 -0.8100  0.0014
14500TIP3    H264992   1.104   0.117   0.837 -0.2132 -0.7670 -0.4184
14501TIP3   OH264993   6.423   6.283  15.263 -0.4082  0.3325 -0.1220
14501TIP3    H164994   6.345   6.280  15.208  0.3847 -0.8361 -1.2228
14501TIP3    H264995   6.491   6.240  15.212  0.5898 -0.0140  1.4179
14502TIP3   OH264996   6.412   5.972   2.293 -0.2034  0.5482  0.3812
14502TIP3    H164997   6.330   5.991   2.248 -0.7715  0.2400  1.2413
14502TIP3    H264998   6.385   5.922   2.370  0.8844 -0.3529  0.1941
14503TIP3   OH264999   5.734   2.594  12.833  0.5359  0.1925 -0.0983
14503TIP3    H165000   5.817   2.617  12.792  0.8840  0.9106  0.9747
14503TIP3    H265001   5.758   2.535  12.904 -0.0431 -0.8604 -0.7378
14504TIP3   OH265002   6.669   2.399  13.970 -0.3968 -0.6744 -0.1210
14504TIP3    H165003   6.675   2.393  13.875 -2.3393 -0.7438 -0.2798
14504TIP3    H265004   6.638   2.313  13.998  0.0675 -0.6233  0.5829
14505TIP3   OH265005   0.011   1.502   4.058  0.0759 -0.1788  0.3998
14505TIP3    H165006   0.088   1.456   4.024 -0.7057 -0.9662 -0.3682
14505TIP3    H265007   0.042   1.592   4.074  0.8137 -0.1124 -1.1975
14506TIP3   OH265008   3.613   3.720   0.916 -0.5827 -0.1422  0.5331
14506TIP3    H165009   3.618   3.659   0.989 -0.3817 -0.5723  0.1694
14506TIP3    H265010   3.698   3.763   0.914  0.1487 -1.5303 -0.6172
14507TIP3   OH265011   0.326   2.238   3.713  0.5662  0.4058 -0.2387
14507TIP3    H165012   0.269   2.201   3.780  1.0175  2.2589  1.2624
14507TIP3    H265013   0.395   2.173   3.700 -0.2924 -0.5811  0.0548
14508TIP3   OH265014   6.212   3.716  14.155 -0.3768  0.4309 -0.0761
14508TIP3    H165015   6.216   3.772  14.232  1.2732 -0.5439  0.5955
14508TIP3    H265016   6.291   3.738  14.106  0.3360 -1.3217  0.2384
14509TIP3   OH265017   5.417   3.732  10.199 -0.6341  0.5367  0.1158
14509TIP3    H165018   5.419   3.646  10.241  0.7136  1.1009  1.2855
14509TIP3    H265019   5.384   3.791  10.266 -1.1601  1.0178 -0.5483
14510TIP3   OH265020   1.470   3.140   2.101  0.7829 -0.3748 -0.3469
14510TIP3    H165021   1.395   3.086   2.122 -0.3108  1.1230 -0.2359
14510TIP3    H265022   1.436   3.208   2.043  1.2397  2.2748  2.2516
14511TIP3   OH265023   1.187   4.478   0.530 -0.2631  0.4971 -0.1374
14511TIP3    H165024   1.272   4.453   0.568 -0.5144 -1.3279 -0.6688
14511TIP3    H265025   1.137   4.512   0.604 -0.3237 -1.8627  1.0136
14512TIP3   OH265026   1.663   2.730   1.016  0.8009  0.0473 -0.6664
14512TIP3    H165027   1.699   2.683   1.092  1.3346 -0.1637 -1.0370
14512TIP3    H265028   1.680   2.822   1.035 -0.4198  0.1140  0.1506
14513TIP3   OH265029   0.365   4.229  15.032  0.1130 -0.1717  0.1184
14513TIP3    H165030   0.414   4.284  14.971  1.3384 -1.7891 -0.4229
14513TIP3    H265031   0.369   4.277  15.115  1.3632  0.4418 -0.2633
14514TIP3   OH265032   0.569   6.684   5.631 -0.1773 -0.2073  0.1436
14514TIP3    H165033   0.646   6.737   5.653 -0.2905 -0.5322  1.3649
14514TIP3    H265034   0.578   6.666   5.537  2.0572 -1.5075  0.5363
14515TIP3   OH265035   1.955   5.113  11.517  0.1005  0.0858 -0.1158
14515TIP3    H165036   2.030   5.071  11.477  0.1954 -2.3036  2.3430
14515TIP3    H265037   1.884   5.049  11.510  0.1593 -0.5883  3.4345
14516TIP3   OH265038   0.637   1.332   4.998 -0.1628 -0.6700  0.2526
14516TIP3    H165039   0.705   1.267   4.978 -1.6283 -1.6522 -1.9466
14516TIP3    H265040   0.620   1.375   4.914 -0.1341  1.7229  1.4176
14517TIP3   OH265041   4.492   1.649   5.508 -0.1005 -0.1453 -0.4286
14517TIP3    H165042   4.506   1.564   5.549  0.5387 -0.6277 -1.5868
14517TIP3    H265043   4.397   1.656   5.499 -0.2186 -0.2623  0.6026
14518TIP3   OH265044   6.137   5.443  13.744 -0.6464 -0.6772 -0.2080
14518TIP3    H165045   6.062   5.495  13.772 -2.7863 -1.5635 -3.6433
14518TIP3    H265046   6.213   5.487  13.783 -2.8667 -0.4394  4.4350
14519TIP3   OH265047   5.443   5.559  12.124  0.2209 -0.4509 -0.0419
14519TIP3    H165048   5.535   5.557  12.152  0.4186  1.0215 -0.4959
14519TIP3    H265049   5.441   5.508  12.043  0.4917 -1.0748  0.3354
14520TIP3   OH265050   3.077   0.576   6.130  0.3826 -0.1229  0.4548
14520TIP3    H165051   3.029   0.601   6.208 -0.0090 -0.2400  0.2518
14520TIP3    H265052   3.095   0.659   6.085 -0.3695 -0.1423  0.1013
14521TIP3   OH265053   6.355   2.090  14.285  0.2068 -0.7379 -0.1317
14521TIP3    H165054   6.344   2.119  14.194 -0.0230  0.3744  0.2310
14521TIP3    H265055   6.408   2.011  14.279 -2.1439 -2.3519 -1.4564
14522TIP3   OH265056   6.271   6.043  12.406  0.5218 -0.9057  0.2887
14522TIP3    H165057   6.334   5.974  12.388  1.0367  0.0590 -2.1255
14522TIP3    H265058   6.324   6.122  12.420 -0.0726 -0.4868  0.2497
14523TIP3   OH265059   1.040   4.625   4.991  0.3368 -0.1189  0.9631
14523TIP3    H165060   1.052   4.530   4.999 -1.7192 -0.3763  1.3524
14523TIP3    H265061   1.019   4.655   5.079  1.2804  0.7693  0.9040
14524TIP3   OH265062   6.605   3.827   0.685 -0.2179 -0.0981  0.6775
14524TIP3    H165063   6.633   3.876   0.763 -1.3484  1.2258  0.3013
14524TIP3    H265064   6.546   3.887   0.640  2.2600  0.1991 -2.5195
14525TIP3   OH265065   4.813   4.480   5.473  0.2596  0.0120  0.1410
14525TIP3    H165066   4.897   4.489   5.429 -0.1508  0.6056 -0.5435
14525TIP3    H265067   4.810   4.388   5.499  1.0605 -0.0466  0.0551
14526TIP3   OH265068   2.435   0.578   4.688  0.0217 -0.3225 -0.1321
14526TIP3    H165069   2.342   0.595   4.699  0.1053 -0.7321  1.4378
14526TIP3    H265070   2.445   0.484   4.703  0.8701 -0.0444  1.1834
14527TIP3   OH265071   2.339   2.056  16.524  0.3818 -0.3440 -0.2878
14527TIP3    H165072   2.326   2.120  16.594  2.2716  1.0808 -1.1530
14527TIP3    H265073   2.347   1.972  16.571  3.5827  0.7856  1.5683
14528TIP3   OH265074   4.259   6.405  15.086 -0.3549 -0.4270  0.8800
14528TIP3    H165075   4.245   6.370  14.998  1.3422  1.3166 -0.1729
14528TIP3    H265076   4.195   6.475  15.095 -1.1738 -1.2389  1.4344
14529TIP3   OH265077   3.346   0.995  11.719  0.0352  0.3129 -0.1420
14529TIP3    H165078   3.380   1.046  11.646 -1.1566  0.7595 -0.4087
14529TIP3    H265079   3.294   0.926  11.679 -0.5804  0.5231  0.2776
14530TIP3   OH265080   0.331   2.802   5.157 -0.5034 -0.8092 -0.4698
14530TIP3    H165081   0.259   2.797   5.220  0.4984 -1.6320  0.6342
14530TIP3    H265082   0.303   2.747   5.083 -1.2155 -0.7046 -0.2838
14531TIP3   OH265083   3.076   1.888   5.499  0.3860 -0.0635 -0.3920
14531TIP3    H165084   3.059   1.794   5.500 -0.4739  0.0635  0.8166
14531TIP3    H265085   3.095   1.910   5.591  0.2717  0.9791 -0.5983
14532TIP3   OH265086   0.410   4.763   5.440 -0.4223 -0.5838 -0.3226
14532TIP3    H165087   0.448   4.751   5.528 -1.7848  0.4791  0.4458
14532TIP3    H265088   0.477   4.810   5.391  0.1278 -0.6780  0.3214
14533TIP3   OH265089   1.116   0.831   1.391 -0.3723 -0.1217 -0.3223
14533TIP3    H165090   1.099   0.762   1.454 -1.2024  0.9497  0.6520
14533TIP3    H265091   1.178   0.890   1.434 -1.1611  0.7723 -0.3685
14534TIP3   OH265092   3.219   1.589  10.829  0.1190  0.1545  0.3002
14534TIP3    H165093   3.208   1.495  10.837  2.0096 -0.0075  1.6982
14534TIP3    H265094   3.213   1.606  10.735 -0.1671 -1.3748  0.0153
14535TIP3   OH265095   5.224   1.468   4.531  0.1921  0.3068  0.0292
14535TIP3    H165096   5.229   1.461   4.436 -0.5976 -1.6121  0.0894
14535TIP3    H265097   5.272   1.548   4.551 -1.1777  1.7759 -2.1049
14536TIP3   OH265098   0.254   2.444   1.606  0.7106  0.0767  0.4944
14536TIP3    H165099   0.218   2.377   1.548 -0.9777  1.4450 -0.1563
14536TIP3    H265100   0.188   2.454   1.675  1.2358  0.6211  0.9315
14537TIP3   OH265101   0.995   1.600  11.308  0.2034  0.0407 -0.6188
14537TIP3    H165102   1.073   1.569  11.354 -0.7121 -2.2950 -0.4855
14537TIP3    H265103   0.938   1.632  11.377 -0.5819 -2.1243 -0.1775
14538TIP3   OH265104   1.540   4.182   4.074 -0.2964 -0.1013 -0.0634
14538TIP3    H165105   1.622   4.156   4.115 -1.0662 -0.6186  1.2334
14538TIP3    H265106   1.564   4.252   4.014  0.7679  1.6714  2.2460
14539TIP3   OH265107   6.022   3.056   3.785 -0.1247 -0.3069 -0.8461
14539TIP3    H165108   6.099   3.040   3.731 -0.0068 -1.3345 -0.3996
14539TIP3    H265109   5.966   3.112   3.732  0.2330 -0.8514 -1.8103
14540TIP3   OH265110   3.768   2.706  15.550  0.1040 -0.1608 -0.2733
14540TIP3    H165111   3.705   2.634  15.558 -1.5939  1.3249  0.7100
14540TIP3    H265112   3.728   2.766  15.486  0.1568  1.1139  0.8349
14541TIP3   OH265113   3.366   0.345   4.001 -0.5437  0.5041 -0.5198
14541TIP3    H165114   3.456   0.367   3.979 -0.9609  1.2413 -1.5905
14541TIP3    H265115   3.372   0.291   4.079  0.7190  1.9678  0.4443
14542TIP3   OH265116   5.715   2.908  15.584 -0.1571 -0.0869  0.4986
14542TIP3    H165117   5.641   2.902  15.524  0.8544  2.0264 -1.0477
14542TIP3    H265118   5.678   2.948  15.663 -0.7037  0.9175 -0.2463
14543TIP3   OH265119   0.210   0.034   4.171 -0.3923  0.2744 -0.0823
14543TIP3    H165120   0.265  -0.039   4.142  1.2199  2.0528 -1.8232
14543TIP3    H265121   0.147   0.046   4.100  0.9690  2.0825 -1.0757
14544TIP3   OH265122   1.469   2.426   4.621 -0.2898  0.0741 -0.1038
14544TIP3    H165123   1.419   2.377   4.556  0.8596 -1.0172 -0.2001
14544TIP3    H265124   1.512   2.495   4.571  1.4968 -1.4366 -0.7757
14545TIP3   OH265125   1.902   5.948  15.855  0.2466 -0.3174  0.1317
14545TIP3    H165126   1.866   5.956  15.766  0.0088  1.5087  0.3473
14545TIP3    H265127   1.984   5.900  15.843  0.7752  0.8454 -1.2621
14546TIP3   OH265128   5.256   3.483   3.926  0.3955  0.1619 -0.4991
14546TIP3    H165129   5.248   3.395   3.961 -0.6631  0.6552  0.5591
14546TIP3    H265130   5.166   3.507   3.902  0.8522  0.4721 -2.0385
14547TIP3   OH265131   2.866   5.991   1.207  0.0982 -0.9449 -0.2264
14547TIP3    H165132   2.930   5.972   1.138  0.5117 -1.2216  0.2311
14547TIP3    H265133   2.804   5.918   1.202 -0.9016 -0.0532 -1.4892
14548TIP3   OH265134   6.398   4.975   2.465  0.1053  0.1401  0.4895
14548TIP3    H165135   6.376   5.022   2.546 -3.4370  2.1474 -1.3746
14548TIP3    H265136   6.359   5.028   2.396  0.3272 -3.0214 -2.2935
14549TIP3   OH265137   1.586   0.189   4.128  0.1539  0.0806 -0.4978
14549TIP3    H165138   1.623   0.118   4.180  1.2278  0.9568 -0.0229
14549TIP3    H265139   1.512   0.220   4.179  1.8359  1.6488  1.1268
14550TIP3   OH265140   2.824   5.490   2.542  0.0562  0.2231  0.8818
14550TIP3    H165141   2.824   5.553   2.614  2.4662  0.7771  0.4779
14550TIP3    H265142   2.916   5.480   2.519 -0.6232 -0.0360 -2.0661
14551TIP3   OH265143   0.108   2.677  14.144 -0.1725 -0.4579 -0.1255
14551TIP3    H165144   0.146   2.717  14.222  0.9104  0.4529 -1.0906
14551TIP3    H265145   0.105   2.747  14.080 -0.4929 -1.3332 -1.1017
14552TIP3   OH265146   1.785   3.630   0.540 -0.2015 -0.7397 -0.3218
14552TIP3    H165147   1.777   3.718   0.505  0.0852  0.1105  1.6263
14552TIP3    H265148   1.695   3.602   0.555 -0.2744 -0.5697 -0.4393
14553TIP3   OH265149   1.558   0.408  15.687  0.0187  0.6609  1.1225
14553TIP3    H165150   1.634   0.362  15.721  1.9005  2.9058  0.2238
14553TIP3    H265151   1.506   0.430  15.764  2.3445  2.4974  2.3070
14554TIP3   OH265152   1.150   2.047   1.855 -0.4796 -0.5549 -0.0449
14554TIP3    H165153   1.125   2.139   1.858 -1.0190 -0.7072  0.0720
14554TIP3    H265154   1.150   2.019   1.947  2.0644 -0.0423  0.1937
14555TIP3   OH265155   1.375   3.747  11.163  0.0173  0.5030 -0.7515
14555TIP3    H165156   1.326   3.829  11.176 -0.4928  0.1018 -0.0636
14555TIP3    H265157   1.463   3.766  11.197 -0.4437  0.4125  0.5572
14556TIP3   OH265158   5.333   4.666  11.440 -0.0508 -0.7657  0.5354
14556TIP3    H165159   5.316   4.737  11.377  0.3250 -2.4654 -1.6346
14556TIP3    H265160   5.417   4.689  11.480  1.4527 -1.1813 -2.1235
14557TIP3   OH265161   4.426   6.361   2.900 -0.2211 -0.1549  0.1571
14557TIP3    H165162   4.387   6.448   2.909 -1.4698 -0.8001  1.3839
14557TIP3    H265163   4.376   6.318   2.831  0.7857  0.2814 -0.8686
14558TIP3   OH265164   5.412   3.823  14.011  0.1721  0.2528 -0.5833
14558TIP3    H165165   5.388   3.767  13.937 -1.7445  0.3677 -0.0960
14558TIP3    H265166   5.329   3.841  14.055  1.1334  1.1100  0.9498
14559TIP3   OH265167   2.713   4.235  12.857  0.1837 -0.2544 -0.0962
14559TIP3    H165168   2.684   4.184  12.932 -0.7620  1.6189  0.8748
14559TIP3    H265169   2.792   4.280  12.887  0.5202 -0.4574 -0.6566
14560TIP3   OH265170   0.576   3.811   1.260 -0.1140 -0.5738  0.0464
14560TIP3    H165171   0.585   3.865   1.182  1.5943 -0.6967  0.1185
14560TIP3    H265172   0.648   3.749   1.255  0.0602 -0.5724  1.7161
14561TIP3   OH265173   3.995   5.029   5.542  0.1599 -0.1807  0.1318
14561TIP3    H165174   4.006   4.937   5.566 -1.3480  0.0345  1.8398
14561TIP3    H265175   3.938   5.065   5.610  1.3113  2.2211 -0.0823
14562TIP3   OH265176   0.270   3.948   3.846  1.0701 -0.2362 -0.1113
14562TIP3    H165177   0.231   3.861   3.851  0.4139  0.0710  0.1290
14562TIP3    H265178   0.274   3.968   3.753 -0.9968  0.4664 -0.0840
14563TIP3   OH265179   5.035   3.698  15.915 -0.2083  0.0223 -0.0576
14563TIP3    H165180   5.018   3.605  15.901 -2.7952  0.3432  0.3717
14563TIP3    H265181   5.037   3.707  16.010 -1.3215  0.5659 -0.0690
14564TIP3   OH265182   6.683   0.241  13.950  0.1587  0.1701  0.0310
14564TIP3    H165183   6.758   0.281  13.994 -0.1710 -0.6964  1.4679
14564TIP3    H265184   6.636   0.314  13.911  1.0733  0.8667  0.1943
14565TIP3   OH265185   4.602   3.699  14.217  0.3052 -0.9313  0.1958
14565TIP3    H165186   4.661   3.671  14.147 -1.6869  0.4620 -2.2068
14565TIP3    H265187   4.514   3.690  14.179 -0.8141  0.8463  2.1762
14566TIP3   OH265188   2.465   1.166   5.408 -0.1757  0.3537 -0.4602
14566TIP3    H165189   2.535   1.129   5.355  0.1322  0.2428  0.0224
14566TIP3    H265190   2.460   1.258   5.380  0.3980  0.4523 -0.2550
14567TIP3   OH265191   4.867   2.728  14.544  0.0007 -0.2731 -0.1048
14567TIP3    H165192   4.884   2.724  14.450 -2.1167  1.5602 -0.6425
14567TIP3    H265193   4.914   2.807  14.573 -0.7345  0.1285  0.0154
14568TIP3   OH265194   2.998   1.965   3.747 -0.2282 -0.0623  0.4426
14568TIP3    H165195   3.041   1.966   3.833  3.0870  0.2669 -1.0693
14568TIP3    H265196   2.974   2.057   3.731  0.7336  0.1794  0.3299
14569TIP3   OH265197   6.535   2.547   3.513 -0.2236  0.5737 -0.0807
14569TIP3    H165198   6.445   2.549   3.483 -2.0952  0.7173  4.7248
14569TIP3    H265199   6.552   2.456   3.535  0.4113  0.7419  0.1611
14570TIP3   OH265200   0.261   1.957   2.456 -0.4526 -1.0515 -0.6615
14570TIP3    H165201   0.172   1.921   2.462 -0.3852 -1.1378 -0.1208
14570TIP3    H265202   0.261   2.030   2.519 -0.1816 -0.9615 -0.7641
14571TIP3   OH265203   5.863   5.537  15.495  0.5892 -0.0702 -0.0873
14571TIP3    H165204   5.919   5.528  15.419  1.3324  0.0582  0.4396
14571TIP3    H265205   5.836   5.448  15.516  1.2748 -0.2154  0.1666
14572TIP3   OH265206   3.920   2.786   3.004 -0.2333  0.1515  0.0040
14572TIP3    H165207   3.959   2.708   2.964  1.4456  0.6689  0.5252
14572TIP3    H265208   3.956   2.787   3.092  0.4476  1.9638 -0.2715
14573TIP3   OH265209   6.823   5.090  15.421 -0.2234 -0.7527 -0.1563
14573TIP3    H165210   6.775   5.143  15.357 -1.3429 -0.5466  0.8138
14573TIP3    H265211   6.784   5.003  15.415  0.2189 -0.9383 -0.3235
14574TIP3   OH265212   4.021   4.971   3.854 -0.1198  0.0708  0.5476
14574TIP3    H165213   3.971   5.034   3.801  0.7376  0.8440  0.6317
14574TIP3    H265214   4.064   5.024   3.921 -0.3830 -0.7739  1.4074
14575TIP3   OH265215   4.244   3.984   5.807 -0.6040  0.2755  0.0290
14575TIP3    H165216   4.309   3.997   5.876 -1.3483 -0.6478  0.9287
14575TIP3    H265217   4.238   3.889   5.797  0.4951  0.3946 -2.3129
14576TIP3   OH265218   0.840   4.856  14.707 -0.1401 -0.5537 -0.0327
14576TIP3    H165219   0.883   4.908  14.640 -3.2733  2.2586 -0.1092
14576TIP3    H265220   0.884   4.880  14.788  0.2614  0.0809 -0.4341
14577TIP3   OH265221   6.070   3.544   1.509  0.6527 -0.4667  0.1164
14577TIP3    H165222   6.149   3.549   1.455  0.8975  0.5632  0.5537
14577TIP3    H265223   5.998   3.550   1.446  0.9323  0.1553 -0.1533
14578TIP3   OH265224   0.529   6.286  13.291  0.2715 -0.6197  0.3514
14578TIP3    H165225   0.449   6.334  13.311  1.3981  2.2304 -1.4282
14578TIP3    H265226   0.596   6.326  13.345  1.1519 -0.5190 -0.7642
14579TIP3   OH265227   3.692   5.015  13.492 -0.0311  0.3762 -0.6810
14579TIP3    H165228   3.682   5.042  13.401  0.4161  0.1223 -0.8093
14579TIP3    H265229   3.783   5.036  13.513 -0.2725  0.8735 -0.1470
14580TIP3   OH265230   2.549   5.672   3.810  0.3480 -0.2474 -0.3832
14580TIP3    H165231   2.457   5.693   3.792  0.1308 -0.2276  0.6818
14580TIP3    H265232   2.548   5.579   3.832  0.1166  0.2839  2.2773
14581TIP3   OH265233   3.202   6.636  15.696 -0.0113 -0.0283  0.2908
14581TIP3    H165234   3.236   6.705  15.639 -3.4105  0.7064 -1.0968
14581TIP3    H265235   3.198   6.558  15.640  1.3440 -0.6819  1.0716
14582TIP3   OH265236   2.501   6.330  14.629 -0.0586 -0.1286  0.0819
14582TIP3    H165237   2.582   6.303  14.671  0.8206 -0.2737 -1.6047
14582TIP3    H265238   2.521   6.416  14.592 -0.3509 -0.5537 -1.1188
14583TIP3   OH265239   3.423   0.265  10.214 -0.1910  0.1607 -0.3160
14583TIP3    H165240   3.518   0.266  10.208 -0.2214 -0.2261 -0.9276
14583TIP3    H265241   3.404   0.189  10.269 -0.1143  0.8699  0.7274
14584TIP3   OH265242   4.385   6.612  11.255  0.0510  0.0142 -0.3058
14584TIP3    H165243   4.337   6.694  11.264  0.2758 -0.0446  2.2059
14584TIP3    H265244   4.319   6.543  11.266 -0.3899 -0.2608 -3.8210
14585TIP3   OH265245   4.708   0.270   6.594  0.1881  0.1119  0.2097
14585TIP3    H165246   4.801   0.259   6.575 -0.0490 -0.2777 -0.8075
14585TIP3    H265247   4.670   0.184   6.573 -0.1908 -0.1873  1.9982
14586TIP3   OH265248   3.112   0.654  13.892 -0.1789  0.2024 -0.1632
14586TIP3    H165249   3.117   0.737  13.938 -1.9368  0.3870 -0.2323
14586TIP3    H265250   3.139   0.588  13.956  2.5993  0.8929 -0.5190
14587TIP3   OH265251   0.395   1.667   3.374 -0.2804 -0.0691  0.3711
14587TIP3    H165252   0.371   1.752   3.410 -0.3290 -0.8643  2.3399
14587TIP3    H265253   0.421   1.686   3.283 -0.8069  1.9359  0.5877
14588TIP3   OH265254   4.804   3.794   5.198 -0.6937 -0.7554 -0.5324
14588TIP3    H165255   4.826   3.802   5.291 -0.8077 -0.5017 -0.5268
14588TIP3    H265256   4.766   3.707   5.190 -0.1720 -0.9942 -0.4441
14589TIP3   OH265257   2.614   4.351   5.455 -0.3704 -0.0367  0.0310
14589TIP3    H165258   2.556   4.284   5.419 -1.2531 -0.8423  2.7005
14589TIP3    H265259   2.555   4.417   5.490  0.3416  0.0016  1.2215
14590TIP3   OH265260   0.271   2.422  15.334 -0.3562  0.2987 -0.2338
14590TIP3    H165261   0.244   2.330  15.332  2.0825 -0.6152  1.9859
14590TIP3    H265262   0.327   2.432  15.257  0.0413 -0.3575 -0.0376
14591TIP3   OH265263   0.495   4.884   0.088 -0.0472 -0.0630  0.3290
14591TIP3    H165264   0.500   4.789   0.075 -0.6459  0.1313 -1.7618
14591TIP3    H265265   0.569   4.918   0.037 -2.0782  0.7571 -2.3245
14592TIP3   OH265266   2.041   4.641  13.380  0.3004  0.6916  0.3843
14592TIP3    H165267   2.060   4.559  13.336  0.4399 -0.3889  2.3366
14592TIP3    H265268   2.127   4.675  13.405  0.3045  1.8988 -1.1307
14593TIP3   OH265269   0.787   5.565   0.481 -0.0868  0.0538  0.1025
14593TIP3    H165270   0.838   5.564   0.562  1.0427 -0.6372 -0.5815
14593TIP3    H265271   0.816   5.486   0.434 -1.0628  0.1930 -0.7627
14594TIP3   OH265272   4.909   0.497  10.767 -0.7982 -0.0634 -0.1825
14594TIP3    H165273   4.825   0.452  10.760  0.3747 -2.1369 -2.5310
14594TIP3    H265274   4.891   0.586  10.738 -2.1687 -0.5098 -0.7833
14595TIP3   OH265275   1.313   6.592  15.891  0.5169 -0.0767 -0.6676
14595TIP3    H165276   1.227   6.613  15.928  0.7011 -0.4664  0.0047
14595TIP3    H265277   1.345   6.675  15.854  0.5649  0.4677  0.5513
14596TIP3   OH265278   1.828   6.497  11.510 -0.1132 -0.7560  0.4602
14596TIP3    H165279   1.913   6.536  11.488  0.8302 -2.8041  0.1961
14596TIP3    H265280   1.845   6.402  11.509 -2.1772 -1.1776  1.3939
14597TIP3   OH265281   6.364   0.323   1.207  0.0056  0.3656 -0.4417
14597TIP3    H165282   6.436   0.274   1.245 -0.9117 -2.1419 -1.7168
14597TIP3    H265283   6.406   0.399   1.165  1.9295 -1.0428 -1.1858
14598TIP3   OH265284   6.357   1.890   0.805 -0.0526  0.3911 -0.0517
14598TIP3    H165285   6.344   1.908   0.711 -0.9545 -1.3809 -0.3283
14598TIP3    H265286   6.451   1.891   0.817  0.2260 -1.5417 -1.5228
14599TIP3   OH265287   2.453   3.607  13.265  0.2839  0.8657  0.4233
14599TIP3    H165288   2.533   3.569  13.300  0.3371  1.1453  0.6038
14599TIP3    H265289   2.481   3.659  13.190  0.0349 -0.7604 -0.8621
14600TIP3   OH265290   1.024   4.239  12.245 -0.0924  0.0019 -0.0596
14600TIP3    H165291   1.056   4.163  12.197 -0.3904  0.9430 -1.8204
14600TIP3    H265292   1.051   4.314  12.192  1.4328  1.2623  2.3092
14601TIP3   OH265293   6.833   2.583  12.230  0.5145  0.2400  0.1744
14601TIP3    H165294   6.848   2.591  12.136  1.0267  0.7762  0.2970
14601TIP3    H265295   6.776   2.656  12.253 -0.4344 -0.4678  0.1143
14602TIP3   OH265296   6.488   0.576   5.615  0.5529 -0.5902 -0.3323
14602TIP3    H165297   6.509   0.620   5.697  1.0316  0.5140 -1.0199
14602TIP3    H265298   6.422   0.511   5.639  1.8578 -1.4207  1.1924
14603TIP3   OH265299   0.880   1.943  15.472 -0.1797  0.0003 -0.2243
14603TIP3    H165300   0.929   1.907  15.398 -0.9976 -0.1798 -0.6847
14603TIP3    H265301   0.903   2.036  15.473 -0.2485  0.0292 -0.7811
14604TIP3   OH265302   4.826   2.383  16.801  0.1682 -0.3225  0.3292
14604TIP3    H165303   4.791   2.344  16.881 -0.7332 -0.0180  0.0915
14604TIP3    H265304   4.861   2.309  16.752  0.5781 -0.5322  0.9286
14605TIP3   OH265305   0.809   0.676   6.584 -0.0299 -0.3085  0.2295
14605TIP3    H165306   0.777   0.763   6.561  1.9725 -0.3156 -3.2785
14605TIP3    H265307   0.734   0.618   6.567 -0.5572  0.4526 -0.0688
14606TIP3   OH265308   2.136   2.083   1.198  0.0835 -0.1871 -0.6247
14606TIP3    H165309   2.082   2.004   1.190 -0.2832  0.0988 -0.9923
14606TIP3    H265310   2.075   2.155   1.189  0.3191  0.1528  0.3543
14607TIP3   OH265311   6.254   5.791   1.206  0.0020  0.6034  0.0929
14607TIP3    H165312   6.348   5.781   1.218  0.2438  0.4451 -1.6030
14607TIP3    H265313   6.220   5.810   1.293  1.5116  0.0250  0.8443
14608TIP3   OH265314   6.171   6.678  11.918  0.0595  0.1115  0.0135
14608TIP3    H165315   6.250   6.731  11.923 -1.8152  3.1190 -0.0439
14608TIP3    H265316   6.114   6.724  11.856 -2.2260 -1.2704  0.9475
14609TIP3   OH265317   5.031   6.401   5.326 -0.0028  0.6176  0.1136
14609TIP3    H165318   5.074   6.380   5.408  1.2602 -2.2530 -1.1579
14609TIP3    H265319   4.945   6.359   5.331 -0.5550  1.7287  0.4908
14610TIP3   OH265320   4.683   6.264   2.659  0.3628  0.0156 -0.0598
14610TIP3    H165321   4.684   6.333   2.725  1.5790  0.6690 -0.7338
14610TIP3    H265322   4.668   6.184   2.709  1.1777  0.5064  1.0199
14611TIP3   OH265323   5.412   0.261  14.581  0.1475 -0.8733 -0.6843
14611TIP3    H165324   5.399   0.328  14.514  1.5695 -0.1282 -0.2708
14611TIP3    H265325   5.382   0.180  14.541 -1.5909 -0.0061 -1.2165
14612TIP3   OH265326   5.036   3.262   5.478 -0.0420 -0.1250  0.1003
14612TIP3    H165327   4.970   3.196   5.459  0.1494 -0.4564  0.5929
14612TIP3    H265328   4.991   3.327   5.532  0.6902 -1.6718  2.7042
14613TIP3   OH265329   1.814   2.789   5.488  0.1241 -0.8610  0.3298
14613TIP3    H165330   1.757   2.865   5.479  0.7944 -0.0768  2.1131
14613TIP3    H265331   1.900   2.820   5.460  0.3940 -0.9526  1.0400
14614TIP3   OH265332   5.996   3.418   0.819  0.4456  0.4735  0.1076
14614TIP3    H165333   6.066   3.354   0.806  0.6355  0.6407  0.3025
14614TIP3    H265334   6.040   3.503   0.815  0.2698  0.5753  0.3350
14615TIP3   OH265335   4.724   3.740   3.770 -0.4074 -0.5884 -0.2320
14615TIP3    H165336   4.629   3.751   3.770 -0.4334 -0.8159 -0.0174
14615TIP3    H265337   4.741   3.676   3.701 -0.5840 -2.0046  0.9893
14616TIP3   OH265338   6.733   4.006  14.585  0.1169 -0.1036  0.0248
14616TIP3    H165339   6.688   4.012  14.669 -0.7802 -1.0514 -0.3557
14616TIP3    H265340   6.700   4.081  14.535 -0.8429 -0.6106 -0.1380
14617TIP3   OH265341   5.198   4.285  11.859  0.2043  0.0618 -0.5898
14617TIP3    H165342   5.251   4.205  11.866  1.5754  0.9768 -0.2708
14617TIP3    H265343   5.240   4.336  11.790 -0.1810  0.8711 -0.2349
14618TIP3   OH265344   1.284   2.575   5.966  1.0208  0.5515  0.3541
14618TIP3    H165345   1.287   2.607   5.876  0.4526 -1.7832 -0.5661
14618TIP3    H265346   1.296   2.481   5.958 -0.4514  0.0996  2.5858
14619TIP3   OH265347   5.068   2.125   5.534  0.3113 -0.0901  0.5702
14619TIP3    H165348   5.022   2.188   5.588  0.1088 -1.3512  1.9253
14619TIP3    H265349   5.127   2.178   5.480 -3.7538  1.8443 -2.5402
14620TIP3   OH265350   5.615   3.239  14.848 -0.0662 -0.3874  0.7625
14620TIP3    H165351   5.586   3.150  14.827  2.4512 -1.5431  1.8041
14620TIP3    H265352   5.564   3.263  14.925 -0.3651 -1.1472  0.8106
14621TIP3   OH265353   0.101   1.245   1.643  0.1738  0.1049 -0.3717
14621TIP3    H165354   0.035   1.303   1.607 -0.4784  0.2421  0.9771
14621TIP3    H265355   0.061   1.209   1.722  1.9380  0.6891  0.8480
14622TIP3   OH265356   4.111   2.046  14.942 -0.1008 -0.1032  0.0944
14622TIP3    H165357   4.067   2.125  14.911  1.9893  0.3592 -1.9312
14622TIP3    H265358   4.150   2.007  14.864  1.5804 -1.4226  1.5020
14623TIP3   OH265359   6.098   5.264   0.967 -0.7130  0.1090 -0.7397
14623TIP3    H165360   6.125   5.342   1.015 -0.5309 -0.8470  0.7860
14623TIP3    H265361   6.176   5.238   0.918 -0.0804 -0.3245  0.4543
14624TIP3   OH265362   1.996   2.361   5.806 -0.2485 -0.6660  0.2058
14624TIP3    H165363   1.911   2.319   5.813 -0.0787 -1.0386  0.0478
14624TIP3    H265364   1.982   2.450   5.838 -0.9397 -0.3802 -0.8718
14625TIP3   OH265365   0.110   1.346  14.077 -0.9783  0.1804  0.1255
14625TIP3    H165366   0.115   1.269  14.020  0.0056  1.3990 -1.5284
14625TIP3    H265367   0.040   1.399  14.038 -0.4140  0.9512  0.1360
14626TIP3   OH265368   0.611   5.258  13.078 -0.3541  0.0084  0.4626
14626TIP3    H165369   0.645   5.283  13.164 -2.0965  1.7573  0.7399
14626TIP3    H265370   0.567   5.174  13.093  1.4550 -0.9450  0.6687
14627TIP3   OH265371   4.968   4.388  12.209  0.1817  0.2529  0.4099
14627TIP3    H165372   4.920   4.312  12.176 -0.5687  0.8023  0.2324
14627TIP3    H265373   5.023   4.415  12.136 -0.5782  0.7257  0.0091
14628TIP3   OH265374   6.096   0.740   3.511 -0.7804  0.4197 -0.3879
14628TIP3    H165375   6.086   0.677   3.440  0.0882  1.1672 -1.1946
14628TIP3    H265376   6.191   0.751   3.521 -0.8727  0.2044  1.0108
14629TIP3   OH265377   3.312   3.073   0.912 -0.0702 -0.3374  0.1467
14629TIP3    H165378   3.317   2.992   0.862 -0.4399 -0.8363  0.9024
14629TIP3    H265379   3.270   3.135   0.852  1.2612 -0.3531 -0.8517
14630TIP3   OH265380   0.016   2.218   4.008 -0.7217  0.1614 -0.4329
14630TIP3    H165381   0.064   2.300   3.995  0.0493 -0.4177 -1.3863
14630TIP3    H265382  -0.007   2.218   4.101 -0.6871  1.4226 -0.4052
14631TIP3   OH265383   3.474   6.462  11.316 -0.1784  0.1425  0.2817
14631TIP3    H165384   3.563   6.496  11.309  0.1437 -0.7095  0.1575
14631TIP3    H265385   3.427   6.500  11.241  0.3710 -0.2757 -0.2792
14632TIP3   OH265386   4.272   6.275  11.645 -0.1753 -0.1694 -0.4998
14632TIP3    H165387   4.304   6.298  11.732 -2.1360 -0.2501  0.2969
14632TIP3    H265388   4.334   6.208  11.614  0.1011 -0.7543  1.1929
14633TIP3   OH265389   3.126   3.915  13.672 -0.6715 -0.6277 -0.0501
14633TIP3    H165390   3.211   3.934  13.711 -1.3778 -0.6157  1.5745
14633TIP3    H265391   3.145   3.887  13.583  0.9715  0.0554  0.0631
14634TIP3   OH265392   0.987   3.234   3.886 -0.1900  0.0069 -0.0741
14634TIP3    H165393   1.018   3.150   3.918  0.7985  0.3481 -0.1042
14634TIP3    H265394   0.895   3.219   3.863 -0.4586 -0.6660  1.3543
14635TIP3   OH265395   1.584   6.050  15.360 -0.3971  0.0308 -0.2350
14635TIP3    H165396   1.658   5.990  15.349 -0.0822  0.5618 -1.1693
14635TIP3    H265397   1.575   6.093  15.275 -2.1350 -0.4075 -0.3048
14636TIP3   OH265398   4.972   6.123   2.952  0.1864  0.0067  0.1834
14636TIP3    H165399   4.952   6.207   2.911 -0.1724 -0.6561 -1.0366
14636TIP3    H265400   4.901   6.109   3.015  1.2829  1.5086  1.8677
14637TIP3   OH265401   1.673   5.232  16.063 -1.0973  0.0650 -0.2280
14637TIP3    H165402   1.586   5.259  16.093 -1.2611 -0.6106 -0.0948
14637TIP3    H265403   1.657   5.163  15.999 -0.6017 -1.7153  1.4860
14638TIP3   OH265404   3.789   5.354  12.826 -0.0024  0.4875  0.0381
14638TIP3    H165405   3.828   5.388  12.906  1.8517 -0.9842 -0.1710
14638TIP3    H265406   3.717   5.298  12.857 -0.9397  1.9006  0.5096
14639TIP3   OH265407   0.621   1.134  11.150  0.1984  0.8560  0.0319
14639TIP3    H165408   0.650   1.106  11.064  0.7629  0.0374  0.4671
14639TIP3    H265409   0.702   1.139  11.202 -0.0819  1.7336  0.4097
14640TIP3   OH265410   6.640   0.724  14.033 -0.1886 -1.2024  0.3715
14640TIP3    H165411   6.549   0.696  14.017 -0.1508 -1.5493  0.7641
14640TIP3    H265412   6.665   0.768  13.952 -1.7108  1.5933  1.2752
14641TIP3   OH265413   2.324   3.997   1.535 -0.4907 -0.3466  0.1764
14641TIP3    H165414   2.257   3.951   1.486 -0.8227  0.4761 -0.1513
14641TIP3    H265415   2.276   4.044   1.604 -0.7521  2.8981 -1.9792
14642TIP3   OH265416   6.629   5.254   1.979  0.1841  0.5969  0.4767
14642TIP3    H165417   6.636   5.344   2.010  0.2330  0.3096  1.3282
14642TIP3    H265418   6.613   5.203   2.058 -0.1364 -0.1086 -0.0391
14643TIP3   OH265419   4.299   1.160   3.854  0.7311  0.2162 -0.3683
14643TIP3    H165420   4.244   1.212   3.912 -0.5782  1.3225 -2.4579
14643TIP3    H265421   4.383   1.208   3.851  0.4733  0.6886 -0.1381
14644TIP3   OH265422   3.087   0.635  15.542  0.4183  0.5534  0.1068
14644TIP3    H165423   2.992   0.623  15.542  0.4313  0.4354 -0.7773
14644TIP3    H265424   3.110   0.654  15.451  0.9014  3.3225  0.7053
14645TIP3   OH265425   5.962   2.554   0.380 -0.1560 -0.5040  0.4181
14645TIP3    H165426   5.880   2.529   0.336 -0.5245 -0.0764  0.8587
14645TIP3    H265427   5.934   2.598   0.460  0.4993  0.4467  0.1387
14646TIP3   OH265428   5.895   0.012   1.164 -0.0896 -0.5292 -0.3279
14646TIP3    H165429   5.976   0.062   1.176  0.3377 -1.4427  0.7720
14646TIP3    H265430   5.908  -0.035   1.082 -0.8609  1.7622 -1.8668
14647TIP3   OH265431   4.318   5.869   3.493  0.2449 -0.6551  0.4275
14647TIP3    H165432   4.399   5.903   3.530 -0.0038  0.7357 -0.2222
14647TIP3    H265433   4.252   5.934   3.518 -0.1947 -0.4598 -1.1606
14648TIP3   OH265434   5.721   1.024   3.266 -0.0993  0.2995  0.0920
14648TIP3    H165435   5.736   1.116   3.290 -1.0731  0.8173 -1.1487
14648TIP3    H265436   5.629   1.022   3.238 -0.4705 -1.3364  1.3032
14649TIP3   OH265437   5.738   0.558  11.863 -0.2161 -0.2456 -0.3337
14649TIP3    H165438   5.807   0.624  11.855 -0.3130 -0.0557  0.3427
14649TIP3    H265439   5.680   0.592  11.931 -1.3085 -0.1143 -1.2880
14650TIP3   OH265440   6.744   6.173  13.909  0.1600 -0.3452 -0.2915
14650TIP3    H165441   6.794   6.111  13.855  2.0528  0.2525  0.6824
14650TIP3    H265442   6.747   6.254  13.859  1.9561  0.2216  0.6570
14651TIP3   OH265443   0.888   2.678   4.724 -0.2359  0.4861 -0.0081
14651TIP3    H165444   0.805   2.681   4.677 -1.5155  0.2223  2.1076
14651TIP3    H265445   0.947   2.629   4.666 -1.3326  1.1967 -1.8127
14652TIP3   OH265446   6.627   3.093   0.248  0.4533 -0.0041 -0.6403
14652TIP3    H165447   6.616   3.188   0.243  0.7785  0.0734 -0.0152
14652TIP3    H265448   6.539   3.058   0.242  0.1645  0.4282  0.7729
14653TIP3   OH265449   0.272   1.892  11.085  0.5869 -0.2080 -0.1461
14653TIP3    H165450   0.277   1.856  10.997 -1.4198 -0.7008 -0.1194
14653TIP3    H265451   0.205   1.960  11.080  1.3375  0.6274  0.7340
14654TIP3   OH265452   4.728   1.446   3.665  0.3396  0.3128 -0.0033
14654TIP3    H165453   4.695   1.525   3.708  2.0402  0.1039  1.8260
14654TIP3    H265454   4.819   1.468   3.642  0.5476 -0.8215 -0.3002
14655TIP3   OH265455   6.487   3.089  14.002 -0.2036 -0.3680 -0.7747
14655TIP3    H165456   6.581   3.079  13.995 -0.2546 -0.2557 -1.8114
14655TIP3    H265457   6.457   3.007  14.042  0.2430 -0.8044 -1.3110
14656TIP3   OH265458   3.334   3.027  17.048  0.1783  0.0230  0.3370
14656TIP3    H165459   3.402   3.079  17.091  0.2793 -0.6863  1.0634
14656TIP3    H265460   3.258   3.037  17.104 -1.4110  3.3920 -2.0525
14657TIP3   OH265461   0.202   3.870   0.391  0.1235 -0.5088  0.0120
14657TIP3    H165462   0.197   3.957   0.350  1.6649  0.1754  1.1729
14657TIP3    H265463   0.111   3.842   0.398 -0.3190  0.4163 -1.6133
14658TIP3   OH265464   2.141   5.589  15.075  0.2981  0.4386 -0.3467
14658TIP3    H165465   2.194   5.517  15.042  0.7726 -0.4770  2.1404
14658TIP3    H265466   2.056   5.577  15.034  0.1946 -1.9400  0.4052
14659TIP3   OH265467   4.403   6.366   0.697 -0.2784  0.6342 -0.4130
14659TIP3    H165468   4.375   6.275   0.712 -2.7786  1.5436  1.0607
14659TIP3    H265469   4.358   6.392   0.617  0.4407  0.5977 -0.8375
14660TIP3   OH265470   3.932   2.503   0.174 -0.0394 -0.0355 -0.3609
14660TIP3    H165471   3.881   2.444   0.119  1.0852  0.0956 -1.6229
14660TIP3    H265472   3.980   2.558   0.111  0.9086  0.4691  0.7622
14661TIP3   OH265473   1.318   0.351   5.466 -0.1630  0.2225  0.1306
14661TIP3    H165474   1.247   0.312   5.517 -1.1649  0.5609 -0.9578
14661TIP3    H265475   1.344   0.284   5.404  1.0648 -0.1926  1.0516
14662TIP3   OH265476   3.398   6.637  13.526  0.1536 -0.6504  0.2366
14662TIP3    H165477   3.483   6.633  13.481 -0.2647  1.3983 -0.8641
14662TIP3    H265478   3.397   6.724  13.567 -0.3640 -1.6641  2.5002
14663TIP3   OH265479   2.363   2.569  11.415 -0.1077  0.4474  0.5097
14663TIP3    H165480   2.277   2.606  11.433  0.2163  0.6242  1.7634
14663TIP3    H265481   2.360   2.546  11.322 -2.3604 -1.8125  1.0413
14664TIP3   OH265482   6.775   0.122   2.410  0.1321 -0.5136  0.9443
14664TIP3    H165483   6.777   0.146   2.318 -0.5992  0.5379  1.1873
14664TIP3    H265484   6.841   0.179   2.451  1.0053 -1.5086  0.9727
14665TIP3   OH265485   1.245   0.368   5.822 -0.1213 -0.6522  0.4635
14665TIP3    H165486   1.278   0.436   5.763 -2.1879 -1.8436 -2.3279
14665TIP3    H265487   1.301   0.292   5.804  1.2928 -0.1684  2.5367
14666TIP3   OH265488   0.385   3.730  12.939 -0.1953  0.4021 -0.1405
14666TIP3    H165489   0.318   3.678  12.896  0.1352 -0.5106  0.4217
14666TIP3    H265490   0.457   3.669  12.955  0.6000  1.2580 -0.3415
14667TIP3   OH265491   2.186   3.151   1.879 -0.1466  0.1064  0.2051
14667TIP3    H165492   2.110   3.201   1.851 -1.2464 -1.1870  0.7988
14667TIP3    H265493   2.169   3.129   1.971  0.4702 -1.0140  0.0769
14668TIP3   OH265494   4.193   4.580   0.859  0.1085 -0.4291 -0.2018
14668TIP3    H165495   4.232   4.492   0.857  1.1920  0.0453 -2.6379
14668TIP3    H265496   4.239   4.629   0.792 -1.9909  1.3927 -0.4420
14669TIP3   OH265497   1.944   1.437   0.983 -0.5049 -0.0197  0.2533
14669TIP3    H165498   2.021   1.407   1.030  0.8196  2.0874 -0.4397
14669TIP3    H265499   1.925   1.367   0.920  2.1667  0.3054 -1.0246
14670TIP3   OH265500   0.997   1.654   5.329 -0.5752  0.2878 -0.0508
14670TIP3    H165501   1.042   1.733   5.358  0.1243 -0.2905  0.5001
14670TIP3    H265502   0.904   1.679   5.324 -0.5626  0.7571  1.5457
14671TIP3   OH265503   6.124   3.231  13.091  0.2003 -0.2245  0.0867
14671TIP3    H165504   6.164   3.197  13.011  0.1224 -1.5409  0.5771
14671TIP3    H265505   6.031   3.212  13.082  0.2453 -0.7379  0.6483
14672TIP3   OH265506   2.965   6.432  11.003  0.1626 -0.3499  0.4068
14672TIP3    H165507   2.906   6.476  10.942  0.2601  1.7671  1.7449
14672TIP3    H265508   3.049   6.428  10.957  0.4807  2.0649  0.6612
14673TIP3   OH265509   1.807   3.070   0.266 -0.0776 -0.0474  0.3229
14673TIP3    H165510   1.761   3.076   0.349  0.1099 -0.2465  0.4431
14673TIP3    H265511   1.892   3.109   0.283  0.4187 -1.1925  0.5714
14674TIP3   OH265512   3.954   2.030   4.032 -0.7156 -0.6298  0.0546
14674TIP3    H165513   3.874   2.062   3.989 -2.6469  0.0262  3.7197
14674TIP3    H265514   3.927   2.013   4.122  2.8711 -2.4307  0.9559
14675TIP3   OH265515   2.909   6.776  11.394 -0.1651 -0.0135 -0.3965
14675TIP3    H165516   2.963   6.734  11.460 -1.7668  1.4701  2.0458
14675TIP3    H265517   2.832   6.808  11.443 -2.0572  0.1195 -3.2168
14676TIP3   OH265518   4.887   5.131  16.782  0.1140  0.2302  0.5906
14676TIP3    H165519   4.868   5.053  16.730  1.2282 -0.4851  1.2064
14676TIP3    H265520   4.809   5.143  16.836  0.6062 -1.5743  1.8005
14677TIP3   OH265521   4.266   5.982   1.185 -0.1054 -0.0813 -0.2923
14677TIP3    H165522   4.188   6.027   1.216  0.6583  0.9369  0.1846
14677TIP3    H265523   4.330   5.991   1.256  0.3629 -1.1543 -0.5486
14678TIP3   OH265524   4.204   1.631  12.554  0.8472 -0.3148 -0.9383
14678TIP3    H165525   4.258   1.566  12.599  0.3752  0.3151  0.6067
14678TIP3    H265526   4.135   1.653  12.617 -0.7216 -0.4448 -2.5108
14679TIP3   OH265527   1.250   6.831  11.461  0.1936  0.1632  0.1876
14679TIP3    H165528   1.243   6.801  11.370 -0.2940 -0.3383  0.3820
14679TIP3    H265529   1.174   6.793  11.505  1.7575 -1.7469  1.4046
14680TIP3   OH265530   5.249   1.545   1.991 -0.5284 -0.0241 -0.2489
14680TIP3    H165531   5.157   1.563   1.971 -0.1958  0.9430 -0.9689
14680TIP3    H265532   5.288   1.631   2.004  0.7097 -0.2859 -1.9420
14681TIP3   OH265533   6.554   1.634  15.896 -0.4575  0.1079 -0.6221
14681TIP3    H165534   6.614   1.666  15.829  1.4185  0.1036  0.9718
14681TIP3    H265535   6.592   1.662  15.978 -2.4898 -0.2236  0.5106
14682TIP3   OH265536   4.217   0.273  12.224 -0.2247 -0.4124 -0.1778
14682TIP3    H165537   4.169   0.355  12.212  0.9816  0.5127  1.0597
14682TIP3    H265538   4.159   0.219  12.277 -0.7258 -0.0980 -0.3910
14683TIP3   OH265539   3.623   2.320  14.041 -0.2302 -0.2635 -0.4762
14683TIP3    H165540   3.679   2.385  14.084 -0.7451 -1.0167  1.4305
14683TIP3    H265541   3.683   2.248  14.021 -0.1912 -0.3608 -0.0164
14684TIP3   OH265542   2.766   2.243  15.738  0.2468  0.3602  0.5276
14684TIP3    H165543   2.752   2.195  15.819 -0.2867 -1.1924 -0.4467
14684TIP3    H265544   2.799   2.178  15.676  3.0763  1.9879  0.1231
14685TIP3   OH265545   4.903   6.369   2.827 -0.2077  0.1869  0.0379
14685TIP3    H165546   4.992   6.401   2.811 -0.4535  0.6021 -0.5511
14685TIP3    H265547   4.847   6.444   2.808 -0.7253 -0.2591 -0.2235
14686TIP3   OH265548   0.363   6.022  12.574 -0.1331 -0.2133 -0.3288
14686TIP3    H165549   0.299   6.019  12.645  1.3750  0.3860  1.1240
14686TIP3    H265550   0.370   6.115  12.553  1.4451 -0.0573  0.7097
14687TIP3   OH265551   5.487   4.144   5.896 -0.5842 -0.3225 -0.7595
14687TIP3    H165552   5.573   4.112   5.924 -0.8702  0.2444  0.8398
14687TIP3    H265553   5.429   4.068   5.903 -0.9351  0.0939  1.5628
14688TIP3   OH265554   5.856   5.916  12.793 -0.3485  0.0543 -0.1484
14688TIP3    H165555   5.890   5.981  12.854 -2.9805 -0.8856  2.6152
14688TIP3    H265556   5.813   5.967  12.724  1.3916  1.1603 -0.4659
14689TIP3   OH265557   6.644   3.101   3.184  0.1191  0.1474  0.1482
14689TIP3    H165558   6.581   3.108   3.257 -0.8393 -0.2985 -0.6078
14689TIP3    H265559   6.648   3.007   3.166 -3.4002  0.4157 -3.4340
14690TIP3   OH265560   5.557   5.138   1.158 -0.4408 -0.3181 -0.0257
14690TIP3    H165561   5.536   5.224   1.196 -1.8666 -0.9803  0.7518
14690TIP3    H265562   5.573   5.082   1.234 -0.9485 -1.0753 -0.4720
14691TIP3   OH265563   2.542   6.610  14.565 -0.2975 -0.3471  0.8430
14691TIP3    H165564   2.627   6.642  14.595  0.1339  0.8206 -1.4035
14691TIP3    H265565   2.479   6.674  14.600  0.2625  1.3745 -1.0616
14692TIP3   OH265566   1.629   1.163   2.564 -0.1839 -0.2421 -0.1182
14692TIP3    H165567   1.624   1.123   2.651 -0.1228 -0.2906 -0.1369
14692TIP3    H265568   1.698   1.114   2.519  0.8048  0.7328  0.2992
14693TIP3   OH265569   6.782   2.239  13.466 -0.0943 -0.0641  0.3095
14693TIP3    H165570   6.766   2.266  13.376 -2.0778 -1.6131  0.1440
14693TIP3    H265571   6.836   2.160  13.458 -0.0974 -0.0860  0.4943
14694TIP3   OH265572   2.581   6.156   4.922 -0.2234 -0.5320  0.0581
14694TIP3    H165573   2.534   6.078   4.952 -1.7693 -0.2209 -1.4513
14694TIP3    H265574   2.519   6.228   4.936  0.3768  0.1180 -0.5815
14695TIP3   OH265575   2.015   0.737   0.299 -0.2526 -0.7647  0.1908
14695TIP3    H165576   2.029   0.796   0.225 -0.3919 -0.3298  0.5011
14695TIP3    H265577   1.967   0.791   0.363  1.5756 -0.5126  1.4140
14696TIP3   OH265578   1.611   5.633  11.166 -0.4862 -0.4974 -0.3810
14696TIP3    H165579   1.631   5.689  11.242 -1.2221 -0.9875  0.1846
14696TIP3    H265580   1.670   5.558  11.175  0.3875  0.0756 -1.0532
14697TIP3   OH265581   6.030   1.437   2.890  0.4815 -0.2655  0.0827
14697TIP3    H165582   6.117   1.472   2.908  0.9028 -1.7941  1.1803
14697TIP3    H265583   6.019   1.365   2.951 -1.6481 -0.0101  0.0969
14698TIP3   OH265584   3.530   2.936  14.106 -0.0994  0.0842 -0.4732
14698TIP3    H165585   3.501   2.856  14.062  1.5730 -0.3299 -0.8997
14698TIP3    H265586   3.456   2.961  14.162 -0.2023 -2.5159  0.7038
14699TIP3   OH265587   3.943   2.571  15.395 -0.4101  0.2512 -0.3302
14699TIP3    H165588   3.887   2.621  15.454  0.1322  0.8224 -0.2971
14699TIP3    H265589   4.002   2.636  15.356  1.1836 -0.5225  0.6946
14700TIP3   OH265590   5.575   4.760  14.593  0.1244  0.0377 -0.1677
14700TIP3    H165591   5.534   4.825  14.650 -0.0504 -0.0067 -0.2447
14700TIP3    H265592   5.575   4.801  14.507  2.9891  1.3388  0.3344
14701TIP3   OH265593   5.643   5.985  11.705 -0.1824 -0.6266 -0.3387
14701TIP3    H165594   5.672   6.058  11.759 -2.5498 -0.4773  0.8656
14701TIP3    H265595   5.618   6.026  11.622  0.2357 -0.3307 -0.3198
14702TIP3   OH265596   4.662   3.148  15.293  0.2928 -0.4887  0.0418
14702TIP3    H165597   4.712   3.068  15.276  2.5477  1.1794 -1.7682
14702TIP3    H265598   4.598   3.152  15.221  1.1337  0.0116 -0.6961
14703TIP3   OH265599   1.661   6.333   4.926 -0.2850  0.8126 -0.5050
14703TIP3    H165600   1.587   6.377   4.968  0.6110  3.1663 -1.2305
14703TIP3    H265601   1.636   6.327   4.834 -0.6693 -0.9149 -0.3271
14704TIP3   OH265602   5.560   5.562  13.597 -0.0515  0.1589  0.3869
14704TIP3    H165603   5.594   5.518  13.675 -0.3248 -2.3274 -0.7893
14704TIP3    H265604   5.469   5.583  13.619 -0.0489 -0.2805  0.8554
14705TIP3   OH265605   6.241   3.561   1.270 -0.0163 -0.4222 -0.6227
14705TIP3    H165606   6.264   3.651   1.293  1.4360 -0.8406 -0.3247
14705TIP3    H265607   6.240   3.560   1.174  0.6913 -0.2414 -0.6374
14706TIP3   OH265608   0.969   2.323  13.620 -0.2630  0.7711  0.1728
14706TIP3    H165609   1.026   2.398  13.635  0.0966  0.2120  1.8221
14706TIP3    H265610   1.028   2.252  13.594 -0.2388  0.3405  1.3395
14707TIP3   OH265611   5.224   4.781  12.082  0.0611  0.3407  0.0386
14707TIP3    H165612   5.157   4.767  12.016  1.6521  0.7537 -1.7454
14707TIP3    H265613   5.255   4.870  12.067  2.5519 -0.5682 -0.7228
14708TIP3   OH265614   0.507   3.488  12.686  0.3153 -0.8121  0.1252
14708TIP3    H165615   0.548   3.469  12.770  2.0872  1.7705 -0.0253
14708TIP3    H265616   0.554   3.434  12.623  2.0358  0.4167  0.2821
14709TIP3   OH265617   0.032   6.780   0.166 -0.3448  0.1285 -0.4013
14709TIP3    H165618   0.104   6.790   0.105  1.4186 -0.1245  1.5404
14709TIP3    H265619   0.009   6.870   0.192  1.6061  0.1596  1.4867
14710TIP3   OH265620   6.155   4.690   4.980 -0.6625  0.0699  0.2541
14710TIP3    H165621   6.134   4.682   4.887  0.7973  0.5522 -0.1417
14710TIP3    H265622   6.180   4.601   5.006 -2.6964 -0.4267  0.6361
14711TIP3   OH265623   2.085   4.730  11.316 -0.3307 -0.4813 -0.2841
14711TIP3    H165624   2.024   4.673  11.268 -2.4126  1.3964 -0.0333
14711TIP3    H265625   2.119   4.675  11.386 -1.8252 -1.5992 -0.3888
14712TIP3   OH265626   5.124   3.668   0.831  0.4939 -0.4509  0.2981
14712TIP3    H165627   5.172   3.586   0.816  0.5113 -0.1179 -1.8120
14712TIP3    H265628   5.045   3.659   0.778  1.0644  1.3426 -0.9651
14713TIP3   OH265629   2.128   3.574  15.740 -0.1319  0.3317 -0.4455
14713TIP3    H165630   2.124   3.559  15.646 -0.5724 -0.9272 -0.2475
14713TIP3    H265631   2.076   3.654  15.754 -3.1830 -1.4062 -0.9093
14714TIP3   OH265632   2.693   0.998  16.527 -0.0597  0.0329 -0.0601
14714TIP3    H165633   2.691   0.910  16.563  0.9752  0.4987  1.2174
14714TIP3    H265634   2.715   0.986  16.435  1.7458 -1.0003  0.4458
14715TIP3   OH265635   1.666   2.924  13.762  0.0870  0.1785  0.0271
14715TIP3    H165636   1.575   2.939  13.788  0.0948 -0.7034  0.6171
14715TIP3    H265637   1.660   2.892  13.672 -0.2373 -0.3382  0.2245
14716TIP3   OH265638   5.749   2.737   5.549 -0.0882  0.5422 -0.4627
14716TIP3    H165639   5.753   2.832   5.538  0.8391  0.5042 -0.5354
14716TIP3    H265640   5.781   2.722   5.638  1.9464  0.1676 -1.1911
14717TIP3   OH265641   0.550   3.696  15.448  0.2006 -0.4043  0.5090
14717TIP3    H165642   0.518   3.644  15.375 -0.5027  0.1680  0.3891
14717TIP3    H265643   0.525   3.786  15.426  0.2247 -0.1887  1.3206
14718TIP3   OH265644   2.865   4.885   1.009 -0.5318 -0.2251 -0.2294
14718TIP3    H165645   2.833   4.800   1.038 -1.1185  0.1231  0.1684
14718TIP3    H265646   2.837   4.892   0.918  0.2851 -0.8185 -0.5434
14719TIP3   OH265647   4.776   0.417  13.483  0.0268 -0.6619 -0.3794
14719TIP3    H165648   4.769   0.397  13.390  2.6665 -0.9481 -0.6044
14719TIP3    H265649   4.775   0.513  13.487 -1.9215 -0.6386 -0.4489
14720TIP3   OH265650   0.171   2.418  10.584 -0.4211 -0.0883 -0.6572
14720TIP3    H165651   0.097   2.357  10.593 -1.8272  0.9451 -3.7770
14720TIP3    H265652   0.248   2.362  10.581 -1.1073 -1.2769  1.6965
14721TIP3   OH265653   6.282   3.739   2.518  0.1725  0.5352  0.1227
14721TIP3    H165654   6.365   3.713   2.478  0.5116  0.5299  0.8251
14721TIP3    H265655   6.276   3.834   2.502 -0.0365  0.4140 -0.5538
14722TIP3   OH265656   1.395   3.264  16.764  0.1501 -0.0743  0.2043
14722TIP3    H165657   1.489   3.250  16.752  0.1726  1.4595 -2.0533
14722TIP3    H265658   1.355   3.232  16.683 -0.9428  1.7113 -0.0186
14723TIP3   OH265659   5.761   3.404  10.892 -0.0652  0.4118  0.6450
14723TIP3    H165660   5.809   3.479  10.855  0.5609  0.3369  1.2875
14723TIP3    H265661   5.827   3.356  10.942 -0.2506 -1.0773 -0.4822
14724TIP3   OH265662   4.200   6.056  12.042 -0.1830 -0.1767 -0.1416
14724TIP3    H165663   4.182   5.962  12.043 -1.2894  0.0210  0.3058
14724TIP3    H265664   4.289   6.063  12.007 -0.3367 -1.3453 -0.8450
14725TIP3   OH265665   1.995   2.221  12.070  0.0221  0.2451  0.9333
14725TIP3    H165666   2.018   2.281  12.000  0.0550  1.4953  1.9888
14725TIP3    H265667   2.004   2.272  12.150 -0.4761 -1.0112  1.8278
14726TIP3   OH265668   1.651   5.912  14.702 -0.1816 -0.0523 -0.3992
14726TIP3    H165669   1.694   5.991  14.670 -0.8937  0.7814  0.6066
14726TIP3    H265670   1.558   5.936  14.709 -0.1699 -0.3951  1.5226
14727TIP3   OH265671   2.241   0.129   4.872  0.2794 -0.4031  0.4748
14727TIP3    H165672   2.242   0.057   4.809  0.2674 -0.0271  0.0350
14727TIP3    H265673   2.238   0.087   4.958 -0.9005 -0.9130  0.2017
14728TIP3   OH265674   4.079   4.209  11.508 -0.1236 -0.1126  0.2348
14728TIP3    H165675   4.131   4.273  11.557 -0.9626  0.4041  0.4874
14728TIP3    H265676   4.096   4.229  11.416  1.7306 -1.3081  0.2897
14729TIP3   OH265677   3.130   5.279   5.009 -0.5516 -0.4508 -0.7749
14729TIP3    H165678   3.166   5.320   5.088 -0.5533 -2.7664  0.5189
14729TIP3    H265679   3.171   5.326   4.937  0.3435  0.9959  0.6060
14730TIP3   OH265680   2.318   2.810   3.400  0.1285  0.1488 -0.5173
14730TIP3    H165681   2.255   2.875   3.428 -0.8451 -1.3223  0.8730
14730TIP3    H265682   2.310   2.809   3.304  0.0916  1.9363 -0.5682
14731TIP3   OH265683   6.579   1.636   4.136 -0.1409 -0.7683  0.0922
14731TIP3    H165684   6.663   1.596   4.114  0.0020 -0.5219  0.1819
14731TIP3    H265685   6.585   1.656   4.229  0.1027  0.1836 -0.1086
14732TIP3   OH265686   1.390   2.989  11.685  0.3941 -0.0378  0.7552
14732TIP3    H165687   1.432   3.025  11.763  0.8927  2.6112 -0.6094
14732TIP3    H265688   1.296   3.004  11.699  0.6186  2.8562 -0.1109
14733TIP3   OH265689   2.954   4.049   1.784 -0.1918  0.2266  0.0560
14733TIP3    H165690   3.027   4.110   1.792  0.6229 -0.6489 -0.5245
14733TIP3    H265691   2.995   3.963   1.778 -1.2217 -0.2144 -1.2092
14734TIP3   OH265692   0.715   2.848   0.119 -0.1031 -0.1355 -0.3145
14734TIP3    H165693   0.695   2.905   0.044  1.0317 -0.6230 -1.0242
14734TIP3    H265694   0.809   2.862   0.134 -0.1756 -0.5746  0.5736
14735TIP3   OH265695   1.032   5.605   3.230 -0.1633 -0.1328  0.2347
14735TIP3    H165696   1.062   5.691   3.203 -1.9066  0.4670  0.0797
14735TIP3    H265697   0.997   5.565   3.151  1.1621 -1.2571  0.1749
14736TIP3   OH265698   2.003   0.038  13.603 -0.8349  0.3373  0.2953
14736TIP3    H165699   1.920   0.071  13.638 -0.9962  0.8365 -0.5127
14736TIP3    H265700   1.995   0.052  13.509  0.2668  0.6228  0.2347
14737TIP3   OH265701   6.063   2.559  16.972  0.6561 -0.0368 -0.5878
14737TIP3    H165702   6.155   2.545  16.996  0.5743 -1.6500 -1.1188
14737TIP3    H265703   6.020   2.581  17.054  1.0309 -1.9906  0.1757
14738TIP3   OH265704   1.639   3.876  13.596  0.1486 -0.2522  0.3964
14738TIP3    H165705   1.552   3.917  13.603  0.8402  1.5850 -0.9150
14738TIP3    H265706   1.683   3.899  13.678  0.4184  1.4558 -0.1926
14739TIP3   OH265707   5.436   4.910   3.086 -0.2018  0.0248 -0.0633
14739TIP3    H165708   5.508   4.889   3.146 -0.2787 -0.9062 -0.2819
14739TIP3    H265709   5.458   4.864   3.005 -0.9073 -0.0539 -0.2143
14740TIP3   OH265710   5.802   1.656  11.181 -0.3094  0.4958  0.0995
14740TIP3    H165711   5.768   1.609  11.256  0.3367 -0.7934 -0.3717
14740TIP3    H265712   5.890   1.683  11.207  0.4550 -1.1429 -0.6075
14741TIP3   OH265713   6.246   5.362  14.707 -0.2546 -0.5089 -0.3787
14741TIP3    H165714   6.168   5.353  14.763  0.7115 -1.0913  0.9132
14741TIP3    H265715   6.287   5.443  14.736  0.2630 -0.8247 -0.2246
14742TIP3   OH265716   2.755   5.741   4.785 -0.5543 -0.0668  0.2711
14742TIP3    H165717   2.728   5.660   4.742 -0.3944  0.2030 -0.3637
14742TIP3    H265718   2.847   5.750   4.763 -0.3296 -0.2052  1.1521
14743TIP3   OH265719   0.872   5.056   6.413  0.6083  0.0722 -0.0145
14743TIP3    H165720   0.822   5.134   6.385 -1.3845 -1.0303  0.2643
14743TIP3    H265721   0.908   5.081   6.498 -0.1351  0.6623  0.1448
14744TIP3   OH265722   1.562   1.340   1.369  0.1697  0.2194  0.2483
14744TIP3    H165723   1.655   1.331   1.386  0.1703  1.3000  0.9414
14744TIP3    H265724   1.554   1.331   1.274  1.0509  0.6444  0.1246
14745TIP3   OH265725   3.117   3.143  16.817  0.3328 -0.0189  0.6513
14745TIP3    H165726   3.160   3.205  16.876  1.9730  0.7779 -1.2542
14745TIP3    H265727   3.180   3.071  16.808 -0.6496 -0.9726  1.2049
14746TIP3   OH265728   4.336   3.395  11.991 -1.1339  0.0407  0.2107
14746TIP3    H165729   4.381   3.469  12.032  2.2308 -1.7491  0.0266
14746TIP3    H265730   4.365   3.396  11.900 -1.6926 -1.0497  0.0043
14747TIP3   OH265731   2.425   1.589  13.128  0.5129 -0.2032 -0.2880
14747TIP3    H165732   2.371   1.606  13.205 -0.7235  0.5674 -1.2778
14747TIP3    H265733   2.370   1.533  13.073  1.8058 -1.6754 -0.1637
14748TIP3   OH265734   3.168   1.389  13.105 -0.2284 -0.1674 -0.1042
14748TIP3    H165735   3.093   1.399  13.164  0.9571 -1.7766  1.8191
14748TIP3    H265736   3.189   1.296  13.109  1.9886  0.2693 -0.4343
14749TIP3   OH265737   0.128   6.109   2.586  0.4053  0.2920 -0.1897
14749TIP3    H165738   0.208   6.102   2.535  1.3443  1.8969  0.9902
14749TIP3    H265739   0.059   6.123   2.521  0.9047 -1.8729 -1.2822
14750TIP3   OH265740   2.067   2.622   3.099  0.2377  0.1592  0.2069
14750TIP3    H165741   2.118   2.697   3.128 -0.5440  0.1640  1.6691
14750TIP3    H265742   2.127   2.547   3.107  1.2174  0.6662 -1.8547
14751TIP3   OH265743   0.416   1.105  15.899  0.1460  0.7140 -0.0073
14751TIP3    H165744   0.468   1.185  15.907 -1.2989  1.5764  1.3613
14751TIP3    H265745   0.467   1.039  15.944  1.4359  0.7774 -1.2876
14752TIP3   OH265746   3.042   0.970   6.648  0.0624  0.3077 -0.3158
14752TIP3    H165747   3.017   0.995   6.559  0.7858  1.6520 -0.1786
14752TIP3    H265748   2.994   0.890   6.665  0.4164 -0.3577 -2.1634
14753TIP3   OH265749   6.632   5.326  12.889 -0.4381  0.0286 -0.1235
14753TIP3    H165750   6.613   5.399  12.947 -3.6165  0.3053 -1.2882
14753TIP3    H265751   6.627   5.248  12.944  1.2242  0.5303  0.7848
14754TIP3   OH265752   2.851   1.103  15.099 -0.4558 -0.0103 -0.0715
14754TIP3    H165753   2.769   1.106  15.148  0.3514  0.5639  1.2945
14754TIP3    H265754   2.920   1.115  15.165  0.6806  0.8440 -1.3479
14755TIP3   OH265755   2.322   5.436   0.990  0.4562  0.7524  0.1022
14755TIP3    H165756   2.363   5.502   0.935 -0.1235  1.7866  0.8749
14755TIP3    H265757   2.228   5.446   0.973  0.4197 -1.6351 -1.7161
14756TIP3   OH265758   1.666   3.093   4.679 -0.6264  0.2050  0.9995
14756TIP3    H165759   1.577   3.107   4.648 -0.0721  1.3629 -0.1284
14756TIP3    H265760   1.716   3.075   4.600  1.0993  4.5825  0.8165
14757TIP3   OH265761   4.503   5.605  12.851 -0.2030 -0.0281  0.2689
14757TIP3    H165762   4.426   5.551  12.834 -0.3237  0.0068  0.6829
14757TIP3    H265763   4.476   5.662  12.923 -0.1614  0.7705 -0.3413
14758TIP3   OH265764   5.832   0.119  12.674 -0.0191  0.8302 -0.0666
14758TIP3    H165765   5.761   0.084  12.727  0.5769 -2.7600 -1.3308
14758TIP3    H265766   5.912   0.091  12.719  0.4892 -0.7725 -1.8067
14759TIP3   OH265767   6.833   5.363  13.142 -0.6554 -0.2787 -0.3520
14759TIP3    H165768   6.846   5.371  13.236  2.1052 -0.0141 -0.6654
14759TIP3    H265769   6.868   5.445  13.106  2.0331 -1.8972 -1.7752
14760TIP3   OH265770   6.035   4.383   3.137  0.3000 -0.6816 -0.0370
14760TIP3    H165771   5.961   4.437   3.164  0.6097  1.8135 -3.5372
14760TIP3    H265772   6.031   4.307   3.195 -4.4649 -0.3200  0.5037
14761TIP3   OH265773   2.786   3.809   4.249 -0.2108  0.5943 -0.2475
14761TIP3    H165774   2.854   3.870   4.219  1.6699 -0.4897  1.5838
14761TIP3    H265775   2.740   3.857   4.317  0.6491  0.3371  0.5329
14762TIP3   OH265776   5.657   0.680  10.463  0.4735  0.5961  0.1188
14762TIP3    H165777   5.740   0.723  10.443 -0.6499  2.5360 -0.6422
14762TIP3    H265778   5.599   0.752  10.488 -0.8941 -0.7515  0.9512
14763TIP3   OH265779   5.286   2.247   1.094 -0.1495 -0.1529 -0.3977
14763TIP3    H165780   5.358   2.309   1.080  0.5933 -0.7851  0.4775
14763TIP3    H265781   5.324   2.161   1.076 -0.4912 -0.5467  0.6649
14764TIP3   OH265782   2.201   3.167   4.030 -0.2942  0.6479 -0.2463
14764TIP3    H165783   2.296   3.172   4.016  0.3353 -1.3597  2.4950
14764TIP3    H265784   2.180   3.075   4.020 -2.1709  1.1660 -1.5904
14765TIP3   OH265785   2.335   0.624  11.350  0.2742 -0.6463 -0.4031
14765TIP3    H165786   2.417   0.631  11.398 -0.0844  0.5824  0.0601
14765TIP3    H265787   2.268   0.614  11.417 -0.0118 -1.0833 -0.7501
14766TIP3   OH265788   1.622   1.771  12.504 -0.7672  0.1963 -0.1660
14766TIP3    H165789   1.593   1.691  12.547  2.1203 -0.2256  1.2577
14766TIP3    H265790   1.590   1.842  12.560  0.6705 -0.2434  1.2874
14767TIP3   OH265791   6.439   5.219   6.062 -0.4704 -0.7585 -0.2234
14767TIP3    H165792   6.515   5.175   6.023 -0.0286  0.1585 -0.4463
14767TIP3    H265793   6.477   5.277   6.128 -1.1956 -2.2534  1.6125
14768TIP3   OH265794   0.081   4.271   5.259  0.4346  0.3231  0.3633
14768TIP3    H165795   0.066   4.366   5.254  2.1885  0.6784  0.9139
14768TIP3    H265796   0.141   4.261   5.332  0.4778 -1.2001  0.1362
14769TIP3   OH265797   3.633   5.950  14.157  0.2728  0.4590 -0.2022
14769TIP3    H165798   3.622   5.908  14.071  0.0519 -0.0217  0.0565
14769TIP3    H265799   3.603   5.884  14.219 -0.9780  1.3455  0.1690
14770TIP3   OH265800   6.624   1.953  11.619  0.1481 -0.0964  0.1982
14770TIP3    H165801   6.689   1.883  11.608  0.1202 -0.0240 -0.5033
14770TIP3    H265802   6.674   2.029  11.649  0.3844 -0.0481 -0.3146
14771TIP3   OH265803   2.940   0.464   4.013 -0.3506 -0.7309  0.3997
14771TIP3    H165804   3.011   0.423   4.062  0.6467  0.4460  0.0032
14771TIP3    H265805   2.925   0.405   3.939  2.4958  0.5056 -1.3294
14772TIP3   OH265806   5.479   5.394  13.277  0.1870 -0.2624 -0.2879
14772TIP3    H165807   5.494   5.351  13.192  1.4974  1.2725 -0.8979
14772TIP3    H265808   5.389   5.425  13.273  0.2347 -0.2011 -1.1494
14773TIP3   OH265809   1.691   0.256   5.173  0.0283 -0.5227 -0.3223
14773TIP3    H165810   1.604   0.297   5.173 -0.3713 -1.3250  1.0315
14773TIP3    H265811   1.673   0.163   5.187  1.1458 -0.5911  0.8159
14774TIP3   OH265812   6.493   6.214   5.288 -0.1412 -0.2292  0.2825
14774TIP3    H165813   6.458   6.158   5.357  1.2942  1.2142  2.2801
14774TIP3    H265814   6.456   6.177   5.207 -3.3470 -0.9163  1.8749
14775TIP3   OH265815   2.893   5.648  11.511 -0.4449 -0.0978  0.1873
14775TIP3    H165816   2.909   5.739  11.536 -0.1379 -0.0985 -0.0120
14775TIP3    H265817   2.805   5.630  11.544 -0.6329  0.3673 -0.0530
14776TIP3   OH265818   5.230   4.091  16.949  0.7162  0.3163  0.5565
14776TIP3    H165819   5.295   4.139  16.897  1.5438  0.1947  1.4519
14776TIP3    H265820   5.180   4.160  16.992 -1.3036  0.5132 -1.8548
14777TIP3   OH265821   3.210   3.332   5.353 -0.5692 -0.4259 -0.2720
14777TIP3    H165822   3.264   3.364   5.425  1.1644 -0.4398 -1.5163
14777TIP3    H265823   3.211   3.402   5.288 -1.3134 -0.7916 -0.6955
14778TIP3   OH265824   2.856   4.553   5.099  0.1307 -0.3831  0.3872
14778TIP3    H165825   2.886   4.473   5.056  0.0683 -0.6984  0.9190
14778TIP3    H265826   2.937   4.600   5.121  0.1715  1.1442 -2.5058
14779TIP3   OH265827   1.193   5.806   0.404 -0.3047 -0.0751 -0.4052
14779TIP3    H165828   1.287   5.791   0.408 -0.2391  0.3888 -0.1017
14779TIP3    H265829   1.166   5.813   0.496 -0.7526 -0.8793 -0.4585
14780TIP3   OH265830   6.014   5.980   0.752 -0.1084  0.1335  0.4819
14780TIP3    H165831   6.078   5.958   0.685 -0.1297  1.6119 -0.0696
14780TIP3    H265832   5.948   5.911   0.746  1.4609 -1.4951  1.1646
14781TIP3   OH265833   5.906   3.850   1.581 -0.5820  0.5691 -0.2620
14781TIP3    H165834   5.969   3.850   1.654 -1.3957  0.8947  0.4664
14781TIP3    H265835   5.917   3.936   1.540  0.0830  0.2738 -0.7126
14782TIP3   OH265836   5.834   4.316  16.495 -0.3560  0.5100  0.9619
14782TIP3    H165837   5.816   4.223  16.483 -0.4419  0.4459  1.5297
14782TIP3    H265838   5.927   4.326  16.477 -0.7820  0.7352 -1.4326
14783TIP3   OH265839   5.089   0.071  15.147  0.6693 -0.1016 -0.4259
14783TIP3    H165840   5.055   0.099  15.232 -1.8580 -0.4059 -1.2751
14783TIP3    H265841   5.014   0.074  15.088  1.7475 -2.4329 -2.0656
14784TIP3   OH265842   0.346   5.363   4.642  0.6149 -0.2532  0.1524
14784TIP3    H165843   0.421   5.389   4.589  0.2683 -0.0896 -0.2644
14784TIP3    H265844   0.333   5.271   4.622  0.9481 -0.3894  0.5328
14785TIP3   OH265845   3.952   0.104   3.334 -0.0991 -0.1931  0.0976
14785TIP3    H165846   4.036   0.058   3.335  0.3958  0.6439 -1.0786
14785TIP3    H265847   3.892   0.045   3.381  0.5408 -1.9636 -1.1992
14786TIP3   OH265848   0.237   4.589   5.702 -0.1264 -0.2500 -0.7369
14786TIP3    H165849   0.325   4.586   5.664  1.0366  0.7725  1.6759
14786TIP3    H265850   0.230   4.678   5.739 -1.4015 -0.9406  0.8042
14787TIP3   OH265851   5.646   6.660   3.945 -0.4607 -0.2544 -0.1001
14787TIP3    H165852   5.558   6.659   3.983  0.0190  0.6102  1.0835
14787TIP3    H265853   5.700   6.706   4.009  0.5882  0.4246 -1.4050
14788TIP3   OH265854   4.512   3.503   4.450 -0.5032 -0.3169  0.0364
14788TIP3    H165855   4.470   3.483   4.534 -2.1330  0.1632 -0.6202
14788TIP3    H265856   4.474   3.587   4.424  0.8361  0.0900 -0.6516
14789TIP3   OH265857   3.507   4.581   3.277  0.5689  0.3610  0.3238
14789TIP3    H165858   3.478   4.495   3.247  0.7597  0.6674 -0.7703
14789TIP3    H265859   3.484   4.583   3.370 -1.8227  0.1292 -0.1963
14790TIP3   OH265860   4.474   0.667   2.222  0.2555 -0.3302  0.0562
14790TIP3    H165861   4.386   0.681   2.256  0.9974  1.1860  1.5394
14790TIP3    H265862   4.492   0.744   2.168  1.0418 -0.0614  0.6699
14791TIP3   OH265863   0.448   4.372   2.224 -0.3120 -0.2282  0.6810
14791TIP3    H165864   0.478   4.418   2.146 -1.0254  1.8810  1.5698
14791TIP3    H265865   0.353   4.378   2.220 -0.3453  0.5216  2.0170
14792TIP3   OH265866   0.975   5.365  10.676 -0.2388 -0.1653  0.2554
14792TIP3    H165867   0.925   5.444  10.694 -3.1528 -1.9488  0.6715
14792TIP3    H265868   1.045   5.365  10.741 -2.2883  0.3875  2.6176
14793TIP3   OH265869   6.341   4.298   2.253 -0.2552 -0.2869 -0.3930
14793TIP3    H165870   6.285   4.343   2.316  0.5316  0.0395  0.0908
14793TIP3    H265871   6.418   4.273   2.304  0.4081  0.0081 -1.2328
14794TIP3   OH265872   2.881   3.290   4.996 -0.5357  0.1974  0.3472
14794TIP3    H165873   2.892   3.341   5.076 -0.2519 -0.8045  0.9632
14794TIP3    H265874   2.968   3.289   4.956 -0.3675 -0.4076  0.7162
14795TIP3   OH265875   5.305   1.563   3.262  0.2793 -0.0877  0.2376
14795TIP3    H165876   5.364   1.499   3.224  0.8274  1.2483 -1.2418
14795TIP3    H265877   5.245   1.511   3.316  2.1390 -1.5734  0.9794
14796TIP3   OH265878   6.234   1.882   1.285 -0.1539  0.0330  0.7610
14796TIP3    H165879   6.314   1.933   1.292 -0.7975  1.0551  0.8942
14796TIP3    H265880   6.204   1.894   1.195 -0.4411  0.1070  0.8628
14797TIP3   OH265881   5.302   2.962   0.817 -0.0235 -0.2072  0.3811
14797TIP3    H165882   5.369   3.017   0.858 -1.1076 -0.4645  2.6592
14797TIP3    H265883   5.350   2.888   0.781  1.0581  0.3856  0.5464
14798TIP3   OH265884   2.602   2.023  15.459  0.3092  0.6629  0.5202
14798TIP3    H165885   2.688   2.064  15.454  0.3831  0.7652  2.2860
14798TIP3    H265886   2.619   1.932  15.484 -0.0245  0.1915 -0.8248
14799TIP3   OH265887   4.438   5.328   4.254 -0.8662  0.3843  0.3198
14799TIP3    H165888   4.417   5.411   4.212 -0.7172 -0.0475 -0.6449
14799TIP3    H265889   4.532   5.331   4.269 -0.9917  0.7308  1.0670
14800TIP3   OH265890   0.644   2.381   4.643  0.2854  0.0084 -0.3016
14800TIP3    H165891   0.579   2.441   4.607 -0.9814 -1.4391 -0.5063
14800TIP3    H265892   0.624   2.377   4.737 -0.0720 -0.6189 -0.4041
14801TIP3   OH265893   3.470   1.674   3.230  0.6874 -0.6859 -0.4004
14801TIP3    H165894   3.460   1.624   3.311 -0.4149  0.0917 -0.0335
14801TIP3    H265895   3.562   1.661   3.205  1.0113 -1.0376  0.8997
14802TIP3   OH265896   5.863   1.158  15.103 -0.6725 -0.1083 -0.3309
14802TIP3    H165897   5.811   1.211  15.162 -0.0247  0.6009 -0.3738
14802TIP3    H265898   5.892   1.083  15.156 -1.9686 -0.6814 -0.3967
14803TIP3   OH265899   6.217   2.723   5.512 -0.5569 -0.1258 -0.0362
14803TIP3    H165900   6.164   2.645   5.493 -1.6362  0.2567  1.1921
14803TIP3    H265901   6.207   2.735   5.607  0.4270  0.9133 -0.0486
14804TIP3   OH265902   6.481   5.689   1.566 -1.0030  0.1827  0.2699
14804TIP3    H165903   6.576   5.675   1.563 -0.7423  1.1087  2.4212
14804TIP3    H265904   6.469   5.778   1.532 -1.2326 -0.2820 -0.9072
14805TIP3   OH265905   5.407   0.108  14.035 -0.3788  0.4995  0.4824
14805TIP3    H165906   5.394   0.202  14.018  1.6734  0.6697 -0.5535
14805TIP3    H265907   5.453   0.105  14.119  2.1036  0.7180 -0.7560
14806TIP3   OH265908   0.446   0.378   0.158 -0.3106  0.2225 -0.3108
14806TIP3    H165909   0.462   0.318   0.230 -0.5954  2.1776  1.4781
14806TIP3    H265910   0.380   0.439   0.191  1.9773  3.2575 -0.9254
14807TIP3   OH265911   4.807   6.130   4.243 -0.9971 -0.0195  0.0613
14807TIP3    H165912   4.757   6.076   4.304  1.0056 -0.8928  0.9848
14807TIP3    H265913   4.766   6.114   4.158 -3.0177  0.2301  0.9102
14808TIP3   OH265914   1.274   6.180  16.635  0.3611  0.1108  0.0359
14808TIP3    H165915   1.280   6.111  16.570 -0.6472 -0.2956  0.3542
14808TIP3    H265916   1.213   6.244  16.597 -2.9870 -1.6981  1.8639
14809TIP3   OH265917   1.944   6.057   3.554 -0.4865  0.2265 -0.2005
14809TIP3    H165918   1.954   6.023   3.465 -0.3745  0.4365 -0.2682
14809TIP3    H265919   1.861   6.104   3.554 -1.6622 -1.7038  0.4211
14810TIP3   OH265920   3.087   1.418   4.388  0.2485  0.1869 -0.0705
14810TIP3    H165921   3.085   1.511   4.364  0.4424  1.1304  3.1761
14810TIP3    H265922   3.179   1.393   4.376  0.0476  0.1355 -1.7222
14811TIP3   OH265923   0.296   2.230  10.181 -0.4728 -0.4061  0.2884
14811TIP3    H165924   0.303   2.268  10.269 -1.3282 -1.8495  1.0076
14811TIP3    H265925   0.386   2.220  10.152 -0.2001  1.7638  0.2219
14812TIP3   OH265926   0.037   4.352   4.505 -0.2643  0.2216 -0.3191
14812TIP3    H165927   0.048   4.257   4.515 -2.3389 -0.2761 -2.0657
14812TIP3    H265928   0.075   4.372   4.419 -0.2486  0.9192 -0.1603
14813TIP3   OH265929   2.296   3.163   2.796 -0.3386 -0.3331  0.1008
14813TIP3    H165930   2.244   3.158   2.876  0.7408 -1.3313  0.7844
14813TIP3    H265931   2.297   3.256   2.774 -0.1724  0.0477  1.5884
14814TIP3   OH265932   4.793   1.989   5.383 -0.3751 -0.7797 -0.3145
14814TIP3    H165933   4.757   1.911   5.425  0.5392 -1.0963 -0.0882
14814TIP3    H265934   4.743   2.062   5.421  0.0478 -1.1003  0.9248
14815TIP3   OH265935   3.593   6.679  13.076  0.1213 -0.3626 -0.1271
14815TIP3    H165936   3.565   6.656  13.164  2.9581 -1.2638  0.6470
14815TIP3    H265937   3.635   6.600  13.042  0.4834  0.4464 -1.6868
14816TIP3   OH265938   3.045   6.508  15.900 -0.1411 -0.2961  0.2398
14816TIP3    H165939   3.090   6.423  15.902  0.6038 -0.0637 -2.5376
14816TIP3    H265940   3.080   6.552  15.823 -2.4422  1.4706  0.0865
14817TIP3   OH265941   4.964   4.603   3.743  0.1355 -0.0807 -0.3105
14817TIP3    H165942   4.973   4.551   3.662  3.1116 -1.1792  0.5983
14817TIP3    H265943   4.954   4.537   3.812  0.0442  0.7369  0.4666
14818TIP3   OH265944   2.627   3.964   4.890  0.4833  0.6355 -0.4118
14818TIP3    H165945   2.693   3.908   4.930  0.2057  0.5549 -0.0575
14818TIP3    H265946   2.661   4.053   4.901 -0.0800  0.7040  0.9748
14819TIP3   OH265947   5.858   3.465  11.312  0.1825  0.1489  0.2249
14819TIP3    H165948   5.905   3.452  11.230 -0.4889 -1.7205  0.0934
14819TIP3    H265949   5.826   3.555  11.307 -1.8902 -0.6299 -2.6830
14820TIP3   OH265950   5.808   5.322  12.170 -0.0973 -0.6471 -0.0992
14820TIP3    H165951   5.873   5.311  12.101 -2.2515  0.2040 -2.4014
14820TIP3    H265952   5.782   5.233  12.193  0.2408 -0.9273 -0.7752
14821TIP3   OH265953   3.621   5.846  15.983 -0.2453  0.0651  0.4444
14821TIP3    H165954   3.542   5.818  15.936 -1.1586  2.4313  0.4314
14821TIP3    H265955   3.676   5.885  15.916  0.3036 -0.2837  0.6904
14822TIP3   OH265956   0.771   5.454  11.402 -0.1043 -0.7170 -0.0725
14822TIP3    H165957   0.721   5.484  11.478 -0.0612  0.4380 -0.4905
14822TIP3    H265958   0.745   5.362  11.392 -1.5618 -0.3607  0.1751
14823TIP3   OH265959   3.420   1.369   3.721 -0.1112 -0.2968  0.1154
14823TIP3    H165960   3.442   1.308   3.791 -0.9557  1.9466  2.4670
14823TIP3    H265961   3.490   1.433   3.721 -0.6598  0.3258 -0.3981
14824TIP3   OH265962   5.721   2.490  13.553  1.3290  0.2143  0.4001
14824TIP3    H165963   5.711   2.575  13.511  2.7009  1.0234  1.5979
14824TIP3    H265964   5.704   2.426  13.484 -2.5349  1.3322  0.1113
14825TIP3   OH265965   5.841   6.359  13.066 -0.4422  0.4785  0.0274
14825TIP3    H165966   5.826   6.327  13.155 -0.5751  0.4405 -0.0078
14825TIP3    H265967   5.930   6.394  13.067  0.6432 -2.0442 -0.5366
14826TIP3   OH265968   3.800   6.032   2.455  0.4927  0.1771  0.0523
14826TIP3    H165969   3.835   6.030   2.544 -0.3060 -0.0837  0.3707
14826TIP3    H265970   3.789   6.126   2.436  1.3786  0.2684 -0.0763
14827TIP3   OH265971   2.622   6.698   2.669 -0.2931  0.5782 -0.2905
14827TIP3    H165972   2.536   6.669   2.700 -0.1650  0.1015 -0.3688
14827TIP3    H265973   2.634   6.785   2.707  0.1260 -0.2149  1.4944
14828TIP3   OH265974   6.672   3.631   2.112 -0.1474  0.5027 -0.1884
14828TIP3    H165975   6.751   3.627   2.059 -0.7815 -1.5372 -1.1221
14828TIP3    H265976   6.602   3.652   2.049 -0.6998 -0.4126  0.0954
14829TIP3   OH265977   5.545   0.954  16.274 -0.3045 -0.2349 -0.4525
14829TIP3    H165978   5.495   0.917  16.346  0.6837 -0.3799  0.1758
14829TIP3    H265979   5.496   0.927  16.195 -0.8930 -0.8534  0.1090
14830TIP3   OH265980   5.385   4.708  16.182 -0.4397 -0.5527 -0.0537
14830TIP3    H165981   5.332   4.637  16.219 -1.7100  0.4166  0.0692
14830TIP3    H265982   5.373   4.701  16.088  0.5947 -1.3621 -0.1318
14831TIP3   OH265983   1.352   4.415   1.623 -0.0848 -0.1838  0.5395
14831TIP3    H165984   1.350   4.408   1.528  3.8957  2.1287  0.0593
14831TIP3    H265985   1.364   4.325   1.653 -0.2573 -0.8312 -1.2286
14832TIP3   OH265986   3.727   6.077   0.941  0.2726 -0.3337  0.0062
14832TIP3    H165987   3.708   6.168   0.961 -2.0963 -0.9957  1.1249
14832TIP3    H265988   3.712   6.070   0.846  0.0729  0.3653 -0.0191
14833TIP3   OH265989   1.005   2.893  14.942 -0.0762  0.1403 -0.1033
14833TIP3    H165990   1.002   2.922  15.033  1.3285 -1.4809  0.5108
14833TIP3    H265991   0.994   2.798  14.947 -0.3601  0.0639 -1.6742
14834TIP3   OH265992   2.587   0.414  16.467 -0.1956 -0.3344 -0.1194
14834TIP3    H165993   2.560   0.504  16.450  0.3112  0.0267  0.9146
14834TIP3    H265994   2.683   0.417  16.462 -0.1563 -0.7149  0.3698
14835TIP3   OH265995   6.663   5.192   4.252  0.0550 -0.0607 -0.3281
14835TIP3    H165996   6.632   5.107   4.283 -0.7232  0.2531 -0.2425
14835TIP3    H265997   6.715   5.170   4.174  1.3727 -0.7741  0.6944
14836TIP3   OH265998   4.411   4.397  11.044 -0.2766  0.0720 -0.0819
14836TIP3    H165999   4.470   4.324  11.062 -2.1804 -1.7234 -0.6931
14836TIP3    H266000   4.407   4.402  10.949  1.1237  2.1658 -0.1041
14837TIP3   OH266001   5.724   4.591  11.211  0.2489  0.1336  0.3778
14837TIP3    H166002   5.651   4.602  11.272 -0.0844  1.0691 -0.1759
14837TIP3    H266003   5.713   4.501  11.178  0.3835 -0.3471  1.6088
14838TIP3   OH266004   5.929   3.450  17.076  0.4398  0.2097 -0.0640
14838TIP3    H166005   5.923   3.509  17.001  0.5616 -0.2121 -0.4061
14838TIP3    H266006   5.838   3.434  17.101  0.4188  1.3468  0.6723
14839TIP3   OH266007   3.877   3.831   5.673  0.0698 -0.1114 -0.2638
14839TIP3    H166008   3.914   3.915   5.645 -0.7589  0.0772 -0.8515
14839TIP3    H266009   3.798   3.855   5.722 -1.5024 -0.5303 -2.4022
14840TIP3   OH266010   4.936   2.129  14.806  0.2018 -0.4189  0.3815
14840TIP3    H166011   4.865   2.165  14.752  2.7673  2.3752 -1.4242
14840TIP3    H266012   4.913   2.037  14.816 -2.6220 -0.1192 -1.8195
14841TIP3   OH266013   5.014   5.181  12.680 -0.0808  0.0549 -0.0982
14841TIP3    H166014   5.104   5.153  12.666 -0.4850 -1.4601  0.1634
14841TIP3    H266015   4.963   5.129  12.618 -0.7191  1.4799 -0.8170
14842TIP3   OH266016   6.670   5.178   0.907  0.3316  0.4202  0.0593
14842TIP3    H166017   6.620   5.212   0.981 -0.4970  0.1097 -0.3397
14842TIP3    H266018   6.631   5.222   0.831  1.2241  0.7965 -0.1859
14843TIP3   OH266019   4.996   5.385   0.705 -0.1436 -0.4791  0.0061
14843TIP3    H166020   4.966   5.399   0.615 -1.1458 -0.6751  0.2994
14843TIP3    H266021   5.086   5.354   0.696 -0.3835 -0.9112 -0.9478
14844TIP3   OH266022   0.232   4.055   1.366 -0.2841  0.0380  0.1059
14844TIP3    H166023   0.295   4.022   1.429  0.6383  2.5597  0.5995
14844TIP3    H266024   0.269   4.137   1.335 -2.2711  0.4857 -1.3016
14845TIP3   OH266025   5.937   5.938  11.808 -0.5483  0.0795 -0.5451
14845TIP3    H166026   5.848   5.938  11.842 -1.6868 -0.0187 -3.2357
14845TIP3    H266027   5.977   6.018  11.843 -2.1168  0.7744 -0.2930
14846TIP3   OH266028   0.784   1.791   5.244  0.0586  0.1352  0.1121
14846TIP3    H166029   0.786   1.886   5.237 -0.1634  0.1695  0.5307
14846TIP3    H266030   0.717   1.763   5.182 -0.1793  0.2790  0.3070
14847TIP3   OH266031   1.924   3.538  13.543 -0.0637 -0.5547  0.5391
14847TIP3    H166032   2.014   3.529  13.575  0.1416  0.8613  0.4603
14847TIP3    H266033   1.871   3.488  13.605  0.8328 -1.9600  0.2112
14848TIP3   OH266034   4.390   4.988  14.549 -0.8466  0.3227  0.4244
14848TIP3    H166035   4.433   5.064  14.588 -0.3552  0.5104 -0.4808
14848TIP3    H266036   4.456   4.948  14.493 -1.8072  0.5700 -0.9427
14849TIP3   OH266037   3.706   0.995   0.475 -0.2255  0.2761 -0.1604
14849TIP3    H166038   3.661   0.946   0.544 -0.4436  0.3851 -0.2278
14849TIP3    H266039   3.638   1.015   0.411  0.1746 -0.7836 -0.9508
14850TIP3   OH266040   5.927   3.989  14.250 -0.3831  0.0776 -0.1311
14850TIP3    H166041   5.844   4.031  14.275  0.6253  1.7905  0.5115
14850TIP3    H266042   5.985   4.004  14.324  0.1425 -2.2702 -0.0146
14851TIP3   OH266043   5.528   1.834  15.323  0.8259 -0.4718 -0.1155
14851TIP3    H166044   5.613   1.790  15.318 -0.0741 -2.2498 -0.5082
14851TIP3    H266045   5.550   1.927  15.330  2.7968 -0.8966  0.0016
14852TIP3   OH266046   0.816   6.409  12.216 -0.1467 -0.3740 -0.3325
14852TIP3    H166047   0.755   6.356  12.164 -1.0646 -1.1313  1.4359
14852TIP3    H266048   0.836   6.355  12.292  0.6736  0.9514  0.4303
14853TIP3   OH266049   6.641   5.480   3.947 -0.2429  0.0859  0.0645
14853TIP3    H166050   6.582   5.405   3.947  1.0585 -0.9941  1.0857
14853TIP3    H266051   6.682   5.477   4.034 -0.4436  2.2228  0.2726
14854TIP3   OH266052   0.461   6.583  13.739  0.2959  0.1763 -0.0485
14854TIP3    H166053   0.437   6.589  13.646 -0.3966  0.8943  0.1597
14854TIP3    H266054   0.395   6.637  13.783 -0.9900 -2.2107  1.1466
14855TIP3   OH266055   6.530   2.845  12.664  0.0125  0.0551 -0.2609
14855TIP3    H166056   6.604   2.788  12.648  0.1425  0.8702 -3.2278
14855TIP3    H266057   6.539   2.872  12.755  2.3084 -1.2742 -0.0262
14856TIP3   OH266058   2.374   0.936   4.730 -0.7259 -0.4417 -0.2785
14856TIP3    H166059   2.440   0.870   4.747  0.1525  0.4015 -0.3610
14856TIP3    H266060   2.423   1.012   4.700 -1.7141  0.2702 -0.1324
14857TIP3   OH266061   1.611   2.918   2.175  0.0530 -0.1202  0.3912
14857TIP3    H166062   1.556   2.991   2.147 -0.5429 -1.1370 -1.2505
14857TIP3    H266063   1.551   2.844   2.182  0.9986 -0.9796 -0.2593
14858TIP3   OH266064   0.360   1.399   3.425 -0.8338  0.2342  0.0207
14858TIP3    H166065   0.381   1.490   3.403  0.4772  0.3816  1.6569
14858TIP3    H266066   0.265   1.399   3.438 -1.3647  0.6092 -3.0548
14859TIP3   OH266067   4.515   5.664   4.410 -0.0063  0.1606  0.3450
14859TIP3    H166068   4.453   5.662   4.483  0.8642  0.4492  1.1086
14859TIP3    H266069   4.598   5.692   4.449 -0.3061  3.9435 -1.3226
14860TIP3   OH266070   5.108   2.247  12.102  0.0311 -0.3638 -0.2543
14860TIP3    H166071   5.149   2.280  12.183  0.9345 -1.2285 -0.3328
14860TIP3    H266072   5.124   2.315  12.037  2.0504 -0.9738 -0.4653
14861TIP3   OH266073   6.091   4.272  11.270  0.2262  0.5253 -0.2800
14861TIP3    H166074   5.995   4.277  11.273  0.2473  0.6344  0.5288
14861TIP3    H266075   6.110   4.221  11.191 -0.5338 -0.3877  0.1006
14862TIP3   OH266076   5.404   1.108   5.408 -0.4964  0.0977 -0.0779
14862TIP3    H166077   5.337   1.133   5.345 -1.3103  1.0673  1.1105
14862TIP3    H266078   5.369   1.030   5.450  0.4361 -1.0561 -1.3698
14863TIP3   OH266079   2.970   0.871  15.031  0.1075  0.2015 -0.8114
14863TIP3    H166080   2.944   0.782  15.007  0.6523 -0.0072 -0.6384
14863TIP3    H266081   2.888   0.913  15.057 -0.6171  0.6065 -3.4644
14864TIP3   OH266082   1.177   3.226  16.438  0.1004 -0.4356  0.3108
14864TIP3    H166083   1.101   3.263  16.483 -1.0296 -0.6054 -1.3787
14864TIP3    H266084   1.198   3.289  16.370  0.2605 -1.3022 -0.4603
14865TIP3   OH266085   6.082   4.972  16.446  0.5512 -0.0838 -0.3294
14865TIP3    H166086   6.057   4.968  16.353  0.3083  0.0933 -0.2724
14865TIP3    H266087   6.013   4.924  16.491  0.8287 -0.4358 -0.2674
14866TIP3   OH266088   5.616   1.992  12.987  0.7697 -0.3089 -0.2077
14866TIP3    H166089   5.557   1.978  13.062  1.6910 -0.7121  0.4580
14866TIP3    H266090   5.577   2.065  12.940 -0.0756 -0.3340  0.4140
14867TIP3   OH266091   0.282   2.519  12.635  0.5835  0.3775  0.8650
14867TIP3    H166092   0.270   2.495  12.727  2.6417  0.7016  1.2611
14867TIP3    H266093   0.363   2.569  12.633  0.1019  1.1853 -1.0122
14868TIP3   OH266094   5.740   1.285   3.352  0.3970 -0.1063 -0.4000
14868TIP3    H166095   5.672   1.350   3.369  0.3140 -0.0836 -0.8143
14868TIP3    H266096   5.746   1.235   3.433 -0.3775 -0.3482 -0.4891
14869TIP3   OH266097   1.387   5.684  11.824  0.5124  0.2250  0.1859
14869TIP3    H166098   1.313   5.726  11.782  0.6511  0.8388  0.5475
14869TIP3    H266099   1.425   5.628  11.756 -0.1490  0.0684 -0.0583
14870TIP3   OH266100   5.420   0.278   2.886  0.3048 -0.0214 -0.5029
14870TIP3    H166101   5.376   0.261   2.803 -2.0543 -4.0271  1.2989
14870TIP3    H266102   5.397   0.368   2.907 -3.0590 -0.3854 -2.0105
14871TIP3   OH266103   2.210   3.690   0.818  0.0675 -0.5175 -0.3810
14871TIP3    H166104   2.145   3.734   0.763 -1.3815  0.7294  2.1528
14871TIP3    H266105   2.266   3.760   0.850  1.3410 -1.3203 -0.7672
14872TIP3   OH266106   3.760   1.250   5.129  0.1132  0.1046  0.9634
14872TIP3    H166107   3.701   1.255   5.054  1.4941 -0.8177 -0.2453
14872TIP3    H266108   3.710   1.287   5.202 -0.8982  2.0496 -0.6227
14873TIP3   OH266109   3.585   2.343   2.273 -0.1762  0.2217  0.2973
14873TIP3    H166110   3.680   2.337   2.265 -0.3837 -2.4200 -1.0573
14873TIP3    H266111   3.552   2.260   2.240 -2.9873  1.0278  0.7834
14874TIP3   OH266112   2.056   6.391   4.316  0.0225  0.4429  0.4671
14874TIP3    H166113   2.010   6.460   4.269  0.0142 -0.3527 -0.7416
14874TIP3    H266114   2.133   6.434   4.353  0.2362  1.0190 -0.6137
14875TIP3   OH266115   1.464   5.701   2.127 -0.0168  0.2082 -0.5199
14875TIP3    H166116   1.394   5.645   2.094 -0.0924  0.2648 -0.4559
14875TIP3    H266117   1.521   5.641   2.175  0.0907  0.1259 -0.7455
14876TIP3   OH266118   4.589   6.027   4.418 -0.6991  0.0664  0.7437
14876TIP3    H166119   4.631   5.944   4.444  0.3513  0.7131  1.1630
14876TIP3    H266120   4.495   6.009   4.426 -0.4932 -1.0961  0.8086
14877TIP3   OH266121   4.976   4.965  16.219 -0.2741 -0.0948  0.4512
14877TIP3    H166122   4.932   4.881  16.235 -0.0680 -0.2248  0.3371
14877TIP3    H266123   5.018   4.986  16.303  0.4603 -0.5710  0.2116
14878TIP3   OH266124   6.512   4.911  14.057  0.5808  0.2340  0.3809
14878TIP3    H166125   6.504   4.879  13.968 -1.5428  0.0177  0.6104
14878TIP3    H266126   6.473   4.843  14.111  1.9884  0.2794  1.5289
14879TIP3   OH266127   2.861   4.675  12.841 -0.0417 -0.0208 -0.0648
14879TIP3    H166128   2.877   4.651  12.932 -0.4216  1.6076  0.4615
14879TIP3    H266129   2.942   4.719  12.813  0.1597 -0.7144 -0.5958
14880TIP3   OH266130   1.003   6.557  15.980 -0.1257 -0.3040  0.0576
14880TIP3    H166131   0.990   6.515  15.895 -1.2841  1.5550 -0.7586
14880TIP3    H266132   0.943   6.512  16.039 -0.4987 -0.5613 -0.5117
14881TIP3   OH266133   6.816   5.128   5.389 -0.9694  0.0343  0.0798
14881TIP3    H166134   6.833   5.211   5.344 -2.4318  1.6020  2.2168
14881TIP3    H266135   6.898   5.108   5.434 -0.7225  0.5231 -0.1402
14882TIP3   OH266136   3.786   6.225   1.379 -0.5219  0.2325  0.3472
14882TIP3    H166137   3.710   6.274   1.347  1.2868  1.4873 -2.3780
14882TIP3    H266138   3.838   6.290   1.426 -0.3794 -0.2713  0.9031
14883TIP3   OH266139   6.143   1.291  11.094  0.9073  0.1549 -0.2790
14883TIP3    H166140   6.182   1.371  11.059  2.7624 -0.6014 -0.0852
14883TIP3    H266141   6.204   1.222  11.068 -0.0187 -1.0245  0.5809
14884TIP3   OH266142   1.054   5.670  16.929 -0.3584  0.6497  0.2587
14884TIP3    H166143   1.085   5.643  17.015 -0.3617 -1.0809 -0.2363
14884TIP3    H266144   1.123   5.641  16.869 -1.0930  0.3391 -0.4565
14885TIP3   OH266145   0.794   2.086   2.580  0.1062  0.2714 -0.3665
14885TIP3    H166146   0.758   2.114   2.496  0.6030 -1.1344 -1.0735
14885TIP3    H266147   0.833   2.166   2.616 -0.1836  0.9214 -1.4304
14886TIP3   OH266148   3.484   4.411  14.105  0.3342  0.3297 -0.0239
14886TIP3    H166149   3.413   4.348  14.121  1.0390 -0.5415 -0.2509
14886TIP3    H266150   3.486   4.466  14.183 -0.3187  0.0988  0.1588
14887TIP3   OH266151   5.816   2.203   5.514 -0.1042 -0.3393 -0.0187
14887TIP3    H166152   5.798   2.252   5.595 -0.8854  0.8847 -0.9052
14887TIP3    H266153   5.745   2.139   5.509 -1.0528  0.7263 -0.5935
14888TIP3   OH266154   4.711   4.269  10.621  0.0245 -0.2572  0.0968
14888TIP3    H166155   4.707   4.180  10.589 -1.0875 -1.1087  2.3345
14888TIP3    H266156   4.622   4.303  10.609  0.0891  0.0646  0.4800
14889TIP3   OH266157   4.026   1.029  15.860 -0.8044  0.0044  0.2131
14889TIP3    H166158   3.978   1.074  15.930 -1.6111 -0.4126 -0.0521
14889TIP3    H266159   4.027   0.937  15.887 -0.6403 -0.0767 -0.0605
14890TIP3   OH266160   4.984   3.568   3.844  0.5394 -1.1087  0.9878
14890TIP3    H166161   4.946   3.487   3.880 -0.0682  0.2128  3.5339
14890TIP3    H266162   4.909   3.628   3.838  1.1925 -0.3506  0.2791
14891TIP3   OH266163   1.284   2.381   4.159  0.6305  0.5574 -0.8641
14891TIP3    H166164   1.348   2.354   4.224  0.0787 -1.8506 -1.2148
14891TIP3    H266165   1.215   2.424   4.210  0.5753 -0.5881  0.0804
14892TIP3   OH266166   2.921   3.153  13.105  0.2274  0.1159 -0.4296
14892TIP3    H166167   2.939   3.084  13.042  0.3068  0.2318 -0.5341
14892TIP3    H266168   2.863   3.112  13.170  0.2648 -0.0438 -0.4975
14893TIP3   OH266169   6.084   2.079   2.932  0.0362 -0.3179 -0.3014
14893TIP3    H166170   6.140   2.004   2.914 -1.9171 -1.2963 -3.0630
14893TIP3    H266171   5.995   2.042   2.935 -0.7574  1.5007  1.3912
14894TIP3   OH266172   4.107   4.157   1.535  0.1792  0.4376 -0.0005
14894TIP3    H166173   4.036   4.138   1.474 -1.3750  2.3570  1.1056
14894TIP3    H266174   4.136   4.071   1.565 -1.7857 -0.4068 -0.3581
14895TIP3   OH266175   1.525   2.824   4.418 -0.0086  0.1931 -0.3539
14895TIP3    H166176   1.571   2.842   4.500 -2.0631  1.6528  0.5809
14895TIP3    H266177   1.522   2.909   4.374 -2.0914  0.2762 -0.1639
14896TIP3   OH266178   5.369   6.757   6.331 -0.4019 -0.5309  0.0149
14896TIP3    H166179   5.289   6.738   6.381 -1.7682  0.1784 -1.8099
14896TIP3    H266180   5.374   6.852   6.329  1.3022 -0.5619  1.2879
14897TIP3   OH266181   0.310   0.395  10.777 -0.2283  0.2070  0.1539
14897TIP3    H166182   0.345   0.356  10.698 -1.7734  3.8253 -2.6441
14897TIP3    H266183   0.384   0.439  10.818  0.2833 -0.3331 -0.1887
14898TIP3   OH266184   3.710   4.072  13.859  0.2755 -0.2644 -0.1461
14898TIP3    H166185   3.738   4.035  13.776 -1.9171  1.0490 -1.5630
14898TIP3    H266186   3.697   4.165  13.841 -1.1764 -0.1202  1.3766
14899TIP3   OH266187   1.642   5.335  11.415  0.1245 -0.8492  0.1277
14899TIP3    H166188   1.549   5.354  11.431  0.1497  0.0378 -0.6550
14899TIP3    H266189   1.643   5.246  11.382 -0.4082 -1.0183  0.5555
14900TIP3   OH266190   4.167   0.435   1.891 -0.1165  0.0069 -0.4461
14900TIP3    H166191   4.072   0.431   1.880 -0.0248  1.2437 -2.2373
14900TIP3    H266192   4.181   0.485   1.971 -0.9321 -2.4983  1.3612
14901TIP3   OH266193   3.691   3.170   1.627 -0.0241 -0.2305 -0.6189
14901TIP3    H166194   3.760   3.222   1.586  0.5408 -0.2482  0.3027
14901TIP3    H266195   3.727   3.141   1.710 -0.4126 -1.9278 -0.9980
14902TIP3   OH266196   1.349   4.288  15.097  0.1075 -0.2593  0.0595
14902TIP3    H166197   1.272   4.345  15.094  1.1847  1.2164 -2.5974
14902TIP3    H266198   1.328   4.216  15.037  0.7401  0.1162 -0.6285
14903TIP3   OH266199   5.724   0.162   1.341 -0.2638  0.5060 -0.0579
14903TIP3    H166200   5.800   0.123   1.297 -1.3679  0.6301 -2.1945
14903TIP3    H266201   5.720   0.118   1.426  0.2872 -1.9127 -1.2047
14904TIP3   OH266202   6.618   3.441  14.131 -0.0387  0.2483  0.2754
14904TIP3    H166203   6.572   3.514  14.088 -0.1657 -0.5820 -1.0671
14904TIP3    H266204   6.631   3.377  14.061  1.9479 -0.1455  0.9429
14905TIP3   OH266205   6.464   1.737  10.477 -0.1090 -0.1993 -0.3480
14905TIP3    H166206   6.543   1.707  10.432  0.5627  0.6083  0.2614
14905TIP3    H266207   6.464   1.831  10.464 -1.5899 -0.3032 -1.2855
14906TIP3   OH266208   6.750   3.302  13.905 -0.4014  0.2418 -0.4045
14906TIP3    H166209   6.807   3.234  13.869 -1.4166 -0.6531 -0.3581
14906TIP3    H266210   6.790   3.384  13.876  1.5511 -0.3042  0.5918
14907TIP3   OH266211   3.891   3.227  13.950  0.0899 -0.2053  0.2344
14907TIP3    H166212   3.859   3.151  13.999 -0.6111 -0.2866 -0.3453
14907TIP3    H266213   3.816   3.256  13.898  0.7905 -0.0515 -0.7155
14908TIP3   OH266214   3.330   0.649  13.479 -0.3445 -0.1213  0.0649
14908TIP3    H166215   3.282   0.731  13.491  0.2993  0.2043  0.5144
14908TIP3    H266216   3.422   0.676  13.474 -0.2933 -0.5268 -2.7023
14909TIP3   OH266217   4.363   3.856   5.122 -0.4601  0.2048  0.3862
14909TIP3    H166218   4.288   3.901   5.083 -0.1225 -0.1966 -0.7654
14909TIP3    H266219   4.437   3.878   5.066 -0.1752 -1.2761  0.1157
14910TIP3   OH266220   5.345   1.098  15.384  1.1039  0.4666  0.2064
14910TIP3    H166221   5.437   1.074  15.371  0.9252 -0.3179  0.3228
14910TIP3    H266222   5.301   1.015  15.400  0.2710  0.7716 -0.4404
14911TIP3   OH266223   0.586   5.583  11.562  0.1200  0.2717  0.0270
14911TIP3    H166224   0.607   5.539  11.645  3.0798  0.7813 -0.3442
14911TIP3    H266225   0.557   5.671  11.588 -1.3080 -0.3526  0.5885
14912TIP3   OH266226   0.975   0.146  15.631 -0.3673  0.6707  0.4001
14912TIP3    H166227   0.911   0.079  15.653 -0.5271 -0.2577 -2.4709
14912TIP3    H266228   1.052   0.097  15.603 -0.3402  1.6329 -1.3622
14913TIP3   OH266229   3.772   0.127   3.735  0.8015 -0.3360 -0.9144
14913TIP3    H166230   3.802   0.195   3.674  0.6740  0.9635  0.4070
14913TIP3    H266231   3.677   0.124   3.722  0.2503  2.4029  1.4875
14914TIP3   OH266232   3.446   6.166   4.833  0.0073  0.5277 -0.0570
14914TIP3    H166233   3.530   6.211   4.829 -0.2623  1.0085 -3.3023
14914TIP3    H266234   3.398   6.197   4.756 -1.2546 -3.2408 -1.0393
14915TIP3   OH266235   3.822   5.160   3.274 -0.6196 -0.2005 -0.5561
14915TIP3    H166236   3.863   5.239   3.308 -0.8395 -0.8651  1.3798
14915TIP3    H266237   3.804   5.107   3.352 -2.9742 -0.9728 -1.5447
14916TIP3   OH266238   3.700   4.652  15.333 -0.0747  0.0721 -0.2651
14916TIP3    H166239   3.669   4.687  15.249  0.5237  1.1621 -0.0467
14916TIP3    H266240   3.620   4.640  15.385 -0.3957 -0.0970 -0.7872
14917TIP3   OH266241   5.615   0.772  13.120  0.3112  0.2161  0.0980
14917TIP3    H166242   5.574   0.691  13.151 -0.1473  0.0199 -1.0003
14917TIP3    H266243   5.709   0.755  13.129  0.2942 -1.1039 -1.6571
14918TIP3   OH266244   4.003   3.313   4.286 -0.1542  0.6222 -0.8382
14918TIP3    H166245   4.087   3.271   4.300 -1.3066 -1.4886  0.2463
14918TIP3    H266246   3.944   3.271   4.348 -1.7623  2.9152 -0.6703
14919TIP3   OH266247   5.748   3.233   1.693 -0.4676  0.1514  0.3204
14919TIP3    H166248   5.814   3.276   1.747  1.2427 -0.7381 -0.9850
14919TIP3    H266249   5.664   3.261   1.731  0.6322  1.0989  2.1860
14920TIP3   OH266250   1.612   5.447   3.798  0.1393 -0.0990  0.1013
14920TIP3    H166251   1.609   5.362   3.841  0.1179  0.1436  0.5935
14920TIP3    H266252   1.624   5.509   3.870 -1.2329  0.4361 -0.0961
14921TIP3   OH266253   2.516   2.452  14.096 -0.2577 -0.1935  0.1533
14921TIP3    H166254   2.513   2.485  14.007  0.8903  0.4275  0.3240
14921TIP3    H266255   2.594   2.492  14.134 -1.4893  0.6929  1.8945
14922TIP3   OH266256   4.645   2.978  12.537 -0.3108  0.4094 -0.4467
14922TIP3    H166257   4.678   3.058  12.577  0.4088 -0.3410  0.5323
14922TIP3    H266258   4.582   3.007  12.471  1.3521  1.8439 -1.4625
14923TIP3   OH266259   0.211   6.542   5.714  0.5736  0.1545 -0.4077
14923TIP3    H166260   0.207   6.447   5.715  0.2897  0.1435 -1.5939
14923TIP3    H266261   0.215   6.566   5.621 -1.7317  1.3863 -0.2542
14924TIP3   OH266262   0.656   4.952  13.309  0.0670 -0.2914  0.3702
14924TIP3    H166263   0.658   4.857  13.300 -1.3717 -0.4845  1.6448
14924TIP3    H266264   0.747   4.977  13.326  0.4300 -1.4602  0.2087
14925TIP3   OH266265   3.595   4.357  13.382  0.1382 -0.0940  0.0206
14925TIP3    H166266   3.534   4.299  13.429  1.1542 -1.2354 -0.0145
14925TIP3    H266267   3.599   4.436  13.435  0.5317 -0.9980  1.3958
14926TIP3   OH266268   6.124   6.429   5.403 -0.4479  0.3445  0.2408
14926TIP3    H166269   6.130   6.523   5.383 -2.6091  0.3157 -0.8630
14926TIP3    H266270   6.032   6.415   5.424 -0.4118 -1.7260 -0.7151
14927TIP3   OH266271   6.411   2.866  12.187  0.5318 -0.0455 -0.3018
14927TIP3    H166272   6.454   2.902  12.265 -2.2515 -1.5890  2.1755
14927TIP3    H266273   6.449   2.779  12.176  0.5786 -0.0176 -0.3609
14928TIP3   OH266274   2.333   1.633  17.016 -1.3376 -0.0474  0.1488
14928TIP3    H166275   2.417   1.640  16.971 -0.2579  1.4156  2.2352
14928TIP3    H266276   2.270   1.614  16.947  0.2282  1.8603 -1.9263
14929TIP3   OH266277   5.858   0.266  11.604  0.4262 -0.1605  0.1235
14929TIP3    H166278   5.937   0.260  11.659  1.7901  0.4904 -1.6596
14929TIP3    H266279   5.786   0.274  11.667  1.9539  1.2147  1.8403
14930TIP3   OH266280   4.996   2.686  15.944 -0.6799 -0.0334  0.2023
14930TIP3    H166281   4.913   2.651  15.975  0.6062 -0.9468  2.9539
14930TIP3    H266282   4.994   2.672  15.849 -2.6553 -2.2636  0.4688
14931TIP3   OH266283   0.739   3.951   2.463 -0.5129 -0.3818 -0.0687
14931TIP3    H166284   0.689   3.924   2.386 -0.0951 -3.0357  0.4908
14931TIP3    H266285   0.686   3.920   2.537  0.1098  0.2630  0.6607
14932TIP3   OH266286   2.249   4.359  16.702  0.2582 -0.0791 -0.0077
14932TIP3    H166287   2.211   4.431  16.651 -2.2389 -0.7383  0.7996
14932TIP3    H266288   2.254   4.393  16.791  0.3762 -0.4453  0.1277
14933TIP3   OH266289   4.175   1.948  14.326 -0.0971  0.2304  0.1241
14933TIP3    H166290   4.256   1.898  14.324 -0.1574  0.0154  1.7295
14933TIP3    H266291   4.121   1.905  14.393 -1.5788  0.3241 -0.9595
14934TIP3   OH266292   4.120   2.420   3.003  0.4204 -0.6215  0.1278
14934TIP3    H166293   4.091   2.451   3.089  0.7549 -0.1141  0.0669
14934TIP3    H266294   4.173   2.492   2.969  0.2042 -0.7774 -0.5483
14935TIP3   OH266295   4.213   3.172   6.241 -0.2713 -0.3695  0.3265
14935TIP3    H166296   4.180   3.261   6.254  0.2217 -0.3728  1.7504
14935TIP3    H266297   4.151   3.116   6.287 -0.0112 -0.6695  0.3136
14936TIP3   OH266298   1.679   0.605  11.000  0.5535 -0.0313 -0.4217
14936TIP3    H166299   1.626   0.570  10.928  0.4413  0.7593 -0.7386
14936TIP3    H266300   1.658   0.549  11.075 -0.0214 -0.3055 -0.7759
14937TIP3   OH266301   3.599   3.615  11.880  0.3850 -0.7586  0.4846
14937TIP3    H166302   3.625   3.661  11.800  0.1063 -1.4250 -0.0058
14937TIP3    H266303   3.676   3.617  11.935  0.4704  0.0237  0.3461
14938TIP3   OH266304   0.123   0.598  15.164  0.2499 -1.1469 -0.7420
14938TIP3    H166305   0.079   0.682  15.177 -2.8587 -2.6228 -0.9182
14938TIP3    H266306   0.197   0.619  15.106  0.4476  1.6281  0.3228
14939TIP3   OH266307   5.953   1.932   4.132  0.3536  0.1117  0.4678
14939TIP3    H166308   5.921   1.876   4.062  0.6208 -0.0774  0.4979
14939TIP3    H266309   5.957   2.020   4.093 -0.8535  0.2747  0.6599
14940TIP3   OH266310   1.060   2.624   3.632  0.3115  0.3563  0.2045
14940TIP3    H166311   1.080   2.554   3.570 -1.8135 -1.0419  1.0009
14940TIP3    H266312   1.090   2.704   3.587  3.9017 -1.0467 -0.2296
14941TIP3   OH266313   2.714   3.421  13.533 -0.1309  0.1162 -0.1520
14941TIP3    H166314   2.806   3.408  13.512 -0.0731 -0.2398  0.3140
14941TIP3    H266315   2.713   3.452  13.623 -0.4989 -0.6349  0.1167
14942TIP3   OH266316   3.171   4.682   5.734  0.0383  0.1464  0.0198
14942TIP3    H166317   3.148   4.762   5.781 -1.3180  0.2763 -0.8101
14942TIP3    H266318   3.236   4.639   5.789 -1.0118  0.6158  1.6797
14943TIP3   OH266319   5.710   1.643   5.043 -0.1230  0.5252  0.3329
14943TIP3    H166320   5.697   1.727   5.087 -1.1876  0.8763 -0.6326
14943TIP3    H266321   5.749   1.666   4.958 -0.4436  0.0478  0.0551
14944TIP3   OH266322   4.847   3.913  13.224  0.5594  0.4385 -0.1370
14944TIP3    H166323   4.895   3.888  13.145 -1.1249  1.0437 -1.4393
14944TIP3    H266324   4.837   4.008  13.216 -0.4735  0.3774  0.2721
14945TIP3   OH266325   3.750   3.525  16.922 -0.2523  0.0097 -0.7209
14945TIP3    H166326   3.755   3.536  17.017 -0.0689  1.6595 -0.8845
14945TIP3    H266327   3.685   3.456  16.909 -1.3304  0.7316  0.5762
14946TIP3   OH266328   2.723   5.012   4.593 -0.2086  0.0075 -1.0039
14946TIP3    H166329   2.669   4.974   4.524 -0.1407  0.2124 -1.1705
14946TIP3    H266330   2.785   4.942   4.617 -1.1549 -0.5729 -0.1402
14947TIP3   OH266331   0.894   5.192   0.151 -0.4493  0.5630  0.5568
14947TIP3    H166332   0.832   5.203   0.224 -0.3561 -0.6758  0.8538
14947TIP3    H266333   0.962   5.256   0.169 -0.3206  0.1445  1.7073
14948TIP3   OH266334   2.461   0.998   0.272  0.3681  0.3166 -0.0370
14948TIP3    H166335   2.524   1.061   0.237  0.5960 -0.0815 -0.3568
14948TIP3    H266336   2.376   1.031   0.244  0.6310 -1.0706 -2.8417
14949TIP3   OH266337   3.661   2.124   1.254 -0.4840 -0.4149 -0.0398
14949TIP3    H166338   3.597   2.066   1.292 -0.9983 -0.0028 -0.2633
14949TIP3    H266339   3.654   2.205   1.304 -0.5516 -0.1698 -0.4396
14950TIP3   OH266340   0.537   6.409   4.617  0.6035  0.2540 -0.2904
14950TIP3    H166341   0.623   6.367   4.611  0.5973 -0.0983  1.4442
14950TIP3    H266342   0.508   6.390   4.706 -1.1750  0.5912 -0.7726
14951TIP3   OH266343   4.131   6.671   1.353 -0.1838  0.3189 -0.3145
14951TIP3    H166344   4.210   6.725   1.344 -1.5688  2.8927  1.5750
14951TIP3    H266345   4.122   6.628   1.268  3.0547  0.1089 -0.6885
14952TIP3   OH266346   6.577   2.187   0.970  0.2677  0.0229  0.3293
14952TIP3    H166347   6.495   2.229   0.944  1.2344  1.4760 -0.5126
14952TIP3    H266348   6.555   2.140   1.051 -1.1166  1.3780  0.7987
14953TIP3   OH266349   3.771   3.700   3.669 -0.5807 -0.4237 -0.3543
14953TIP3    H166350   3.768   3.627   3.608 -2.0007 -1.3004  0.7097
14953TIP3    H266351   3.724   3.669   3.747 -1.1992  1.5917  0.1400
14954TIP3   OH266352   6.244   3.425   4.646  0.5643 -0.1333  0.1679
14954TIP3    H166353   6.180   3.379   4.700  0.8171 -2.0374 -1.0664
14954TIP3    H266354   6.228   3.518   4.665 -0.9783 -0.6324  1.6290
14955TIP3   OH266355   3.800   2.615   2.369 -0.7891 -0.0539 -0.1141
14955TIP3    H166356   3.732   2.594   2.433 -0.8694  0.5263 -0.0007
14955TIP3    H266357   3.778   2.703   2.338  0.2412  0.4018  0.3725
14956TIP3   OH266358   4.303   4.764   1.816  0.2175 -0.3365 -0.9232
14956TIP3    H166359   4.289   4.722   1.731  0.2913  0.7876 -1.4993
14956TIP3    H266360   4.320   4.856   1.795  1.4205 -0.2802  0.2306
14957TIP3   OH266361   4.805   4.784   4.559 -0.7548 -0.4820 -0.0463
14957TIP3    H166362   4.892   4.758   4.590 -0.4188  2.2337  1.6349
14957TIP3    H266363   4.822   4.822   4.473  0.1057  1.6614  0.9975
14958TIP3   OH266364   4.491   3.266  16.766  0.2825  0.6571  0.2834
14958TIP3    H166365   4.466   3.204  16.835  0.0842 -1.7948 -1.8403
14958TIP3    H266366   4.583   3.287  16.786  1.2558 -2.4593 -0.2637
14959TIP3   OH266367   6.307   2.307  14.491 -0.0215  0.2523 -0.1998
14959TIP3    H166368   6.304   2.258  14.409 -2.1579 -0.8043  0.4286
14959TIP3    H266369   6.386   2.361  14.485  0.9638 -1.3105 -2.0507
14960TIP3   OH266370   6.172   1.801  12.769  0.5771 -0.5803  0.0109
14960TIP3    H166371   6.188   1.895  12.771 -1.9013 -0.0236 -1.8218
14960TIP3    H266372   6.218   1.767  12.846  1.2975  2.1502  0.8827
14961TIP3   OH266373   1.368   0.429   4.649 -0.0059 -0.4608  0.7971
14961TIP3    H166374   1.364   0.441   4.554  0.7340 -0.7247  0.7262
14961TIP3    H266375   1.336   0.340   4.663  3.2931 -1.8494  0.4136
14962TIP3   OH266376   4.690   3.396   1.173 -0.3847  0.5305 -0.6499
14962TIP3    H166377   4.719   3.456   1.104 -0.4807  1.0343 -0.2491
14962TIP3    H266378   4.705   3.309   1.135  0.1051  0.7942 -1.0860
14963TIP3   OH266379   5.654   3.002  11.896  0.0511 -0.7310  0.2527
14963TIP3    H166380   5.742   2.978  11.866  0.5926 -0.2091  1.3851
14963TIP3    H266381   5.664   3.020  11.989 -1.2928 -0.7961  0.4324
14964TIP3   OH266382   1.821   1.160  12.740 -0.0100  0.2646  0.0221
14964TIP3    H166383   1.742   1.158  12.794 -1.5004 -1.9096 -2.0318
14964TIP3    H266384   1.878   1.093  12.779 -0.1281  0.2545  0.1811
14965TIP3   OH266385   6.294   6.114   5.055  0.3664 -0.1443 -0.0553
14965TIP3    H166386   6.327   6.170   4.985 -1.0088 -1.8543 -2.2016
14965TIP3    H266387   6.204   6.141   5.068  0.4049 -0.3026  0.5786
14966TIP3   OH266388   6.497   5.352   5.058 -0.0674 -0.0273 -0.2576
14966TIP3    H166389   6.455   5.271   5.088 -0.1942 -0.0367 -0.4540
14966TIP3    H266390   6.474   5.417   5.125  1.1619 -0.4540  0.6151
14967TIP3   OH266391   6.049   3.720  11.933  0.3317  0.3439  0.0100
14967TIP3    H166392   5.983   3.785  11.909 -0.0536 -0.0353  0.0371
14967TIP3    H266393   6.118   3.730  11.867 -0.6873 -0.6475 -1.2590
14968TIP3   OH266394   5.565   3.005  16.707 -0.2004 -0.0811 -0.0694
14968TIP3    H166395   5.653   3.005  16.746 -0.0065 -0.0100 -0.5019
14968TIP3    H266396   5.580   3.022  16.614 -0.5761 -1.3019 -0.3655
14969TIP3   OH266397   0.472   5.613  14.402 -0.4021 -0.3654 -0.6044
14969TIP3    H166398   0.526   5.559  14.461  1.6168  0.5171 -1.5313
14969TIP3    H266399   0.384   5.578  14.411  0.4224 -2.3266  0.5277
14970TIP3   OH266400   2.228   3.546  11.552  0.0229  0.2500  0.1020
14970TIP3    H166401   2.249   3.622  11.607 -1.6190 -0.8711  2.4317
14970TIP3    H266402   2.151   3.574  11.502 -0.8820  0.0375  1.3130
14971TIP3   OH266403   5.485   5.497   4.164  0.0578 -0.2532  0.0048
14971TIP3    H166404   5.553   5.527   4.102  0.0091  0.7058  0.3996
14971TIP3    H266405   5.486   5.402   4.156 -0.4052 -0.1411 -1.9744
14972TIP3   OH266406   0.696   2.827   4.000  0.1998 -0.3037  0.1338
14972TIP3    H166407   0.633   2.762   4.029  0.0150 -0.4412 -0.5622
14972TIP3    H266408   0.755   2.779   3.942  0.3897  0.0321  0.0466
14973TIP3   OH266409   3.324   3.529  14.409 -0.1539 -0.1000  0.3370
14973TIP3    H166410   3.279   3.570  14.483  3.8690  1.6178  2.1491
14973TIP3    H266411   3.294   3.577  14.332 -0.9001  1.4033  1.5167
14974TIP3   OH266412   6.381   5.114  15.165 -0.1069  0.0921  0.3691
14974TIP3    H166413   6.431   5.033  15.163 -1.3149 -0.6535 -1.4941
14974TIP3    H266414   6.426   5.172  15.103  0.4443  0.6972  1.3032
14975TIP3   OH266415   4.827   1.456   5.120  0.1726 -0.6878 -0.0497
14975TIP3    H166416   4.916   1.476   5.151  0.5712 -1.5554 -0.5914
14975TIP3    H266417   4.778   1.438   5.200 -0.3113  2.5766  0.5303
14976TIP3   OH266418   3.145   0.339   3.206  0.3807  0.2967  0.0183
14976TIP3    H166419   3.214   0.351   3.270  1.2016 -0.8644 -0.6053
14976TIP3    H266420   3.191   0.323   3.123 -0.6415  1.4434 -0.8281
14977TIP3   OH266421   0.638   3.989  16.986 -0.4040 -0.2871 -0.6688
14977TIP3    H166422   0.657   4.082  16.986  1.9100 -0.6518 -2.7065
14977TIP3    H266423   0.624   3.967  17.078  0.2632  1.8233 -0.0111
14978TIP3   OH266424   5.259   4.350   1.480 -0.2031  0.0787 -0.0529
14978TIP3    H166425   5.185   4.290   1.491  1.0645 -1.4758  0.3522
14978TIP3    H266426   5.265   4.396   1.564 -0.6759  0.1820 -0.0724
14979TIP3   OH266427   5.033   1.753  13.977  0.1804 -0.3642 -0.1783
14979TIP3    H166428   4.983   1.826  13.940  0.5140  0.2197  0.4896
14979TIP3    H266429   5.026   1.684  13.912  1.2135  0.8022 -1.6084
14980TIP3   OH266430   1.705   0.988   3.997  0.0629 -0.1432  0.3515
14980TIP3    H166431   1.613   0.963   4.003  0.3315 -1.2922 -0.0281
14980TIP3    H266432   1.747   0.945   4.071  0.8051 -2.1801 -1.1783
14981TIP3   OH266433   5.057   0.582  15.387  0.7948  0.3599  0.6857
14981TIP3    H166434   5.021   0.594  15.299  0.4962 -1.4985  0.5183
14981TIP3    H266435   5.117   0.656  15.399 -1.5337  2.4467  0.1960
14982TIP3   OH266436   2.608   5.498  15.833  0.3314 -0.2008  0.2386
14982TIP3    H166437   2.535   5.539  15.879  0.2051  0.7492 -0.7460
14982TIP3    H266438   2.630   5.561  15.764  0.3853 -1.6290 -1.0948
14983TIP3   OH266439   0.363   4.157  16.257 -0.0845 -0.3422 -0.2795
14983TIP3    H166440   0.337   4.187  16.344 -0.1033 -2.4794  0.5221
14983TIP3    H266441   0.298   4.194  16.198 -0.5877  0.4258  0.7301
14984TIP3   OH266442   2.319   1.569   0.805  0.5943 -0.0464  0.4801
14984TIP3    H166443   2.271   1.509   0.748  1.3628  1.0938 -1.4894
14984TIP3    H266444   2.288   1.656   0.779  2.1107  0.5806  0.6804
14985TIP3   OH266445   0.341   2.222   5.220  0.5381 -0.1785 -0.4137
14985TIP3    H166446   0.273   2.258   5.162 -1.3113  0.9031  2.2416
14985TIP3    H266447   0.355   2.133   5.187 -1.3784 -0.0514 -1.7302
14986TIP3   OH266448   2.592   3.540  12.598 -0.0312 -0.4666  0.5464
14986TIP3    H166449   2.687   3.533  12.594  0.1076 -0.9042  2.9956
14986TIP3    H266450   2.574   3.577  12.685 -2.0831  0.3193 -0.1354
14987TIP3   OH266451   3.734   4.225   0.650  0.1336  0.1249 -0.3658
14987TIP3    H166452   3.823   4.213   0.682 -0.6576 -1.5640  1.3705
14987TIP3    H266453   3.740   4.301   0.592  2.9487 -0.7623 -1.4310
14988TIP3   OH266454   3.626   1.530   5.160 -0.1215  0.4537 -0.0733
14988TIP3    H166455   3.580   1.491   5.235 -1.3002  1.8401 -0.0311
14988TIP3    H266456   3.575   1.608   5.140  2.1903  2.0234 -0.0887
14989TIP3   OH266457   1.187   0.419   3.210 -0.4801  0.0127  0.4445
14989TIP3    H166458   1.123   0.450   3.274 -0.7308  1.0895 -0.3179
14989TIP3    H266459   1.214   0.497   3.162  0.8337 -0.5438  0.2186
14990TIP3   OH266460   6.207   5.699   5.656 -0.6543  0.3416 -0.2112
14990TIP3    H166461   6.153   5.772   5.684 -0.6341  0.5431 -0.6910
14990TIP3    H266462   6.208   5.704   5.560 -0.1282  0.0965 -0.2257
14991TIP3   OH266463   3.831   3.638  14.557 -0.5842  0.6487  0.1667
14991TIP3    H166464   3.769   3.572  14.588 -1.1532 -0.3029 -2.6913
14991TIP3    H266465   3.908   3.626  14.613 -1.5528 -0.8253  1.2712
14992TIP3   OH266466   2.336   4.301   1.886  0.4257  0.5069 -0.2554
14992TIP3    H166467   2.388   4.324   1.809 -0.9225 -0.1482 -1.4215
14992TIP3    H266468   2.289   4.381   1.909 -0.6315  0.2214 -1.3383
14993TIP3   OH266469   6.207   5.447   2.708  0.4027 -0.6194  0.2712
14993TIP3    H166470   6.257   5.408   2.780 -1.1988 -0.0931  1.7439
14993TIP3    H266471   6.129   5.391   2.700 -1.4132  1.5257  1.7113
14994TIP3   OH266472   5.304   1.898  12.799  0.3552  0.0717 -0.0688
14994TIP3    H166473   5.352   1.815  12.794 -0.3968 -0.3021 -2.2530
14994TIP3    H266474   5.235   1.890  12.732 -0.6512  1.8927  0.6798
14995TIP3   OH266475   1.087   4.951  16.775 -0.4247 -0.3722  0.4773
14995TIP3    H166476   1.025   5.015  16.810  1.6021  2.4547 -0.7473
14995TIP3    H266477   1.122   4.907  16.852  0.5271  2.4034  1.7413
14996TIP3   OH266478   3.796   4.607  11.410  0.3646 -0.4329 -0.5220
14996TIP3    H166479   3.886   4.627  11.385  0.3138 -0.4902 -0.7488
14996TIP3    H266480   3.746   4.614  11.329  0.1126 -0.1046 -0.3399
14997TIP3   OH266481   6.062   0.865   0.599  0.7873 -0.1179  0.1996
14997TIP3    H166482   6.042   0.932   0.534 -2.2187  0.0459  1.1607
14997TIP3    H266483   6.157   0.872   0.612  0.6943  3.6796 -0.0292
14998TIP3   OH266484   3.930   3.606   4.210 -0.7335 -0.0944 -0.1173
14998TIP3    H166485   3.940   3.607   4.115  1.9375 -0.0172  0.0917
14998TIP3    H266486   3.925   3.513   4.233  0.8540 -0.2248 -0.2020
14999TIP3   OH266487   2.495   4.355  16.568  0.3389  0.2157 -0.0467
14999TIP3    H166488   2.556   4.386  16.635 -0.0830 -0.9923  0.9516
14999TIP3    H266489   2.423   4.316  16.618 -0.1912 -0.3610 -1.2136
15000TIP3   OH266490   0.702   3.665   1.632 -0.3633  0.2132 -0.8939
15000TIP3    H166491   0.665   3.688   1.718 -0.2395  1.6933 -1.2164
15000TIP3    H266492   0.631   3.618   1.588 -1.3160  1.6085 -0.8988
15001TIP3   OH266493   5.585   0.571  14.531  0.3836 -0.4068  0.4277
15001TIP3    H166494   5.605   0.635  14.599 -1.8312 -0.3422  1.0836
15001TIP3    H266495   5.542   0.622  14.462  0.9271 -0.7873 -0.2095
15002TIP3   OH266496   1.730   5.990  11.165  0.2895 -0.0155 -0.3280
15002TIP3    H166497   1.728   5.932  11.240  0.0936 -1.8478 -1.6901
15002TIP3    H266498   1.784   5.945  11.100 -2.0666 -0.0289 -2.4587
15003TIP3   OH266499   4.699   6.756  12.812 -0.1947 -0.3777 -0.3188
15003TIP3    H166500   4.604   6.768  12.803 -0.7449 -2.2335  2.1634
15003TIP3    H266501   4.714   6.750  12.906  2.5029  0.3303 -0.6245
15004TIP3   OH266502   3.823   5.928  10.356 -0.6622  0.8700 -0.6354
15004TIP3    H166503   3.754   5.872  10.391 -1.2092  1.4458 -0.7576
15004TIP3    H266504   3.816   5.918  10.261 -0.6675  1.0186 -0.6524
15005TIP3   OH266505   1.738   3.584  11.943 -0.0190 -0.1568 -0.0597
15005TIP3    H166506   1.672   3.619  12.003 -0.3132  0.0396 -0.4889
15005TIP3    H266507   1.819   3.629  11.967 -0.3641  0.7268 -0.5130
15006TIP3   OH266508   4.038   4.913   3.491  0.8374  0.4857  0.2723
15006TIP3    H166509   4.121   4.961   3.486  1.3852 -0.5337 -1.8574
15006TIP3    H266510   4.058   4.837   3.545  0.9119  0.8840  0.8190
15007TIP3   OH266511   2.952   4.182  16.858 -0.1654 -0.3639  0.1042
15007TIP3    H166512   2.999   4.119  16.913  1.0850 -0.7561 -1.3419
15007TIP3    H266513   2.871   4.199  16.905  0.5312 -1.2266  1.7004
15008TIP3   OH266514   6.487   0.042  12.738  0.0285  0.4968  0.4315
15008TIP3    H166515   6.506   0.044  12.644 -0.2944  0.5438  0.3648
15008TIP3    H266516   6.551  -0.020  12.774 -1.8254 -2.0325 -0.3141
15009TIP3   OH266517   6.642   4.464   1.657  0.4879  0.8811  0.6011
15009TIP3    H166518   6.639   4.524   1.732  1.8543  1.8844 -0.1057
15009TIP3    H266519   6.628   4.521   1.581 -0.1550 -0.0194  0.0311
15010TIP3   OH266520   5.953   6.477   1.879 -0.2880 -0.0300  0.0786
15010TIP3    H166521   6.040   6.445   1.853 -0.6719  0.6785 -2.2957
15010TIP3    H266522   5.970   6.565   1.915  0.0402 -0.1939  0.3363
15011TIP3   OH266523   3.764   1.918   2.947 -0.1092 -0.3375  0.1408
15011TIP3    H166524   3.784   1.908   2.854  2.4669 -3.1463  0.8170
15011TIP3    H266525   3.722   1.836   2.972  0.9153 -0.4204  1.7695
15012TIP3   OH266526   3.219   6.724   1.838  0.4027  0.2047  0.0898
15012TIP3    H166527   3.141   6.774   1.813 -0.7262 -1.4430  0.1374
15012TIP3    H266528   3.255   6.693   1.755  0.5578  0.3085  0.1177
15013TIP3   OH266529   1.426   4.645  11.015 -0.1910 -0.0296 -0.2965
15013TIP3    H166530   1.412   4.658  10.921 -0.4669 -2.5267 -0.6581
15013TIP3    H266531   1.384   4.561  11.034 -0.8118  0.7715  2.2346
15014TIP3   OH266532   4.269   0.423   2.887  0.0689 -0.3396 -0.0644
15014TIP3    H166533   4.355   0.458   2.911 -0.0474  0.6074 -0.9477
15014TIP3    H266534   4.248   0.466   2.804 -1.1162 -0.8010 -0.0249
15015TIP3   OH266535   3.119   2.416  16.334 -0.1093  0.4910 -0.7004
15015TIP3    H166536   3.138   2.373  16.250  0.9237  2.7534 -1.7038
15015TIP3    H266537   3.122   2.510  16.315 -0.3810  1.0824  1.7755
15016TIP3   OH266538   2.926   6.232  11.462  0.2793 -0.2519 -0.6195
15016TIP3    H166539   3.010   6.209  11.503  0.4920 -0.0378 -0.9378
15016TIP3    H266540   2.947   6.247  11.370  0.4019  2.5054 -0.2219
15017TIP3   OH266541   1.816   6.095   3.047 -0.0121 -0.2776  0.3403
15017TIP3    H166542   1.750   6.034   3.079  0.7923 -0.8143  1.0277
15017TIP3    H266543   1.777   6.182   3.060  0.1595 -0.4681  2.6284
15018TIP3   OH266544   6.191   0.865  16.261  0.7213 -0.0536  0.4089
15018TIP3    H166545   6.184   0.803  16.334  0.6624  2.0051  2.2524
15018TIP3    H266546   6.216   0.811  16.187 -0.1126 -2.3972  1.7165
15019TIP3   OH266547   3.271   1.660  11.416  0.0032  0.1408  0.1666
15019TIP3    H166548   3.300   1.718  11.345  0.8754  0.5154  0.8016
15019TIP3    H266549   3.281   1.713  11.495  1.0065 -0.9201  0.7858
15020TIP3   OH266550   3.189   4.548  14.850  0.3301  0.0295  0.1785
15020TIP3    H166551   3.258   4.614  14.854 -1.1263  1.6004  0.4660
15020TIP3    H266552   3.110   4.594  14.879 -1.2354 -1.1533 -1.8933
15021TIP3   OH266553   4.118   0.257   5.182  0.0535  0.2536 -0.0237
15021TIP3    H166554   4.187   0.323   5.176 -0.0031  0.1944 -2.1733
15021TIP3    H266555   4.068   0.268   5.101 -1.3628 -0.9052  0.6588
15022TIP3   OH266556   0.761   6.716   1.053  0.0832  0.0587 -0.0762
15022TIP3    H166557   0.779   6.736   0.962  1.2855  0.8823  0.3206
15022TIP3    H266558   0.678   6.760   1.071 -0.9231 -1.3101 -1.1306
15023TIP3   OH266559   3.252   4.178  12.035  0.3700  0.2646 -0.1702
15023TIP3    H166560   3.226   4.220  11.952  0.5838  1.0298  0.1462
15023TIP3    H266561   3.344   4.202  12.047  0.4332 -0.1146  0.1306
15024TIP3   OH266562   6.229   5.018   3.519  0.0524  0.4558 -0.4298
15024TIP3    H166563   6.175   4.939   3.515 -1.1546  1.2921 -2.5578
15024TIP3    H266564   6.316   4.988   3.493  0.9030 -0.9898  3.4642
15025TIP3   OH266565   6.323   3.355   2.901 -0.2844  0.2466 -0.1241
15025TIP3    H166566   6.407   3.386   2.868 -1.0027  0.0224 -2.2722
15025TIP3    H266567   6.289   3.428   2.953  1.6655 -0.0467  1.6917
15026TIP3   OH266568   3.246   5.248   3.798  0.0482 -0.5143 -0.3337
15026TIP3    H166569   3.214   5.168   3.757 -0.6914 -0.6682  0.5157
15026TIP3    H266570   3.168   5.299   3.818  0.3289 -0.6007  1.1649
15027TIP3   OH266571   0.241   3.191  14.807 -0.0243 -0.6118 -0.9097
15027TIP3    H166572   0.236   3.102  14.773 -0.6884 -0.0672 -2.3004
15027TIP3    H266573   0.318   3.229  14.766 -0.2753 -0.2492 -1.0511
15028TIP3   OH266574   3.899   2.171   4.777  0.4153 -0.2313 -0.5087
15028TIP3    H166575   3.898   2.076   4.770 -1.4631 -0.1695 -1.8517
15028TIP3    H266576   3.940   2.201   4.696 -0.7982  0.1010 -1.0308
15029TIP3   OH266577   5.101   3.944  16.615 -0.3564 -0.0285  0.3940
15029TIP3    H166578   5.131   3.904  16.697  0.8936 -0.7088 -0.3695
15029TIP3    H266579   5.016   3.903  16.598  0.4564 -1.7192  0.1325
15030TIP3   OH266580   0.790   6.787  16.204 -0.1412  0.1924  0.2117
15030TIP3    H166581   0.785   6.705  16.253  0.6136 -0.3342 -0.5642
15030TIP3    H266582   0.826   6.850  16.266 -1.0628  0.0404  0.9239
15031TIP3   OH266583   3.407   2.496  12.904  0.2260  0.7015  0.0620
15031TIP3    H166584   3.440   2.572  12.857  2.2891 -0.7957 -1.0591
15031TIP3    H266585   3.370   2.439  12.836  0.5947 -0.1989  0.5917
15032TIP3   OH266586   2.562   1.879  12.571 -0.0513 -0.1889 -1.0433
15032TIP3    H166587   2.544   1.829  12.491  2.0999 -1.5522 -0.7585
15032TIP3    H266588   2.476   1.908  12.601 -1.0205 -0.6520 -3.1943
15033TIP3   OH266589   6.831   4.647   0.378 -0.0763 -0.0183 -0.0253
15033TIP3    H166590   6.845   4.668   0.471  0.0367 -0.3469  0.0318
15033TIP3    H266591   6.856   4.727   0.332  0.7372 -0.1521  0.1655
15034TIP3   OH266592   3.496   2.586   5.224 -0.4003  0.2669 -0.1540
15034TIP3    H166593   3.443   2.621   5.152  1.8799  2.5541 -0.9012
15034TIP3    H266594   3.546   2.662   5.255  1.5729 -1.4928  1.2419
15035TIP3   OH266595   4.340   1.776  14.160 -0.4110 -0.0905  0.1226
15035TIP3    H166596   4.392   1.707  14.118 -2.0025 -1.1045 -0.2832
15035TIP3    H266597   4.404   1.826  14.210  1.0847 -0.7462 -1.0162
15036TIP3   OH266598   5.763   2.547   5.236 -0.0950  0.0174 -0.1823
15036TIP3    H166599   5.815   2.472   5.209 -0.5836 -0.2504 -0.3870
15036TIP3    H266600   5.808   2.581   5.314  0.6334  0.0585 -0.6094
15037TIP3   OH266601   3.556   2.242   3.488 -0.4460  0.0101  0.6313
15037TIP3    H166602   3.615   2.272   3.557 -1.3217 -0.8738  1.7862
15037TIP3    H266603   3.517   2.162   3.522 -0.4923 -0.7621 -1.1206
15038TIP3   OH266604   4.987   1.782   0.398  0.0953 -0.2516  0.8361
15038TIP3    H166605   5.025   1.866   0.422 -0.8417 -0.3391  2.8366
15038TIP3    H266606   5.059   1.720   0.406  0.4350  0.1378  0.8177
15039TIP3   OH266607   3.036   4.664   6.494  0.0122  0.2735  0.4513
15039TIP3    H166608   2.952   4.637   6.531 -0.4588  0.2915 -0.5745
15039TIP3    H266609   3.015   4.737   6.436  1.0777  1.9172  2.0242
15040TIP3   OH266610   0.290   5.426  14.452  0.2134 -0.4581 -0.2258
15040TIP3    H166611   0.324   5.434  14.541  0.1981 -2.7051  0.0405
15040TIP3    H266612   0.199   5.397  14.463  0.3663 -1.2635 -0.9370
15041TIP3   OH266613   3.241   3.889   4.496 -0.6890 -0.5020  0.3094
15041TIP3    H166614   3.256   3.954   4.429  0.0177 -1.3669 -0.4005
15041TIP3    H266615   3.328   3.872   4.533 -0.9676 -0.5402  0.9702
15042TIP3   OH266616   6.627   3.786   5.624  0.2991  0.1702  0.5072
15042TIP3    H166617   6.663   3.868   5.591  1.6389 -0.7132 -0.2902
15042TIP3    H266618   6.570   3.813   5.697  0.1528  1.8483 -0.1740
15043TIP3   OH266619   4.371   1.522   3.744 -0.0316 -0.1925 -0.4407
15043TIP3    H166620   4.345   1.565   3.825 -1.1342 -0.7876 -0.4629
15043TIP3    H266621   4.445   1.467   3.769  1.8675  2.1267 -0.5386
15044TIP3   OH266622   6.370   6.608   4.158 -0.5717 -0.2206  0.0794
15044TIP3    H166623   6.433   6.677   4.181  0.3865 -1.5353  1.6678
15044TIP3    H266624   6.424   6.540   4.117 -0.8007 -1.5990  1.9361
15045TIP3   OH266625   0.202   2.972  14.603  0.2004  0.7408 -0.1852
15045TIP3    H166626   0.218   2.927  14.686 -0.7159  2.7904  1.1841
15045TIP3    H266627   0.289   2.986  14.567  0.7459  1.2040  1.2262
15046TIP3   OH266628   4.992   6.257  16.951 -0.1226  0.3593 -0.2090
15046TIP3    H166629   4.901   6.287  16.951 -0.3306  0.0082  2.7459
15046TIP3    H266630   4.990   6.174  16.997  1.5990 -0.1380 -0.9527
15047TIP3   OH266631   6.198   2.562   3.773 -0.2925 -0.9048  0.1991
15047TIP3    H166632   6.127   2.499   3.785  0.7931 -2.1588  0.2696
15047TIP3    H266633   6.192   2.620   3.849 -1.1098 -1.1159  0.3034
15048TIP3   OH266634   3.722   1.541  12.410 -0.0185 -0.5281 -0.1149
15048TIP3    H166635   3.761   1.574  12.329  0.9577  1.5975  1.1355
15048TIP3    H266636   3.698   1.451  12.390  1.0422 -0.3580 -2.4788
15049TIP3   OH266637   5.979   2.430   5.936 -0.1495 -0.4283 -0.4199
15049TIP3    H166638   6.019   2.360   5.884  0.5840  0.3708 -0.9604
15049TIP3    H266639   5.887   2.403   5.945  0.1091 -1.4388 -0.6373
15050TIP3   OH266640   5.349   1.862  15.101  0.4133  0.2304  0.4226
15050TIP3    H166641   5.414   1.869  15.171  1.3751 -1.3610 -0.2548
15050TIP3    H266642   5.308   1.776  15.115 -0.7870  0.7562  0.2019
15051TIP3   OH266643   4.857   1.819   5.150 -0.7986  0.6346 -0.2446
15051TIP3    H166644   4.815   1.819   5.237  0.7514  1.9661  0.5664
15051TIP3    H266645   4.927   1.755   5.158  0.5036  2.0561  0.1365
15052TIP3   OH266646   5.123   0.980  14.186 -0.0934 -0.3200 -0.0554
15052TIP3    H166647   5.191   1.039  14.153 -1.7484  1.9491  0.3543
15052TIP3    H266648   5.058   0.977  14.116 -1.2521  0.4794  0.9469
15053TIP3   OH266649   0.272   5.194   0.992 -0.1942  0.0868 -0.1873
15053TIP3    H166650   0.194   5.147   1.021 -0.9874  1.1374 -0.5709
15053TIP3    H266651   0.283   5.265   1.056  2.3911 -1.9098  1.8222
15054TIP3   OH266652   6.373   2.019  10.486  0.1686 -0.9089 -0.2796
15054TIP3    H166653   6.362   2.097  10.540 -0.3847 -1.0003 -0.2524
15054TIP3    H266654   6.302   2.024  10.423  0.7225 -0.8829 -0.9088
15055TIP3   OH266655   3.501   6.835   3.955 -0.2374  0.0727  0.3706
15055TIP3    H166656   3.492   6.906   3.892 -1.1917 -1.8844 -1.8687
15055TIP3    H266657   3.594   6.812   3.953 -0.4869 -1.0410 -1.7301
15056TIP3   OH266658   3.245   3.343   4.891 -0.0384 -0.0807  0.0834
15056TIP3    H166659   3.265   3.255   4.923  0.2659  0.3622  1.1612
15056TIP3    H266660   3.250   3.398   4.969  0.1893  0.9620 -0.6521
15057TIP3   OH266661   0.977   3.860   1.902  0.1835  0.0691 -0.0951
15057TIP3    H166662   0.953   3.768   1.900  0.2141  0.0246  0.8587
15057TIP3    H266663   0.893   3.907   1.899  0.1443 -0.0008 -0.0835
15058TIP3   OH266664   2.074   5.120  11.815 -0.2669  0.2451  0.0991
15058TIP3    H166665   2.072   5.214  11.836  2.4956 -0.0961  2.4988
15058TIP3    H266666   2.073   5.117  11.719 -0.1071  2.7317 -0.0543
15059TIP3   OH266667   1.709   5.786  13.314  0.0002  0.2128  0.0474
15059TIP3    H166668   1.795   5.829  13.318  0.5680 -0.6991 -1.5214
15059TIP3    H266669   1.679   5.802  13.224 -1.6096  0.7189  0.6452
15060TIP3   OH266670   2.107   6.520   0.492  0.0781  0.5961  0.1688
15060TIP3    H166671   2.194   6.557   0.478  0.1285  0.5373  0.3206
15060TIP3    H266672   2.087   6.472   0.411  0.2191  0.5464  0.1634
15061TIP3   OH266673   6.069   4.171   4.873  0.3818  0.3625  0.6663
15061TIP3    H166674   6.164   4.183   4.878  0.2722  1.9470 -0.3220
15061TIP3    H266675   6.033   4.253   4.908 -0.6839 -0.7419  2.3240
15062TIP3   OH266676   3.268   0.066  13.469 -0.2030  0.2952 -0.8209
15062TIP3    H166677   3.355   0.033  13.450  0.0351 -0.2612  0.9687
15062TIP3    H266678   3.231   0.089  13.384  1.3352 -0.3236 -1.6958
15063TIP3   OH266679   2.306   5.843   2.020 -0.2425 -0.1322 -0.3826
15063TIP3    H166680   2.279   5.931   1.993 -2.3337 -0.9721 -1.1986
15063TIP3    H266681   2.232   5.787   1.997  0.5386 -1.9370  1.2640
15064TIP3   OH266682   6.709   3.203  15.673 -0.2000 -1.0097  0.1745
15064TIP3    H166683   6.795   3.238  15.648 -0.6935 -0.4110 -0.7507
15064TIP3    H266684   6.678   3.158  15.594 -1.6622  0.6442 -0.2532
15065TIP3   OH266685   5.339   0.941   2.282 -0.6286 -0.3044  0.7047
15065TIP3    H166686   5.351   1.028   2.320 -0.9156 -1.2328  3.1110
15065TIP3    H266687   5.284   0.956   2.205  3.6019  2.2541 -2.2603
15066TIP3   OH266688   2.090   6.159  12.773 -0.0963  0.0525  0.1774
15066TIP3    H166689   2.107   6.247  12.739  0.3424 -0.0631  0.0897
15066TIP3    H266690   1.999   6.141  12.751 -0.3420  0.6997  0.6680
15067TIP3   OH266691   6.428   0.988   0.325  0.1130  0.0686  0.7101
15067TIP3    H166692   6.399   0.996   0.416 -1.0404 -0.2222  0.3838
15067TIP3    H266693   6.490   0.914   0.326  1.3664  1.0877  1.5249
15068TIP3   OH266694   0.141   2.886   3.430  0.2477  0.0758 -0.1574
15068TIP3    H166695   0.124   2.980   3.441 -0.8010 -0.1532  0.2041
15068TIP3    H266696   0.064   2.843   3.467  1.3204 -0.9719  0.9504
15069TIP3   OH266697   6.350   5.499   0.772  0.1227 -0.6314 -0.0808
15069TIP3    H166698   6.361   5.449   0.853  0.8143 -2.1364 -1.0574
15069TIP3    H266699   6.285   5.449   0.723 -0.3416  0.3087 -0.4325
15070TIP3   OH266700   3.612   0.924  15.454 -0.1894  0.1875 -0.8085
15070TIP3    H166701   3.663   0.845  15.467 -0.5686  0.1825  0.8199
15070TIP3    H266702   3.587   0.922  15.362  1.1740 -0.7348 -1.1888
15071TIP3   OH266703   5.809   3.566  13.135  0.2408 -0.3396 -0.3321
15071TIP3    H166704   5.828   3.649  13.177 -2.5135  0.3461 -0.2589
15071TIP3    H266705   5.835   3.500  13.199 -1.2096  0.6074  1.3141
15072TIP3   OH266706   6.031   5.963  13.999  0.0363  0.3238 -0.1093
15072TIP3    H166707   5.975   5.944  14.074  1.8243 -2.5858  0.6347
15072TIP3    H266708   6.112   5.997  14.037  0.3269  0.5003 -0.8682
15073TIP3   OH266709   4.679   4.698  13.324  0.0254 -0.1936 -0.3266
15073TIP3    H166710   4.704   4.631  13.261  3.0147  1.0297 -0.6247
15073TIP3    H266711   4.749   4.697  13.389 -0.5774  1.6515  0.4271
15074TIP3   OH266712   0.028   4.578   1.321  0.0126 -0.0022 -0.4142
15074TIP3    H166713  -0.006   4.493   1.290 -1.0252 -0.3500  1.5106
15074TIP3    H266714  -0.029   4.642   1.280 -0.0303 -0.3147 -0.8552
15075TIP3   OH266715   2.125   5.039  15.144 -0.0982  0.3475  0.4444
15075TIP3    H166716   2.066   5.022  15.071 -1.9563  3.0057  1.1549
15075TIP3    H266717   2.068   5.044  15.221  0.9912  2.7614  1.2153
15076TIP3   OH266718   3.952   1.104  15.357  0.0395 -0.1202 -0.1375
15076TIP3    H166719   3.930   1.012  15.339 -2.4217  0.0154  1.6846
15076TIP3    H266720   3.923   1.118  15.447  0.2956  2.4745 -0.4002
15077TIP3   OH266721   6.189   1.277  12.626 -0.3279 -0.3111 -0.0006
15077TIP3    H166722   6.190   1.342  12.696 -1.0231  1.6647 -1.7250
15077TIP3    H266723   6.276   1.237  12.629  1.1100  2.5557 -0.4984
15078TIP3   OH266724   6.437   4.247   5.498 -0.6108 -0.4809  0.3404
15078TIP3    H166725   6.438   4.219   5.590 -2.1002  1.2344  0.9355
15078TIP3    H266726   6.419   4.341   5.501 -0.3315 -0.3075 -1.7130
15079TIP3   OH266727   3.225   5.347   3.463 -0.3344  0.4507  0.2315
15079TIP3    H166728   3.306   5.325   3.510  0.1228  2.5420  0.5057
15079TIP3    H266729   3.234   5.302   3.379  1.0822  0.5717  0.2933
15080TIP3   OH266730   1.708   4.286   1.265 -0.2038  0.0107  0.5330
15080TIP3    H166731   1.625   4.332   1.279  0.7587  1.4686  1.9288
15080TIP3    H266732   1.773   4.357   1.256  1.2189 -1.0387  1.8717
15081TIP3   OH266733   2.554   4.633   3.315  0.3324  0.4144 -0.2254
15081TIP3    H166734   2.564   4.555   3.261 -2.1350  0.2447 -0.5329
15081TIP3    H266735   2.553   4.706   3.253 -0.9085  0.3557 -0.2953
15082TIP3   OH266736   1.623   2.577   4.459 -0.1584  0.1992  0.5752
15082TIP3    H166737   1.582   2.653   4.418  1.4125  1.0938  0.5824
15082TIP3    H266738   1.711   2.607   4.483  0.8215 -1.8611 -0.1921
15083TIP3   OH266739   2.866   5.680   0.734  0.0786 -0.5380  0.6246
15083TIP3    H166740   2.857   5.655   0.826 -2.4562 -3.1032 -0.1578
15083TIP3    H266741   2.956   5.657   0.712  0.8824  0.5816  2.5374
15084TIP3   OH266742   6.675   0.059  15.563 -0.1733 -0.2859  0.2625
15084TIP3    H166743   6.747   0.079  15.503  0.9677  1.1434  1.9983
15084TIP3    H266744   6.690   0.116  15.638 -2.2723 -1.0751  1.3643
15085TIP3   OH266745   2.438   2.222  12.430 -0.2530  0.0031  0.2436
15085TIP3    H166746   2.393   2.140  12.408 -0.3375  0.2814 -0.6945
15085TIP3    H266747   2.442   2.223  12.525 -0.4769 -0.9711  0.2763
15086TIP3   OH266748   4.383   1.611   3.353 -0.0342  0.4989 -0.1329
15086TIP3    H166749   4.461   1.580   3.308 -0.1329 -1.3130  0.8487
15086TIP3    H266750   4.314   1.607   3.286 -0.3009 -2.6742  0.1574
15087TIP3   OH266751   6.574   6.703   3.031  0.1333  0.3837 -0.2332
15087TIP3    H166752   6.571   6.753   3.113  0.2440  1.5698 -0.9256
15087TIP3    H266753   6.639   6.748   2.977  0.6135 -0.8232 -0.7096
15088TIP3   OH266754   0.271   3.194   1.495  0.4235 -0.0447 -0.1088
15088TIP3    H166755   0.291   3.248   1.418  0.9993 -0.0589  0.0281
15088TIP3    H266756   0.189   3.231   1.529  0.1919 -0.0057 -0.6951
15089TIP3   OH266757   5.783   1.100   1.217  0.1443  0.0141 -0.6664
15089TIP3    H166758   5.839   1.147   1.156 -1.1827  1.3287 -0.9162
15089TIP3    H266759   5.802   1.138   1.303  1.5677 -1.4195 -0.2915
15090TIP3   OH266760   1.760   4.313  13.587  0.0500  0.5421  0.1416
15090TIP3    H166761   1.716   4.391  13.553 -0.4093  0.4048  0.4106
15090TIP3    H266762   1.844   4.311  13.541 -0.4861  0.4491 -0.8706
15091TIP3   OH266763   4.337   2.589   1.599  0.1095 -0.4417  0.2558
15091TIP3    H166764   4.349   2.526   1.670 -0.3259 -1.6585 -0.7130
15091TIP3    H266765   4.267   2.552   1.546  0.1187  0.6714 -0.5596
15092TIP3   OH266766   3.640   2.812  13.746  0.4977 -0.8091  0.6854
15092TIP3    H166767   3.637   2.782  13.655 -0.8094  0.6479  0.1998
15092TIP3    H266768   3.661   2.734  13.797  0.8332 -1.7346 -0.8294
15093TIP3   OH266769   3.472   3.039  10.497 -0.3839  0.4946 -1.1372
15093TIP3    H166770   3.434   3.125  10.517  0.7424  0.9437 -0.8286
15093TIP3    H266771   3.561   3.058  10.466 -0.6004 -0.4838 -2.4510
15094TIP3   OH266772   4.813   6.627   5.089 -0.6499 -0.0069  0.0364
15094TIP3    H166773   4.894   6.599   5.131 -1.0806  0.2207  1.0549
15094TIP3    H266774   4.818   6.722   5.088 -1.9006  0.1594  2.2790
15095TIP3   OH266775   1.920   0.984   2.664  0.0829  0.0687  0.3418
15095TIP3    H166776   1.921   1.029   2.580  1.0312 -0.2179  0.1919
15095TIP3    H266777   1.909   1.054   2.728  2.6083  0.6915  0.1863
15096TIP3   OH266778   2.231   0.822  16.379  0.0661  0.5524  0.1175
15096TIP3    H166779   2.228   0.844  16.286  0.9716  0.7836  0.1337
15096TIP3    H266780   2.297   0.753  16.386  1.4873  1.9049  0.8187
15097TIP3   OH266781   3.630   1.534   4.419  0.4582  0.1580  0.0461
15097TIP3    H166782   3.638   1.491   4.334 -0.3612  0.4821 -0.2042
15097TIP3    H266783   3.699   1.600   4.419  0.6987 -0.0889 -0.2138
15098TIP3   OH266784   3.064   2.120   0.953  0.3710 -0.0347 -0.2489
15098TIP3    H166785   3.105   2.043   0.914  0.3795 -0.1550 -0.0022
15098TIP3    H266786   2.971   2.100   0.955  0.2346  0.4243 -1.2325
15099TIP3   OH266787   3.051   2.111   2.075 -0.1922 -0.4738  0.4236
15099TIP3    H166788   2.996   2.072   2.143  0.3963 -0.2977  1.0107
15099TIP3    H266789   2.990   2.154   2.016 -0.7787 -1.3872  0.3415
15100TIP3   OH266790   5.605   1.410   0.774  0.3693 -0.2948  0.1784
15100TIP3    H166791   5.618   1.335   0.833 -1.9520 -0.0360  1.1318
15100TIP3    H266792   5.683   1.464   0.786  1.5176 -1.9358  0.4201
15101TIP3   OH266793   0.520   6.838   1.121 -0.6346 -0.3896  0.2924
15101TIP3    H166794   0.498   6.744   1.125 -0.0556 -0.5313  0.2748
15101TIP3    H266795   0.486   6.874   1.203  0.9295 -1.0200  1.2653
15102TIP3   OH266796   6.281   2.135  12.219  0.1735  0.5099 -0.7934
15102TIP3    H166797   6.259   2.103  12.307  1.4447  0.6912 -0.3903
15102TIP3    H266798   6.352   2.078  12.190  0.8826  1.4814 -1.0176
15103TIP3   OH266799   1.280   0.400   1.651 -0.2702  0.4511 -0.2804
15103TIP3    H166800   1.205   0.364   1.602  0.5099  0.1030 -1.2565
15103TIP3    H266801   1.337   0.325   1.666  0.5775  0.9660 -0.8451
15104TIP3   OH266802   0.059   2.147  12.814 -0.0387 -0.0721 -0.7305
15104TIP3    H166803   0.050   2.206  12.890 -2.1245 -1.2295  0.0100
15104TIP3    H266804   0.137   2.096  12.833  0.6031  1.0008 -0.3652
15105TIP3   OH266805   5.639   0.158  17.091  0.4296  0.2328 -0.1631
15105TIP3    H166806   5.572   0.213  17.133  0.1347 -0.4501  0.2841
15105TIP3    H266807   5.600   0.071  17.089 -0.1378  0.4357 -3.0944
15106TIP3   OH266808   5.898   3.511   5.648  0.6874 -0.7878 -0.3604
15106TIP3    H166809   5.925   3.455   5.576  0.8827  0.6973 -1.4940
15106TIP3    H266810   5.979   3.535   5.692  0.6162 -1.2622  0.0406
15107TIP3   OH266811   1.310   1.145   5.642  0.3897  0.6532  0.6518
15107TIP3    H166812   1.393   1.134   5.596  0.3241 -0.0482  0.6968
15107TIP3    H266813   1.329   1.122   5.733 -0.2812 -1.3814  0.3085
15108TIP3   OH266814   5.794   5.009   5.017  0.4715  0.0269 -0.0995
15108TIP3    H166815   5.887   4.986   5.017  0.2743 -0.9413  1.6856
15108TIP3    H266816   5.780   5.049   5.102 -0.9977 -0.9380  0.1383
15109TIP3   OH266817   0.136   5.297   3.693  0.3373 -0.0815 -0.0919
15109TIP3    H166818   0.217   5.291   3.642  0.2424 -1.7171 -0.1246
15109TIP3    H266819   0.085   5.366   3.651  1.6184  0.8498 -0.1828
15110TIP3   OH266820   4.162   6.638  11.849  0.4830 -0.2148 -0.5653
15110TIP3    H166821   4.256   6.637  11.867  0.5523  0.5673 -0.8522
15110TIP3    H266822   4.139   6.731  11.845 -0.5787 -0.3875  0.8702
15111TIP3   OH266823   4.958   2.118  12.796 -0.1176 -0.1542 -0.2314
15111TIP3    H166824   5.022   2.185  12.822 -0.7807  0.3720  0.0568
15111TIP3    H266825   5.000   2.072  12.723  0.6184  0.1420  0.0005
15112TIP3   OH266826   3.316   3.171   2.275 -0.1538  0.3415  0.0165
15112TIP3    H166827   3.335   3.126   2.357 -1.8628 -0.8162 -0.1739
15112TIP3    H266828   3.388   3.146   2.217  0.7316  0.6617  0.9488
15113TIP3   OH266829   5.368   2.791  15.785 -0.1960  0.5120 -0.1360
15113TIP3    H166830   5.330   2.731  15.848  0.1445  0.2840 -0.1429
15113TIP3    H266831   5.293   2.835  15.745 -0.4860 -0.3277 -0.5516
15114TIP3   OH266832   2.865   1.336   3.089 -0.0797  0.2940  0.5060
15114TIP3    H166833   2.846   1.350   3.182  0.6671  2.4640  0.3839
15114TIP3    H266834   2.797   1.276   3.060 -0.9853  0.4317  2.2062
15115TIP3   OH266835   2.839   5.554  12.448 -0.0488  0.2191 -0.0137
15115TIP3    H166836   2.919   5.520  12.488  0.1419 -0.0791 -0.6431
15115TIP3    H266837   2.866   5.582  12.361 -0.0906  2.3816  0.5912
15116TIP3   OH266838   0.760   1.020   1.373 -0.2037 -0.0941  0.7398
15116TIP3    H166839   0.755   1.030   1.468  0.1046 -1.2497  0.8858
15116TIP3    H266840   0.743   0.928   1.357 -0.1229  0.0590 -0.3259
15117TIP3   OH266841   5.547   3.282  13.933 -0.2105  0.1763 -0.3158
15117TIP3    H166842   5.539   3.248  14.022  0.2913  3.9197  1.3424
15117TIP3    H266843   5.592   3.213  13.885 -0.0956 -1.8195  2.4093
15118TIP3   OH266844   2.543   3.560   4.702  0.3199 -0.6153  0.2225
15118TIP3    H166845   2.584   3.568   4.616  0.6460  2.0518  0.5418
15118TIP3    H266846   2.602   3.503   4.751  0.5825 -1.4605 -1.0262
15119TIP3   OH266847   3.353   2.305   4.604  0.2183  0.0017 -0.4388
15119TIP3    H166848   3.414   2.256   4.550  1.4307 -0.1370  1.0066
15119TIP3    H266849   3.367   2.272   4.692  1.6709  3.4473  0.7674
15120TIP3   OH266850   5.465   5.781   1.756 -0.0054  0.3737  0.2294
15120TIP3    H166851   5.384   5.732   1.740  0.7329 -0.8391  0.0721
15120TIP3    H266852   5.474   5.783   1.851  0.0374  0.0705  0.2328
15121TIP3   OH266853   3.314   6.398   2.556 -0.4431 -0.5924  0.3756
15121TIP3    H166854   3.262   6.415   2.635  0.1552  0.0507  0.6549
15121TIP3    H266855   3.289   6.468   2.496  0.0999 -0.2556  0.5259
15122TIP3   OH266856   4.385   3.643  14.067  0.2796  0.6118 -0.3087
15122TIP3    H166857   4.324   3.600  14.127  0.9939 -0.1636 -0.1061
15122TIP3    H266858   4.336   3.654  13.986 -0.4931  1.0838  0.2132
15123TIP3   OH266859   3.380   5.911  16.796 -0.3674  0.7846  0.6495
15123TIP3    H166860   3.395   6.003  16.776  0.7407  0.3622 -0.5502
15123TIP3    H266861   3.306   5.886  16.739  0.6492  0.4341 -0.5565
15124TIP3   OH266862   2.833   2.348   5.281 -0.2049 -0.7492  0.4722
15124TIP3    H166863   2.859   2.413   5.346  1.7092 -0.0756 -0.8969
15124TIP3    H266864   2.741   2.369   5.262 -0.6472 -0.6128  2.4804
15125TIP3   OH266865   3.912   1.595   4.541 -0.0791 -0.1422 -0.0202
15125TIP3    H166866   3.924   1.503   4.516  0.5211 -0.1726  0.3520
15125TIP3    H266867   3.936   1.598   4.633 -0.9613  0.2254  0.2054
15126TIP3   OH266868   0.603   6.308   1.912  0.0661  0.7815  0.1860
15126TIP3    H166869   0.528   6.348   1.956  0.4932  2.3840 -0.4619
15126TIP3    H266870   0.571   6.285   1.825  0.2749  1.3598 -0.0506
15127TIP3   OH266871   3.116   6.026  12.962  0.8362  0.3889 -0.1075
15127TIP3    H166872   3.173   5.956  12.931  0.1239 -0.7316  0.9910
15127TIP3    H266873   3.044   6.028  12.899 -0.4367 -1.6513  1.1569
15128TIP3   OH266874   2.158   4.223  16.431 -0.2092  0.2177  0.4192
15128TIP3    H166875   2.178   4.240  16.523  1.9336 -0.1090  0.0630
15128TIP3    H266876   2.069   4.188  16.432 -0.1066 -0.1039  2.3870
15129TIP3   OH266877   2.412   0.963   1.599 -0.3057  0.1894 -0.1281
15129TIP3    H166878   2.453   0.966   1.512 -0.2651  0.9395 -0.0905
15129TIP3    H266879   2.458   1.030   1.650  1.3814 -1.8892  1.2554
15130TIP3   OH266880   6.775   3.605  12.233 -0.1466  0.3339 -0.1016
15130TIP3    H166881   6.805   3.681  12.183 -0.2305  1.4156  1.4011
15130TIP3    H266882   6.681   3.600  12.214  0.2617 -0.8637 -2.0168
15131TIP3   OH266883   2.254   6.712  16.245  0.4170  0.5691 -0.7426
15131TIP3    H166884   2.328   6.662  16.278 -0.5668 -0.7550 -0.4655
15131TIP3    H266885   2.223   6.762  16.321 -1.0159 -1.4543  0.0848
15132TIP3   OH266886   4.580   2.996   3.212 -0.0837 -0.6497 -0.0546
15132TIP3    H166887   4.560   3.024   3.301  1.9670  0.8185  0.0342
15132TIP3    H266888   4.530   3.056   3.157  0.3093 -0.1164  0.1498
15133TIP3   OH266889   4.276   3.436   3.809 -0.3337  0.2973  0.2736
15133TIP3    H166890   4.225   3.517   3.816  1.0178  1.0662  1.7296
15133TIP3    H266891   4.248   3.384   3.885  1.0994  0.7884  1.1693
15134TIP3   OH266892   4.343   0.715  14.922  0.0034 -0.3470  0.2817
15134TIP3    H166893   4.361   0.742  14.833 -0.1824 -2.0048 -0.2912
15134TIP3    H266894   4.251   0.737  14.936 -0.2801 -1.1010 -0.3463
15135TIP3   OH266895   5.225   0.927   3.760 -0.1518  0.4307  0.3566
15135TIP3    H166896   5.243   0.858   3.697  2.3741  1.2827  0.0520
15135TIP3    H266897   5.177   0.993   3.710 -0.7609 -0.1707  0.1266
15136TIP3   OH266898   4.806   5.291  15.183 -0.1669  0.0325  0.2559
15136TIP3    H166899   4.808   5.386  15.192 -0.6384 -0.0044  0.7880
15136TIP3    H266900   4.747   5.261  15.253  0.3945 -0.6897  0.4308
15137TIP3   OH266901   0.381   0.350   0.457 -0.1739  0.0237 -0.3721
15137TIP3    H166902   0.308   0.289   0.444  0.3289 -0.6275 -0.1773
15137TIP3    H266903   0.353   0.430   0.411 -0.4592 -0.6499 -1.4189
15138TIP3   OH266904   0.363   1.516  16.244  0.3078  0.2421 -0.2298
15138TIP3    H166905   0.283   1.491  16.290 -0.8419  3.5750 -0.1299
15138TIP3    H266906   0.352   1.481  16.156 -0.7895 -0.1855  0.0606
15139TIP3   OH266907   5.950   4.841  12.491 -0.0709 -0.0349 -0.4676
15139TIP3    H166908   5.953   4.924  12.539  0.1221 -0.0114 -0.5210
15139TIP3    H266909   5.934   4.866  12.400  0.1726 -0.0426 -0.5153
15140TIP3   OH266910   3.683   0.121  10.493 -0.8925  0.5281 -0.8867
15140TIP3    H166911   3.767   0.159  10.517 -0.7158 -0.5827  0.3553
15140TIP3    H266912   3.666   0.055  10.560 -3.2179  1.3756 -0.5289
15141TIP3   OH266913   5.267   2.075  11.316  0.0639 -0.2474  0.1383
15141TIP3    H166914   5.190   2.063  11.260 -0.6919  1.3971  0.7446
15141TIP3    H266915   5.290   2.167  11.305  1.3964 -0.4906  0.6913
15142TIP3   OH266916   0.864   5.371  14.900 -0.0431 -0.7145  0.2521
15142TIP3    H166917   0.853   5.293  14.847 -0.6390 -0.4283 -0.0550
15142TIP3    H266918   0.909   5.433  14.843  0.0416 -0.6820  0.3526
15143TIP3   OH266919   0.777   1.363   1.817 -0.1031 -0.3518 -0.4410
15143TIP3    H166920   0.871   1.362   1.800 -0.1637  1.8625 -1.1727
15143TIP3    H266921   0.770   1.372   1.912  0.4459  0.3391 -0.4616
15144TIP3   OH266922   1.637   2.928  11.805  0.5848 -0.2050 -0.0743
15144TIP3    H166923   1.627   2.987  11.880 -0.9886  0.2245 -0.5698
15144TIP3    H266924   1.632   2.985  11.728 -0.4243 -0.8950 -0.5504
15145TIP3   OH266925   3.439   5.614   0.457 -0.2074  0.5381  0.4695
15145TIP3    H166926   3.501   5.545   0.434 -0.2166  0.0449  1.8293
15145TIP3    H266927   3.385   5.575   0.526 -1.8506  1.0537 -0.4725
15146TIP3   OH266928   5.936   2.574   4.158  0.5366  0.1788  0.3744
15146TIP3    H166929   5.899   2.499   4.205  1.0266 -0.9596 -0.9799
15146TIP3    H266930   5.861   2.633   4.145 -0.1387 -0.6597  0.3500
15147TIP3   OH266931   1.230   0.250   2.481  0.1536 -0.1642 -0.1214
15147TIP3    H166932   1.158   0.269   2.542 -0.6366 -3.4233  0.1235
15147TIP3    H266933   1.309   0.279   2.527 -0.7671  1.5576  0.4864
15148TIP3   OH266934   0.598   6.822  11.249  0.2635  0.0796 -0.2692
15148TIP3    H166935   0.687   6.820  11.284  0.1115 -0.3047  0.1152
15148TIP3    H266936   0.561   6.904  11.281  0.6270  0.4574 -0.8089
15149TIP3   OH266937   2.988   5.237  13.657 -0.3943 -0.0651 -0.0821
15149TIP3    H166938   2.903   5.195  13.641 -0.6890 -0.7603  2.6933
15149TIP3    H266939   3.045   5.165  13.686  1.3196  0.3330 -2.2277
15150TIP3   OH266940   0.136   5.527  14.097 -0.2950  0.2099 -0.5602
15150TIP3    H166941   0.212   5.576  14.066 -0.9652  1.5229 -0.1836
15150TIP3    H266942   0.103   5.578  14.170  0.1972 -1.8904  1.2390
15151TIP3   OH266943   1.097   0.388  12.777 -0.1974  0.2914 -0.2552
15151TIP3    H166944   1.140   0.305  12.799  1.8390  1.5818  0.9563
15151TIP3    H266945   1.100   0.392  12.682  0.1074 -0.8110 -0.3060
15152TIP3   OH266946   4.731   4.902  11.426  0.4626  0.4362  0.0022
15152TIP3    H166947   4.646   4.868  11.400  0.3655  1.2335 -0.7663
15152TIP3    H266948   4.793   4.833  11.402  0.0815 -0.0054  0.2565
15153TIP3   OH266949   4.973   6.171   2.289 -0.2962  0.4906 -0.4422
15153TIP3    H166950   4.879   6.177   2.308  0.0732  0.0222  1.6996
15153TIP3    H266951   5.005   6.261   2.300 -0.0069  0.1648  1.9173
15154TIP3   OH266952   2.827   0.798   0.929  0.3303  0.4938  0.1982
15154TIP3    H166953   2.737   0.821   0.905  0.5780  1.8376  0.4682
15154TIP3    H266954   2.849   0.859   0.999  1.2834 -0.1657  0.4925
15155TIP3   OH266955   1.950   0.633   0.895  0.3202  0.6214 -0.0529
15155TIP3    H166956   1.952   0.678   0.980 -1.2682  0.1293  0.2746
15155TIP3    H266957   1.996   0.693   0.836 -0.2256  1.8902  0.7467
15156TIP3   OH266958   0.018   0.474  12.657 -0.2559 -0.1060 -0.2130
15156TIP3    H166959   0.089   0.412  12.640  0.3368  0.5102 -0.0102
15156TIP3    H266960   0.046   0.522  12.735 -0.2522  1.0954 -0.9346
15157TIP3   OH266961   0.805   5.337   6.015  0.4203 -0.1668  0.0906
15157TIP3    H166962   0.825   5.420   6.058 -2.0569  1.0137 -0.8515
15157TIP3    H266963   0.790   5.275   6.087  3.1727 -0.1489  0.8077
15158TIP3   OH266964   1.384   6.490  16.903  0.6572  0.3383  0.1610
15158TIP3    H166965   1.370   6.542  16.824  0.2272 -1.6984 -1.1722
15158TIP3    H266966   1.313   6.426  16.903 -0.3174  1.2320  3.0952
15159TIP3   OH266967   5.018   4.821  14.222 -0.0437  0.0712 -0.0806
15159TIP3    H166968   5.068   4.780  14.151  1.7240 -0.1726  1.2517
15159TIP3    H266969   4.967   4.750  14.260  0.1966 -0.1248 -0.1218
15160TIP3   OH266970   0.435   0.536  13.440 -0.2079  0.2416  0.0031
15160TIP3    H166971   0.461   0.553  13.350  1.1491 -0.4875  0.2426
15160TIP3    H266972   0.376   0.461  13.434  1.1409 -0.8335 -0.1400
15161TIP3   OH266973   2.356   5.563  13.882 -0.4431  0.0700 -0.8010
15161TIP3    H166974   2.303   5.485  13.866 -2.7196  1.5103 -0.6961
15161TIP3    H266975   2.397   5.582  13.798 -0.5059 -0.7814 -1.0351
15162TIP3   OH266976   3.727   6.809   3.459 -0.4019 -0.4675  0.0194
15162TIP3    H166977   3.659   6.749   3.427 -1.1033 -0.2587  1.0724
15162TIP3    H266978   3.684   6.894   3.463  0.0254 -0.2680  0.3641
15163TIP3   OH266979   4.138   2.936  15.841 -0.3051  0.6152 -0.1269
15163TIP3    H166980   4.101   2.860  15.798  0.2172  1.0363 -1.3770
15163TIP3    H266981   4.137   2.915  15.934 -3.5925  0.5899 -0.0643
15164TIP3   OH266982   0.887   3.697  16.239 -0.3145 -0.5559  0.0161
15164TIP3    H166983   0.963   3.704  16.297 -1.9650 -0.2765  2.2767
15164TIP3    H266984   0.867   3.788  16.215  0.2831 -0.6610 -0.9406
15165TIP3   OH266985   6.688   2.277   2.353 -1.1620  0.2228 -0.6990
15165TIP3    H166986   6.691   2.223   2.433 -1.2914 -0.4283 -1.1266
15165TIP3    H266987   6.600   2.263   2.319 -1.0938  0.4778 -0.9778
15166TIP3   OH266988   5.244   5.375   2.192  0.2473 -0.1549  0.3209
15166TIP3    H166989   5.325   5.408   2.231  0.0660  1.4300 -0.5403
15166TIP3    H266990   5.186   5.451   2.191 -0.9772 -1.0636  0.1772
15167TIP3   OH266991   5.770   3.969  12.621  0.0897  0.3016  0.0384
15167TIP3    H166992   5.822   3.895  12.588 -1.0035 -0.6937  0.4766
15167TIP3    H266993   5.833   4.041  12.629  1.5886 -1.0673  1.2988
15168TIP3   OH266994   0.900   3.471  12.466  0.0592  0.2209 -0.1276
15168TIP3    H166995   0.924   3.473  12.559  0.2472 -0.1091 -0.1665
15168TIP3    H266996   0.966   3.525  12.423 -0.5703  1.1541  0.0421
15169TIP3   OH266997   5.466   3.381   1.400  0.4771 -0.3324  0.7526
15169TIP3    H166998   5.393   3.422   1.354 -1.3154 -1.2147  2.6690
15169TIP3    H266999   5.441   3.288   1.406  2.1056 -0.7899  0.8318
15170TIP3   OH267000   4.029   5.524  15.042  0.0722  0.3644  0.0824
15170TIP3    H167001   3.997   5.437  15.016  1.9718  0.4201 -2.9818
15170TIP3    H267002   4.099   5.505  15.105  1.1853 -0.4739 -1.3443
15171TIP3   OH267003   0.536   2.527   5.227 -0.4711 -0.3901  0.6043
15171TIP3    H167004   0.489   2.459   5.276 -1.1618  0.8370  1.7229
15171TIP3    H267005   0.622   2.532   5.269  0.3780 -1.9295 -0.7943
15172TIP3   OH267006   0.716   3.710   4.717 -0.4408  0.1342  0.2120
15172TIP3    H167007   0.780   3.710   4.787  2.0784  0.0350 -1.9217
15172TIP3    H267008   0.727   3.794   4.673 -1.4277 -0.0771 -0.4868
15173TIP3   OH267009   4.701   5.880   2.393 -0.6035 -0.4759  0.1243
15173TIP3    H167010   4.734   5.942   2.329 -2.5848  0.1151 -0.3928
15173TIP3    H267011   4.695   5.797   2.346 -1.3975 -0.1993 -0.2816
15174TIP3   OH267012   2.041   4.344   2.971  0.4357 -0.2605  0.1232
15174TIP3    H167013   1.987   4.286   2.918  0.5532 -1.0362  0.8255
15174TIP3    H267014   2.089   4.398   2.908  0.3550 -0.9578 -0.5434
15175TIP3   OH267015   2.260   4.617   1.616  0.3155 -0.0580 -0.1320
15175TIP3    H167016   2.226   4.695   1.659  1.0159  1.3501 -1.9564
15175TIP3    H267017   2.185   4.558   1.609 -0.1677  0.3186  1.5080
15176TIP3   OH267018   5.202   6.794  14.034  0.2789  0.1430  0.1279
15176TIP3    H167019   5.280   6.847  14.016  0.9629 -1.4370 -1.8563
15176TIP3    H267020   5.182   6.751  13.952 -1.9372 -0.5512  0.9480
15177TIP3   OH267021   4.999   3.486   4.748 -0.0242  0.0924  0.0910
15177TIP3    H167022   4.972   3.576   4.732 -1.1839  0.0514  1.6168
15177TIP3    H267023   4.918   3.440   4.769  0.9726 -0.4040  3.2715
15178TIP3   OH267024   3.006   3.257   0.629 -0.5015  0.6183  0.0039
15178TIP3    H167025   2.937   3.281   0.567 -0.1305 -0.4244 -0.8676
15178TIP3    H267026   2.963   3.197   0.690 -1.1210  2.4303  1.4255
15179TIP3   OH267027   4.659   3.922   0.979  0.0294  0.4205 -0.1640
15179TIP3    H167028   4.604   3.907   0.902  0.1394 -0.8609 -0.0231
15179TIP3    H267029   4.749   3.911   0.947  0.0444 -2.9888  0.5907
15180TIP3   OH267030   5.458   0.284  11.960 -0.2117  0.3850 -0.3311
15180TIP3    H167031   5.364   0.277  11.980 -0.1137  0.9211  0.3535
15180TIP3    H267032   5.501   0.275  12.044  0.2465  2.2295 -0.3089
15181TIP3   OH267033   0.829   2.175   2.852 -0.2175 -0.0551  0.3125
15181TIP3    H167034   0.798   2.247   2.798 -0.1919 -0.8614 -0.8033
15181TIP3    H267035   0.924   2.188   2.859 -0.0121 -0.7005 -1.0150
15182TIP3   OH267036   4.828   2.401   2.472  0.6291  0.0803 -0.7514
15182TIP3    H167037   4.844   2.353   2.391 -3.7260 -0.5953 -1.4676
15182TIP3    H267038   4.807   2.490   2.444 -0.8786 -0.1479 -0.4431
15183TIP3   OH267039   3.300   0.239   4.899  0.6186 -1.1196 -0.2868
15183TIP3    H167040   3.358   0.174   4.940  1.8556  0.0488 -0.0944
15183TIP3    H267041   3.314   0.319   4.951  1.3818  0.0999 -2.2594
15184TIP3   OH267042   2.421   5.884  15.553 -0.3249 -0.1174 -0.5235
15184TIP3    H167043   2.470   5.939  15.491  1.2425  1.3637  1.8889
15184TIP3    H267044   2.338   5.930  15.564 -0.1807  0.1901 -0.7007
15185TIP3   OH267045   2.403   0.641  13.565 -0.2367 -0.4472 -0.1226
15185TIP3    H167046   2.350   0.716  13.589 -0.3328 -0.4929 -0.1907
15185TIP3    H267047   2.489   0.677  13.541 -0.0719 -0.4200  0.4956
15186TIP3   OH267048   4.754   5.455  16.189  0.0333  0.3053  0.3157
15186TIP3    H167049   4.750   5.495  16.103 -0.1048 -1.7866 -0.7059
15186TIP3    H267050   4.835   5.404  16.189  0.2529  0.6167  1.5865
15187TIP3   OH267051   3.876   5.526   5.219 -0.0996  0.6518 -0.1822
15187TIP3    H167052   3.821   5.489   5.289 -0.0348 -2.6347 -1.6889
15187TIP3    H267053   3.814   5.572   5.162 -0.2135  2.9800  1.6724
15188TIP3   OH267054   4.641   2.029   5.789 -0.3377  0.5175  1.0280
15188TIP3    H167055   4.720   1.975   5.787 -0.7208 -0.0601  1.4124
15188TIP3    H267056   4.675   2.119   5.788  0.3619  0.2827  1.9012
15189TIP3   OH267057   0.130   5.796   1.807  0.3696 -0.3367 -0.5676
15189TIP3    H167058   0.181   5.876   1.823  1.8908 -1.0323 -1.6082
15189TIP3    H267059   0.070   5.820   1.737  0.9324 -0.1322 -0.9916
15190TIP3   OH267060   0.526   2.180  12.358  0.0757 -0.4911 -0.3831
15190TIP3    H167061   0.605   2.234  12.362 -0.6729  0.5568  0.5341
15190TIP3    H267062   0.535   2.132  12.276  1.1351  0.4373 -0.8373
15191TIP3   OH267063   6.732   6.008   1.733 -0.2926  0.7787  0.0087
15191TIP3    H167064   6.662   5.956   1.773  0.5082 -0.0262  0.4060
15191TIP3    H267065   6.713   6.098   1.760 -0.3934  0.3919  1.3009
15192TIP3   OH267066   4.568   1.783   5.890  0.1120 -0.0065  0.6949
15192TIP3    H167067   4.552   1.814   5.979  1.2715  1.1588  0.5306
15192TIP3    H267068   4.579   1.863   5.838  0.6864 -0.6687 -0.2505
15193TIP3   OH267069   0.051   6.676  15.587 -0.7257  0.2047  0.1823
15193TIP3    H167070  -0.017   6.735  15.616 -0.4000  0.9204 -0.4727
15193TIP3    H267071   0.125   6.732  15.566 -1.4254  0.0092 -3.5373
15194TIP3   OH267072   1.386   2.037  11.503 -0.5661 -0.2157 -0.6148
15194TIP3    H167073   1.336   2.117  11.491 -0.1786  0.0217 -0.6504
15194TIP3    H267074   1.395   2.001  11.415 -2.6819 -1.4989 -0.3886
15195TIP3   OH267075   0.400   4.363   4.196 -0.2205 -0.4133 -0.1098
15195TIP3    H167076   0.464   4.409   4.143  0.3345 -0.2494  0.6766
15195TIP3    H267077   0.442   4.280   4.218 -0.0776 -0.1098  0.7979
15196TIP3   OH267078   4.224   1.466  12.866 -0.1333 -0.6921  0.3354
15196TIP3    H167079   4.139   1.477  12.824  0.3225 -0.4670 -0.5736
15196TIP3    H267080   4.231   1.541  12.926 -1.7514 -2.2272  2.6171
15197TIP3   OH267081   3.385   5.166   4.703 -0.0528 -0.4678 -0.2790
15197TIP3    H167082   3.444   5.154   4.777  0.9704 -1.4292 -1.2247
15197TIP3    H267083   3.330   5.240   4.728  2.5165  1.4744  0.0321
15198TIP3   OH267084   6.461   1.866   2.005  0.3536 -0.2124 -0.4879
15198TIP3    H167085   6.413   1.784   2.000 -0.1555  0.0578 -0.1276
15198TIP3    H267086   6.536   1.846   2.060  0.2382 -0.4406 -0.4094
15199TIP3   OH267087   4.758   0.828  16.902  0.3680  0.2271  0.4105
15199TIP3    H167088   4.679   0.843  16.953 -0.0204 -0.7199  0.1031
15199TIP3    H267089   4.793   0.745  16.934  1.0848  0.4907  0.3432
15200TIP3   OH267090   2.305   2.373  15.068 -0.1729 -0.2336  0.0406
15200TIP3    H167091   2.278   2.362  15.159  1.1362  1.9199  0.7320
15200TIP3    H267092   2.276   2.461  15.044  1.0155 -0.1144 -1.0662
15201TIP3   OH267093   5.700   2.665  13.815  0.0773 -0.3155  0.1694
15201TIP3    H167094   5.746   2.745  13.839 -1.6915  1.2968 -1.4440
15201TIP3    H267095   5.696   2.667  13.720 -3.2700 -0.2793  0.1729
15202TIP3   OH267096   6.149   6.162   5.880  0.3745 -0.0075 -0.4817
15202TIP3    H167097   6.192   6.244   5.855  0.5125 -0.6534 -2.5153
15202TIP3    H267098   6.186   6.097   5.821 -0.4953 -1.3572  0.4191
15203TIP3   OH267099   1.425   1.729  14.459  0.2093  0.0218  0.3708
15203TIP3    H167100   1.507   1.709  14.504 -0.2903  0.4756  1.5056
15203TIP3    H267101   1.416   1.824  14.466 -0.0910  0.0551 -0.3325
15204TIP3   OH267102   1.342   5.072   2.774 -0.0811  0.3747 -0.0345
15204TIP3    H167103   1.380   5.026   2.849  1.8169  0.0134 -1.1508
15204TIP3    H267104   1.276   5.012   2.740  0.3852 -0.2809  0.2107
15205TIP3   OH267105   1.242   1.109  15.704  0.1647  0.4776 -0.0771
15205TIP3    H167106   1.285   1.025  15.721 -1.5275 -0.2721  0.7401
15205TIP3    H267107   1.242   1.118  15.609  2.1496  0.5598 -0.1126
15206TIP3   OH267108   2.627   2.405  15.454  0.3378  0.0761  0.2347
15206TIP3    H167109   2.589   2.487  15.484  1.0412  0.3289  0.4273
15206TIP3    H267110   2.716   2.404  15.488  0.2473 -0.9060  0.4935
15207TIP3   OH267111   5.228   3.582   4.245 -0.3614 -0.1012 -0.4139
15207TIP3    H167112   5.308   3.631   4.227 -0.5678 -0.5624 -3.0342
15207TIP3    H267113   5.160   3.628   4.195 -0.7785 -2.3308 -2.0398
15208TIP3   OH267114   6.126   3.027   4.553 -0.3276 -0.4107  0.5665
15208TIP3    H167115   6.100   3.007   4.643 -0.0325 -1.4449  0.4348
15208TIP3    H267116   6.121   2.943   4.507  0.6060 -0.1134 -0.1076
15209TIP3   OH267117   2.865   0.199  13.391 -0.0891 -0.3814  0.8967
15209TIP3    H167118   2.898   0.256  13.460 -1.3621  2.0006 -0.3505
15209TIP3    H267119   2.812   0.134  13.437  1.3417 -0.5776  2.3551
15210TIP3   OH267120   6.753   4.297   2.046 -0.1377 -0.0501  0.2336
15210TIP3    H167121   6.765   4.202   2.051 -0.4314 -0.2521 -1.8856
15210TIP3    H267122   6.658   4.309   2.051 -0.2497 -0.0675 -1.2750
15211TIP3   OH267123   0.338   4.084  15.637  0.0315 -0.0445 -0.1634
15211TIP3    H167124   0.330   4.094  15.542  0.3210 -0.1721 -0.1999
15211TIP3    H267125   0.360   3.992  15.650 -1.4974 -0.4081  0.1186
15212TIP3   OH267126   3.456   5.390   5.475  0.0029 -0.1266  0.2083
15212TIP3    H167127   3.549   5.387   5.497 -0.1028  2.3569  1.4202
15212TIP3    H267128   3.444   5.324   5.407  2.5612 -0.7698  0.3034
15213TIP3   OH267129   4.185   3.479   6.807 -0.5939  0.3321  0.1862
15213TIP3    H167130   4.280   3.479   6.802 -0.5731  2.7747 -1.2418
15213TIP3    H267131   4.158   3.395   6.769  0.9528  0.6195 -1.6821
15214TIP3   OH267132   2.693   0.558   0.801  0.0388 -0.2331 -0.0022
15214TIP3    H167133   2.681   0.481   0.856  2.1890 -1.3771 -1.0186
15214TIP3    H267134   2.785   0.581   0.811 -0.1329  1.0982 -1.1307
15215TIP3   OH267135   3.624   2.357  13.519  0.2500 -0.4312 -0.0050
15215TIP3    H167136   3.606   2.265  13.501  0.8406 -0.5906  0.1991
15215TIP3    H267137   3.630   2.397  13.432 -0.0707 -0.5685 -0.0935
15216TIP3   OH267138   1.043   3.494  14.333  0.1898  0.1579 -0.2988
15216TIP3    H167139   1.026   3.512  14.240 -1.0427  0.6919  0.0109
15216TIP3    H267140   1.037   3.579  14.376  2.4767  0.1958  0.0665
15217TIP3   OH267141   5.944   0.184  16.203 -0.3331 -0.2483 -0.6169
15217TIP3    H167142   5.880   0.229  16.148 -1.0480 -1.7470 -1.0554
15217TIP3    H267143   5.923   0.212  16.292 -1.8534 -0.9785 -0.7113
15218TIP3   OH267144   3.564   5.737  14.721  0.1612  0.3996  0.7283
15218TIP3    H167145   3.565   5.821  14.675 -1.5346 -0.4990 -1.1059
15218TIP3    H267146   3.478   5.733  14.762  0.5895 -0.0675  1.6125
15219TIP3   OH267147   2.968   5.867  11.252  0.4545 -0.2092  0.2226
15219TIP3    H167148   2.955   5.874  11.157 -2.3690  1.0040  0.6159
15219TIP3    H267149   3.061   5.845  11.261  0.8732 -0.1633 -2.7968
15220TIP3   OH267150   6.464   2.217   0.480  0.0269  0.0510 -0.1384
15220TIP3    H167151   6.490   2.266   0.402  0.5737  1.7584  1.0520
15220TIP3    H267152   6.383   2.260   0.509  0.0634 -0.2904  0.4739
15221TIP3   OH267153   1.563   3.889  12.314  0.1614  0.4748 -0.2403
15221TIP3    H167154   1.649   3.848  12.319 -0.1644 -0.3747 -1.1411
15221TIP3    H267155   1.559   3.927  12.226  0.2481  1.9984  0.4006
15222TIP3   OH267156   4.533   4.835   5.261  0.2266 -0.0077  0.1060
15222TIP3    H167157   4.585   4.883   5.326 -1.0962  0.0715  1.1689
15222TIP3    H267158   4.501   4.758   5.309 -0.1983 -0.3264 -0.6714
15223TIP3   OH267159   4.896   6.439  11.917 -0.8094  0.1039  0.0518
15223TIP3    H167160   4.980   6.400  11.941 -0.5716 -0.2596 -1.3303
15223TIP3    H267161   4.889   6.516  11.974 -0.8032 -1.3042  2.0838
15224TIP3   OH267162   1.182   1.873   4.260 -0.0835  0.1023 -0.0540
15224TIP3    H167163   1.239   1.927   4.205  1.3772 -1.9043 -0.6309
15224TIP3    H267164   1.242   1.811   4.304 -1.3280  0.8370  2.9250
15225TIP3   OH267165   1.825   2.486  15.518  0.4092  0.0065 -0.4564
15225TIP3    H167166   1.912   2.475  15.555  0.4284 -0.6665 -0.6886
15225TIP3    H267167   1.788   2.560  15.565  0.8141 -0.1957  0.1901
15226TIP3   OH267168   3.572   1.073   2.545 -0.6873 -0.4313  0.2919
15226TIP3    H167169   3.537   1.013   2.611 -0.2295  0.1360  1.0683
15226TIP3    H267170   3.551   1.160   2.578 -0.2716 -0.1337 -0.2124
15227TIP3   OH267171   6.057   2.012   3.309  0.3753 -0.3683 -0.0632
15227TIP3    H167172   5.975   1.967   3.288 -0.0876  1.6243 -3.1683
15227TIP3    H267173   6.118   1.983   3.241  1.1368  0.8983  0.0485
15228TIP3   OH267174   3.311   4.218  11.729 -0.7652  0.0350  0.0524
15228TIP3    H167175   3.280   4.176  11.649 -0.9946 -0.2897  0.3060
15228TIP3    H267176   3.388   4.267  11.703 -0.4886 -0.5560 -0.2566
15229TIP3   OH267177   4.709   2.150   0.907 -0.6799 -0.0063  0.1609
15229TIP3    H167178   4.645   2.212   0.942  1.1370  1.6455  0.7324
15229TIP3    H267179   4.772   2.204   0.859  0.1982 -1.5838 -0.5463
15230TIP3   OH267180   3.026   2.999   4.277 -0.1785  0.5814  0.1343
15230TIP3    H167181   3.061   3.003   4.188 -0.6210  0.8412 -0.0331
15230TIP3    H267182   3.032   2.907   4.302  0.3083  0.5707 -0.0153
15231TIP3   OH267183   2.124   0.265   1.319 -0.3859 -0.2336  0.2219
15231TIP3    H167184   2.132   0.249   1.413  1.9218  0.0339  0.1338
15231TIP3    H267185   2.199   0.320   1.298 -1.5757  0.8164 -1.5829
15232TIP3   OH267186   0.653   2.210   4.015  0.2872  0.2589  0.0419
15232TIP3    H167187   0.590   2.258   4.068  2.0632  0.9452  1.6484
15232TIP3    H267188   0.665   2.265   3.937  0.1761  0.9755  0.5238
15233TIP3   OH267189   4.980   2.331   0.357 -0.1083  0.2034 -0.5835
15233TIP3    H167190   4.997   2.399   0.422  1.5118  0.1200 -0.8861
15233TIP3    H267191   5.064   2.318   0.313 -0.5986 -1.3879 -1.1190
15234TIP3   OH267192   2.080   4.414   3.925 -0.2932  0.3740 -0.0459
15234TIP3    H167193   2.093   4.472   4.001 -0.3550  1.8022 -1.0757
15234TIP3    H267194   1.999   4.444   3.886  1.3907  2.0044 -2.5962
15235TIP3   OH267195   1.121   5.516  13.391  0.3821 -0.8686 -0.0607
15235TIP3    H167196   1.084   5.487  13.308  0.5528 -0.9833 -0.0974
15235TIP3    H267197   1.045   5.531  13.447  0.1796  0.6030 -0.6840
15236TIP3   OH267198   1.093   4.690   4.085  0.1623  0.6225 -0.1162
15236TIP3    H167199   1.176   4.665   4.127  0.7951  2.0538 -0.4782
15236TIP3    H267200   1.117   4.758   4.023 -1.3963  1.5748  0.2863
15237TIP3   OH267201   5.353   3.232  15.675  0.5712  0.4843 -0.6083
15237TIP3    H167202   5.270   3.198  15.709  1.4964 -1.0479  0.2539
15237TIP3    H267203   5.366   3.315  15.721  0.3865 -0.1635  0.6705
15238TIP3   OH267204   6.215   4.022  11.220 -0.2136 -0.8124 -0.0968
15238TIP3    H167205   6.308   4.000  11.217  0.2934  1.1657 -0.5373
15238TIP3    H267206   6.195   4.029  11.313 -0.0212 -1.5990  0.0074
15239TIP3   OH267207   5.249   3.780  15.740 -0.7885  0.9005  0.2688
15239TIP3    H167208   5.287   3.825  15.816 -0.8024 -1.1281  1.5658
15239TIP3    H267209   5.174   3.731  15.777 -0.9698  0.0970 -1.1069
15240TIP3   OH267210   1.588   0.888   5.543  0.5530  0.3131  0.0879
15240TIP3    H167211   1.565   0.796   5.556  0.5166  0.2200 -0.5883
15240TIP3    H267212   1.644   0.910   5.618  0.8496 -0.3545  0.0656
15241TIP3   OH267213   6.391   0.789   2.102  0.3951 -0.6018 -0.0113
15241TIP3    H167214   6.452   0.766   2.171  0.0196 -0.7273  0.2788
15241TIP3    H267215   6.413   0.730   2.030 -0.1741 -1.4764  0.5192
15242TIP3   OH267216   5.873   2.724   3.764 -0.4783 -0.0125  0.1889
15242TIP3    H167217   5.824   2.741   3.683 -1.3171  1.6888  1.0011
15242TIP3    H267218   5.814   2.670   3.816 -0.2422 -0.4863 -0.0315
15243TIP3   OH267219   6.707   4.734  14.770  0.0916  0.4702 -0.4926
15243TIP3    H167220   6.769   4.780  14.827 -1.5086  0.7868  1.1037
15243TIP3    H267221   6.760   4.702  14.697  2.1751  0.3922  0.9710
15244TIP3   OH267222   1.075   4.009   5.477 -0.3233 -0.1456 -0.3614
15244TIP3    H167223   1.008   4.019   5.544  0.3901  1.1016  0.2093
15244TIP3    H267224   1.156   4.039   5.520  0.1808  0.5095 -1.7131
15245TIP3   OH267225   6.479   4.949  15.975 -0.2058 -0.0150 -0.5100
15245TIP3    H167226   6.479   5.029  16.028  0.8595  0.4588 -1.1986
15245TIP3    H267227   6.568   4.943  15.939 -0.2639 -1.5113 -0.4826
15246TIP3   OH267228   2.694   1.153  12.647 -0.5998  0.3132  0.3033
15246TIP3    H167229   2.631   1.183  12.713 -1.2860  0.2302 -0.2998
15246TIP3    H267230   2.699   1.225  12.584  0.1662  0.4536  0.5143
15247TIP3   OH267231   5.755   6.674  13.504 -0.2834  0.4564 -0.0296
15247TIP3    H167232   5.754   6.598  13.562 -2.2016 -0.2377 -0.9017
15247TIP3    H267233   5.687   6.732  13.538 -0.0898  0.9473 -0.4585
15248TIP3   OH267234   1.460   4.083  12.474  0.1950 -0.1491 -0.1727
15248TIP3    H167235   1.471   4.008  12.415 -0.3512  0.6159 -1.2795
15248TIP3    H267236   1.529   4.144  12.448 -1.6502  1.3404 -1.8968
15249TIP3   OH267237   4.485   6.078   4.862  0.1703  0.3204  0.6243
15249TIP3    H167238   4.573   6.083   4.898  0.4840 -0.7517  0.0699
15249TIP3    H267239   4.440   6.155   4.896  1.8278  1.8400 -0.4945
15250TIP3   OH267240   0.364   1.362  11.530 -0.6031 -0.4648 -0.5349
15250TIP3    H167241   0.373   1.357  11.435  0.7932  2.8169 -0.6863
15250TIP3    H267242   0.453   1.372  11.563 -1.2116  0.8600  0.8698
15251TIP3   OH267243   6.784   6.125  15.890 -0.6712  0.5666 -0.2497
15251TIP3    H167244   6.810   6.074  15.966 -0.8353  0.2029 -0.4342
15251TIP3    H267245   6.860   6.121  15.831 -0.7384  0.4080 -0.3268
15252TIP3   OH267246   2.933   3.763   0.153  0.0608 -0.1918  0.1158
15252TIP3    H167247   2.839   3.767   0.169 -0.0035  1.7554 -0.5432
15252TIP3    H267248   2.950   3.671   0.134 -2.0047 -0.3173 -1.4538
15253TIP3   OH267249   3.308   3.176  14.668  0.3019 -0.0722  0.4738
15253TIP3    H167250   3.218   3.156  14.693  0.5863 -1.0851  0.7633
15253TIP3    H267251   3.358   3.101  14.700  1.1883  0.2897 -0.0383
15254TIP3   OH267252   1.889   5.670  12.729 -0.4656  0.1639  0.4485
15254TIP3    H167253   1.906   5.631  12.643 -0.5127  1.2619 -0.0797
15254TIP3    H267254   1.879   5.596  12.788  1.2949 -0.6031 -0.1509
15255TIP3   OH267255   2.051   4.620   2.198  0.1912  0.0610  0.4572
15255TIP3    H167256   2.017   4.701   2.160  1.0761  1.2937  2.1490
15255TIP3    H267257   2.004   4.550   2.152 -0.7900  1.5290 -0.8680
15256TIP3   OH267258   6.421   3.055   3.719  0.2581  0.3778  0.3848
15256TIP3    H167259   6.471   3.107   3.656 -1.8315  0.7274 -1.1096
15256TIP3    H267260   6.422   2.966   3.683  0.4322  0.2378  0.7392
15257TIP3   OH267261   3.092   5.427   2.383  0.4840  0.4348  0.6096
15257TIP3    H167262   3.084   5.455   2.291 -3.9855  2.1764  1.2889
15257TIP3    H267263   3.092   5.332   2.379  0.4202  0.4713 -1.1801
15258TIP3   OH267264   0.793   3.614   2.406 -0.2087 -0.5149 -0.2984
15258TIP3    H167265   0.713   3.656   2.438 -0.2749  0.7202 -1.9114
15258TIP3    H267266   0.864   3.671   2.435 -0.1683 -0.0854 -1.2070
15259TIP3   OH267267   2.862   0.886  11.024  0.3779 -0.5570 -0.0573
15259TIP3    H167268   2.953   0.885  10.996  0.1245  0.0017 -0.9688
15259TIP3    H267269   2.816   0.829  10.962  0.2561 -1.6552  1.0117
15260TIP3   OH267270   4.671   2.074  11.219  0.0445 -0.2868  0.0822
15260TIP3    H167271   4.670   1.999  11.159 -2.0674 -0.3760  0.1803
15260TIP3    H267272   4.711   2.145  11.167  0.0416 -0.8819 -0.7606
15261TIP3   OH267273   5.347   5.946  15.763  0.4042 -0.0962 -0.0003
15261TIP3    H167274   5.265   5.910  15.800 -0.5909  0.9207 -1.1373
15261TIP3    H267275   5.348   6.037  15.791  1.5681 -0.2842  0.6394
15262TIP3   OH267276   2.184   6.746   3.842 -0.0432  0.5956  0.6893
15262TIP3    H167277   2.163   6.747   3.749  0.3951  1.0789  0.5928
15262TIP3    H267278   2.270   6.705   3.848  0.8223  2.2898  0.6689
15263TIP3   OH267279   3.304   1.658   5.188  0.0812 -0.2195 -0.6620
15263TIP3    H167280   3.305   1.562   5.188 -0.5531 -0.2378 -1.3936
15263TIP3    H267281   3.241   1.681   5.120  0.2577  0.7229 -0.5187
15264TIP3   OH267282   6.363   0.031  11.914 -0.4029  0.2443 -0.6809
15264TIP3    H167283   6.432   0.006  11.853  0.6096  1.2174  0.0250
15264TIP3    H267284   6.352   0.126  11.900 -0.1609  0.4802  0.6123
15265TIP3   OH267285   3.032   3.781   1.364 -0.2748  0.3597 -0.1834
15265TIP3    H167286   2.939   3.764   1.382 -0.0087  0.1412  1.0696
15265TIP3    H267287   3.077   3.748   1.441  0.9088 -0.1238 -1.0616
15266TIP3   OH267288   0.873   5.604  12.301  0.5118 -0.3731  0.1546
15266TIP3    H167289   0.836   5.537  12.244  0.1949 -2.1771  2.2933
15266TIP3    H267290   0.967   5.587  12.301  0.1926 -3.1544  3.1654
15267TIP3   OH267291   0.874   6.847  10.942  0.0499 -0.5937 -0.0113
15267TIP3    H167292   0.900   6.897  11.019  0.4402 -2.0474  0.8359
15267TIP3    H267293   0.779   6.857  10.938 -0.2333 -1.9836  1.7981
15268TIP3   OH267294   6.731   5.228   5.625  0.0337  0.8557 -0.2708
15268TIP3    H167295   6.789   5.172   5.573 -2.4578 -0.6940 -1.5822
15268TIP3    H267296   6.687   5.284   5.562 -1.1319  0.8009  0.4520
15269TIP3   OH267297   1.251   2.930   1.145  0.2580  0.3190  0.3049
15269TIP3    H167298   1.261   2.835   1.138  1.9337  0.3799  1.1443
15269TIP3    H267299   1.169   2.943   1.192 -1.2776 -0.5954 -1.9725
15270TIP3   OH267300   0.082   4.160   6.764 -0.2922 -0.4171 -0.2053
15270TIP3    H167301   0.146   4.090   6.748  0.4951  0.1476  0.3953
15270TIP3    H267302   0.109   4.232   6.707 -1.3662 -0.7403 -1.1571
15271TIP3   OH267303   2.034   5.655  11.202 -0.9113  0.1248 -0.2677
15271TIP3    H167304   1.978   5.698  11.137 -1.3711 -1.1129 -0.7272
15271TIP3    H267305   1.973   5.605  11.256 -0.3891 -0.0198  0.1960
15272TIP3   OH267306   3.489   0.912   3.597 -0.2561 -0.4005  0.3200
15272TIP3    H167307   3.432   0.962   3.539 -0.0050 -1.5440 -0.9680
15272TIP3    H267308   3.543   0.859   3.538  1.0278 -0.5324  1.5600
15273TIP3   OH267309   6.003   2.176   0.378 -0.0853 -0.7553 -0.2784
15273TIP3    H167310   5.925   2.196   0.326  0.1562 -1.1661 -0.8020
15273TIP3    H267311   6.072   2.230   0.340  0.1391 -1.2077 -0.5112
15274TIP3   OH267312   6.205   3.223   5.926  0.0844 -0.4381  0.0915
15274TIP3    H167313   6.290   3.199   5.890  0.6514 -1.4434  1.9491
15274TIP3    H267314   6.225   3.272   6.006 -1.0424 -1.0202  0.7622
15275TIP3   OH267315   1.176   0.690   5.032  0.2880  0.2351  0.3654
15275TIP3    H167316   1.152   0.611   5.081  0.3981  0.6667  1.1317
15275TIP3    H267317   1.264   0.672   4.999  0.2381 -0.0392  0.3815
15276TIP3   OH267318   2.076   4.091   0.866  0.3607  1.1580 -0.5126
15276TIP3    H167319   2.107   4.140   0.790  1.9663 -1.0544 -1.3956
15276TIP3    H267320   1.989   4.059   0.841  0.5464  1.1073 -1.1012
15277TIP3   OH267321   2.432   1.152   0.971  0.2959 -0.2115 -0.3318
15277TIP3    H167322   2.338   1.166   0.985 -0.0273 -0.8052 -1.7529
15277TIP3    H267323   2.438   1.063   0.938  1.5619 -0.7887  1.3145
15278TIP3   OH267324   3.177   2.653   0.632  0.5725  0.2680  0.4365
15278TIP3    H167325   3.102   2.620   0.682 -0.0827 -0.7772 -1.1503
15278TIP3    H267326   3.193   2.586   0.566  2.1611  1.0415 -0.0187
15279TIP3   OH267327   2.382   4.484   5.831  0.4325  0.3362 -0.6299
15279TIP3    H167328   2.319   4.474   5.760  1.5874  3.3152 -2.2651
15279TIP3    H267329   2.465   4.454   5.794  0.7425  0.3425  0.0491
15280TIP3   OH267330   0.862   3.445  15.238  0.2259 -0.3354  0.1493
15280TIP3    H167331   0.878   3.372  15.178 -1.1926 -1.8470  1.4853
15280TIP3    H267332   0.934   3.442  15.300  1.5274  1.0376 -1.2067
15281TIP3   OH267333   3.979   3.588  15.950 -0.3641 -0.1046  0.1052
15281TIP3    H167334   3.886   3.587  15.928 -0.3773 -1.7570  0.1567
15281TIP3    H267335   3.992   3.513  16.007  0.6905  1.1248  1.5664
15282TIP3   OH267336   6.133   2.435   1.050  0.1795  0.0787 -0.2352
15282TIP3    H167337   6.145   2.361   0.990  0.4143 -0.5907  0.6112
15282TIP3    H267338   6.044   2.424   1.084 -0.3202  1.0189 -1.1840
15283TIP3   OH267339   3.150   0.143   2.351  0.7347  0.3693 -0.1948
15283TIP3    H167340   3.245   0.149   2.360  0.9767 -2.3320 -0.0535
15283TIP3    H267341   3.125   0.071   2.409 -1.2635  0.3557 -0.9865
15284TIP3   OH267342   4.024   5.793   3.363 -0.1858 -0.2817  0.0743
15284TIP3    H167343   3.979   5.774   3.446 -0.6673  2.2161  0.4563
15284TIP3    H267344   4.116   5.804   3.388  0.1184 -1.9257 -0.1669
15285TIP3   OH267345   0.554   2.509  11.193  0.2630  0.2575  0.2272
15285TIP3    H167346   0.494   2.528  11.121  0.5114 -0.9293 -0.3059
15285TIP3    H267347   0.632   2.473  11.152 -0.4371 -2.5726  1.1652
15286TIP3   OH267348   6.820   5.683   6.276  0.5478  0.3790  0.1441
15286TIP3    H167349   6.880   5.631   6.329  0.0004  0.3784  0.7675
15286TIP3    H267350   6.751   5.709   6.336 -0.1458  0.2751 -0.5966
15287TIP3   OH267351   5.080   4.413   3.954  0.3291  0.0392 -0.0582
15287TIP3    H167352   5.153   4.463   3.990  0.5321  0.0235 -0.4410
15287TIP3    H267353   5.105   4.395   3.863  0.2496 -0.7401  0.0661
15288TIP3   OH267354   4.797   3.648  13.146  0.3141  0.1892  0.7132
15288TIP3    H167355   4.892   3.640  13.157  0.2914 -0.1110  0.6981
15288TIP3    H267356   4.783   3.740  13.123  1.1210 -0.6537 -4.2947
15289TIP3   OH267357   3.181   1.286  14.554  0.1803  0.5800 -0.0978
15289TIP3    H167358   3.215   1.367  14.518 -0.0468  1.2698  1.1626
15289TIP3    H267359   3.177   1.225  14.480  1.0000  1.5015 -0.9143
15290TIP3   OH267360   3.209   3.048  16.511 -0.3531 -0.1715 -0.1522
15290TIP3    H167361   3.246   2.964  16.482 -0.7442 -0.2974 -0.3035
15290TIP3    H267362   3.267   3.077  16.581  0.0724 -0.3251 -0.4387
15291TIP3   OH267363   3.759   0.628  14.578 -0.6627 -0.2081 -0.4352
15291TIP3    H167364   3.695   0.559  14.560 -2.5364  1.0999  0.8379
15291TIP3    H267365   3.712   0.690  14.634  0.6601  2.4981 -2.1143
15292TIP3   OH267366   1.499   5.572   2.913 -0.2525 -0.0542 -0.7877
15292TIP3    H167367   1.455   5.527   2.985  2.7006 -1.3705  0.3383
15292TIP3    H267368   1.471   5.663   2.921  0.9696  0.1687  2.9985
15293TIP3   OH267369   5.929   2.950  11.811 -0.0908  0.3559  0.0397
15293TIP3    H167370   5.942   2.953  11.717  0.4872  0.1108  0.1083
15293TIP3    H267371   5.998   3.006  11.847 -0.0403  0.1071  0.3365
15294TIP3   OH267372   0.202   3.047  15.324 -0.4133 -0.1151 -0.3955
15294TIP3    H167373   0.150   2.976  15.362  0.3331 -0.4046  0.1200
15294TIP3    H267374   0.287   3.007  15.305  0.4385  0.8858  1.0295
15295TIP3   OH267375   6.651   5.820  11.708  0.2316  0.1914  0.2829
15295TIP3    H167376   6.601   5.869  11.642  3.2205  2.3246 -0.6315
15295TIP3    H267377   6.602   5.833  11.789 -1.3469  1.0688 -0.7465
15296TIP3   OH267378   5.048   6.751  15.934  0.5478 -1.1028  0.5990
15296TIP3    H167379   5.056   6.715  15.846  0.4487 -0.3608  0.2747
15296TIP3    H267380   4.954   6.767  15.944  0.7907  1.1273 -0.1411
15297TIP3   OH267381   3.246   6.420  11.671 -0.7250 -0.5280  0.3914
15297TIP3    H167382   3.221   6.333  11.638 -0.4724 -0.9777  1.3350
15297TIP3    H267383   3.303   6.401  11.746 -0.7674  0.4570  0.6830
15298TIP3   OH267384   1.580   5.635   5.101 -0.1916  0.1543 -0.2133
15298TIP3    H167385   1.599   5.667   5.013  0.7380 -2.2836 -0.9618
15298TIP3    H267386   1.616   5.703   5.159  0.8354  0.9323 -1.6926
15299TIP3   OH267387   6.516   5.589   6.448  0.2814 -0.1541  0.0357
15299TIP3    H167388   6.601   5.607   6.488 -0.9675 -1.3185  3.5550
15299TIP3    H267389   6.465   5.668   6.463 -0.4314 -0.8655  1.5990
15300TIP3   OH267390   3.384   0.336   1.459 -0.5812 -0.4754 -0.4775
15300TIP3    H167391   3.406   0.284   1.382  1.2838  1.2263 -1.1874
15300TIP3    H267392   3.316   0.285   1.504 -0.9434 -2.0356 -2.6377
15301TIP3   OH267393   2.594   5.324  14.590 -0.7335 -0.2325  0.9687
15301TIP3    H167394   2.634   5.384  14.528  0.5082 -0.0200  1.9390
15301TIP3    H267395   2.502   5.352  14.594 -0.4041  0.9593  0.6589
15302TIP3   OH267396   6.291   1.849   5.168 -0.3517  0.1037 -0.3409
15302TIP3    H167397   6.273   1.916   5.233  0.2064 -0.2550  0.1864
15302TIP3    H267398   6.354   1.890   5.108  1.2073 -0.4466  0.8594
15303TIP3   OH267399   2.772   3.285  12.828 -0.3027 -0.1262  0.1345
15303TIP3    H167400   2.743   3.366  12.871 -0.4085  0.4671 -0.9994
15303TIP3    H267401   2.828   3.316  12.756 -0.5303 -1.0444 -0.4547
15304TIP3   OH267402   0.990   3.060   1.276 -0.0783 -0.8149 -0.1105
15304TIP3    H167403   0.916   3.015   1.316 -1.3159  0.6072 -0.6679
15304TIP3    H267404   1.035   3.103   1.350 -0.9675 -0.1182  0.0466
15305TIP3   OH267405   2.913   6.795  10.743  0.0250  0.8779 -0.5177
15305TIP3    H167406   2.902   6.715  10.794 -1.6909  1.1528 -0.3684
15305TIP3    H267407   2.979   6.774  10.677  0.1811 -0.3917  0.0329
15306TIP3   OH267408   6.362   4.040  15.124 -0.2288 -0.5468  0.1620
15306TIP3    H167409   6.455   4.057  15.138  0.0555 -0.5744 -1.4907
15306TIP3    H267410   6.319   4.125  15.135  0.1453 -0.3064 -0.2212
15307TIP3   OH267411   0.213   5.184  15.142  0.0198  0.1187 -0.3235
15307TIP3    H167412   0.231   5.197  15.048  0.0087 -0.9540 -0.4883
15307TIP3    H267413   0.125   5.148  15.145  0.6769 -1.5735 -0.0568
15308TIP3   OH267414   0.096   3.516  13.263 -0.2075  0.0649  0.0741
15308TIP3    H167415   0.169   3.478  13.311 -0.2246 -2.0183 -1.4014
15308TIP3    H267416   0.137   3.566  13.192 -0.2183  1.5323  1.0564
15309TIP3   OH267417   6.274   4.344   5.253 -0.3009 -0.5934  0.0787
15309TIP3    H167418   6.184   4.367   5.275 -0.3896 -0.6532 -0.2215
15309TIP3    H267419   6.300   4.282   5.322  0.2854  1.1330  1.4872
15310TIP3   OH267420   2.683   5.118  16.841 -0.7898  0.2836 -0.4645
15310TIP3    H167421   2.594   5.089  16.824 -1.3168  1.2099  0.6034
15310TIP3    H267422   2.678   5.213  16.844 -0.1443  0.3153  1.4040
15311TIP3   OH267423   1.156   6.803   5.622 -0.3153 -0.6984 -0.0956
15311TIP3    H167424   1.119   6.749   5.691  1.5176 -1.3723  0.4008
15311TIP3    H267425   1.126   6.761   5.541 -2.3391  0.0052  0.2220
15312TIP3   OH267426   1.764   2.864   3.505  0.4183 -0.8466  0.4002
15312TIP3    H167427   1.749   2.959   3.506  0.1994 -0.8698 -0.3281
15312TIP3    H267428   1.755   2.839   3.413 -2.4556 -2.0270  0.9034
15313TIP3   OH267429   1.436   0.056  12.873  0.1826  0.0906 -0.0941
15313TIP3    H167430   1.464   0.148  12.878  1.7163 -0.3745  0.3239
15313TIP3    H267431   1.399   0.038  12.959 -0.1017  0.3023 -0.1692
15314TIP3   OH267432   2.034   5.079   5.070  0.0920  0.1047 -0.3069
15314TIP3    H167433   1.941   5.091   5.047  0.0876  0.1271 -0.2769
15314TIP3    H267434   2.063   5.008   5.013  0.0724  0.1409 -0.3622
15315TIP3   OH267435   2.655   0.059  10.680  0.8666 -0.1657  0.0981
15315TIP3    H167436   2.642   0.136  10.737  2.5547 -0.7784  1.3896
15315TIP3    H267437   2.738   0.022  10.709  0.2756 -2.2757 -0.7765
15316TIP3   OH267438   5.213   4.780   3.424 -0.0097 -0.2218 -0.4782
15316TIP3    H167439   5.182   4.821   3.505 -0.5788 -1.8077  0.1499
15316TIP3    H267440   5.175   4.834   3.355 -2.2431 -0.6689  0.3019
15317TIP3   OH267441   3.676   3.502  14.119  0.1467  0.6894  0.3126
15317TIP3    H167442   3.648   3.515  14.210  1.6625  0.8370  0.7974
15317TIP3    H267443   3.660   3.587  14.077 -0.3795  0.6797  0.4814
15318TIP3   OH267444   5.172   5.772   5.647  0.0228 -0.2158  1.1340
15318TIP3    H167445   5.199   5.724   5.568 -1.1123  2.1478 -0.8317
15318TIP3    H267446   5.245   5.831   5.665 -0.4768  0.5337  0.7215
15319TIP3   OH267447   0.467   0.534  14.232  0.6067  0.0843 -0.6154
15319TIP3    H167448   0.540   0.551  14.173  2.3302  3.2699  2.1025
15319TIP3    H267449   0.395   0.586  14.197  1.2316  0.9791 -0.5808
15320TIP3   OH267450   6.380   3.448   0.912  0.1669 -0.2765 -0.2805
15320TIP3    H167451   6.321   3.515   0.876  0.8566 -0.6497 -2.1753
15320TIP3    H267452   6.467   3.480   0.892  0.5716 -0.6927  0.7648
15321TIP3   OH267453   1.670   6.283  13.221  0.2676  0.2998  0.3172
15321TIP3    H167454   1.657   6.219  13.291 -1.2178 -0.4212 -0.5664
15321TIP3    H267455   1.746   6.250  13.172 -1.0195 -1.3928 -0.6805
15322TIP3   OH267456   4.887   3.074   4.236  0.6614 -0.5011 -0.3161
15322TIP3    H167457   4.953   3.119   4.184 -0.3371 -1.0556 -2.1793
15322TIP3    H267458   4.804   3.103   4.199 -0.1262 -0.6930  1.2089
15323TIP3   OH267459   6.541   1.985   1.754 -1.0700 -0.5096  0.3348
15323TIP3    H167460   6.539   1.940   1.838  0.0837  1.3062  1.4102
15323TIP3    H267461   6.450   2.009   1.738 -1.1986 -0.1405  1.5184
15324TIP3   OH267462   0.263   0.595  14.071  0.0879 -0.7590  0.1693
15324TIP3    H167463   0.229   0.514  14.032 -0.8134  0.6484 -2.1815
15324TIP3    H267464   0.227   0.665  14.017  1.7583  1.1931  1.4153
15325TIP3   OH267465   2.881   5.848   6.796 -0.2667  0.3149 -0.4737
15325TIP3    H167466   2.944   5.917   6.819 -1.1910  1.1916 -0.5122
15325TIP3    H267467   2.935   5.778   6.759  0.7709  0.6988  0.2613
15326TIP3   OH267468   4.787   2.390   3.285  0.5803  0.6608 -0.3751
15326TIP3    H167469   4.791   2.296   3.299  2.1638  1.0280  2.5657
15326TIP3    H267470   4.715   2.403   3.224  0.7508 -2.4658 -1.3928
15327TIP3   OH267471   3.220   0.905   5.541 -0.3827 -0.1653 -0.2550
15327TIP3    H167472   3.280   0.969   5.503 -2.0186  0.7064 -1.5215
15327TIP3    H267473   3.157   0.887   5.471 -1.2535 -1.4971  0.8148
15328TIP3   OH267474   4.441   3.765   3.788 -0.1008 -0.1974 -0.0531
15328TIP3    H167475   4.365   3.808   3.826 -2.3403 -3.7090 -0.1590
15328TIP3    H267476   4.415   3.745   3.698  1.3370 -0.6310 -0.4014
15329TIP3   OH267477   2.197   4.640   5.024 -0.1293  0.2856 -0.7163
15329TIP3    H167478   2.211   4.600   4.938  1.3743 -0.6592 -0.0752
15329TIP3    H267479   2.249   4.586   5.084 -1.0508  0.9961  0.7784
15330TIP3   OH267480   3.644   4.759  10.742  0.2633 -0.1162  0.2905
15330TIP3    H167481   3.684   4.732  10.660  3.5331  0.5343  1.5354
15330TIP3    H267482   3.692   4.711  10.809  1.1114  2.9612  2.0891
15331TIP3   OH267483   6.673   5.941  15.590  0.7010  0.0911 -0.5261
15331TIP3    H167484   6.699   6.031  15.604 -2.1066  0.7380  1.4555
15331TIP3    H267485   6.719   5.891  15.656  0.0916  0.5672  0.2752
15332TIP3   OH267486   2.961   5.694  10.816  0.5749 -0.7434 -0.0697
15332TIP3    H167487   2.990   5.739  10.895  0.3741  0.7276 -0.8021
15332TIP3    H267488   3.022   5.724  10.748  0.1490 -1.2245 -0.6692
15333TIP3   OH267489   0.939   2.789  16.816  0.0929 -0.5857  0.0036
15333TIP3    H167490   0.862   2.802  16.870 -0.2638 -0.5903 -0.4960
15333TIP3    H267491   0.981   2.875  16.812 -1.3113  0.0681 -1.8600
15334TIP3   OH267492   4.567   1.079   4.967  0.3798 -0.4868 -0.8161
15334TIP3    H167493   4.624   1.034   5.030 -1.5924 -0.0836  1.3837
15334TIP3    H267494   4.555   1.167   5.005 -0.1216  0.0904 -2.2646
15335TIP3   OH267495   2.511   3.397   0.413 -0.0526 -0.1333  0.5222
15335TIP3    H167496   2.427   3.412   0.456 -0.3810 -0.3791 -0.0258
15335TIP3    H267497   2.549   3.485   0.404 -1.6469  0.3917 -2.0223
15336TIP3   OH267498   3.444   2.075  16.462 -0.1758 -0.3753 -0.3366
15336TIP3    H167499   3.424   2.168  16.463  0.8691 -0.1336 -0.5740
15336TIP3    H267500   3.365   2.034  16.426 -1.3986  0.1966  1.5647
15337TIP3   OH267501   6.150   4.096  16.403 -0.4198 -0.0395  0.4521
15337TIP3    H167502   6.095   4.157  16.354  0.8650  0.7007 -0.1257
15337TIP3    H267503   6.198   4.047  16.336 -2.3151 -2.6147  0.8671
15338TIP3   OH267504   2.043   3.502   4.707 -0.6361  0.2631  0.2228
15338TIP3    H167505   2.085   3.469   4.787 -1.5601  0.0178  0.6167
15338TIP3    H267506   2.114   3.545   4.659  0.0810 -0.2018  0.8383
15339TIP3   OH267507   5.747   4.686   1.971  0.2196  0.2475  0.1140
15339TIP3    H167508   5.683   4.714   2.036  0.6748  0.0556  0.6559
15339TIP3    H267509   5.798   4.764   1.952  0.7624  0.0645  0.7817
15340TIP3   OH267510   2.672   1.369   4.398 -1.0839  0.0851 -0.1966
15340TIP3    H167511   2.736   1.317   4.350 -0.6228 -3.5739  3.7749
15340TIP3    H267512   2.588   1.324   4.383 -1.3546  0.3428  0.5084
15341TIP3   OH267513   4.814   3.934  14.798 -0.0682 -0.0531 -0.0808
15341TIP3    H167514   4.879   3.868  14.774  0.4550  0.9331 -1.5040
15341TIP3    H267515   4.854   4.017  14.773 -2.0960  0.5610 -1.5670
15342TIP3   OH267516   1.835   3.608  16.451 -0.1434 -0.7283  0.1793
15342TIP3    H167517   1.870   3.688  16.413 -0.3828 -0.7245 -0.0423
15342TIP3    H267518   1.912   3.557  16.477  0.0644 -1.1254 -1.1300
15343TIP3   OH267519   1.594   5.950   3.559 -0.1456 -0.2797 -0.3073
15343TIP3    H167520   1.649   5.934   3.635 -0.2767  0.4855 -0.0432
15343TIP3    H267521   1.620   5.883   3.495  1.1326  0.1100 -0.2190
15344TIP3   OH267522   6.450   5.427   1.503  0.3915  0.1205 -0.8705
15344TIP3    H167523   6.472   5.517   1.529  0.0348  0.6569 -2.3018
15344TIP3    H267524   6.466   5.375   1.581  0.3542  1.4696  0.0819
15345TIP3   OH267525   0.364   4.632  12.775  0.3660  0.3709  0.0146
15345TIP3    H167526   0.442   4.617  12.829  1.1070  0.6497 -0.9590
15345TIP3    H267527   0.299   4.571  12.811  1.2588 -0.4150  0.3607
15346TIP3   OH267528   1.069   6.796   3.479 -0.4741  0.0265 -0.0180
15346TIP3    H167529   1.149   6.747   3.499 -1.5652 -2.0510 -0.4593
15346TIP3    H267530   1.099   6.873   3.430  1.2805 -0.4358  0.2910
15347TIP3   OH267531   4.418   4.181   0.691 -0.0118  0.0559  0.2022
15347TIP3    H167532   4.391   4.096   0.658  1.2748 -0.8561  1.3576
15347TIP3    H267533   4.426   4.169   0.786 -0.3782  1.6354  0.4755
15348TIP3   OH267534   1.204   3.885   0.430  0.1169  0.4930 -0.6609
15348TIP3    H167535   1.263   3.813   0.408 -0.0234  0.1262  0.1192
15348TIP3    H267536   1.159   3.905   0.348 -0.5294 -0.9568 -0.6932
15349TIP3   OH267537   4.951   4.057  12.601 -0.1846  0.3039  0.4359
15349TIP3    H167538   4.991   4.057  12.514  1.5705  1.1050  1.1922
15349TIP3    H267539   4.883   3.990  12.596 -0.7160  0.9176 -1.7852
15350TIP3   OH267540   6.388   0.754   3.539  0.1158  0.1955 -0.2662
15350TIP3    H167541   6.381   0.846   3.516 -0.7711  0.6338  1.5937
15350TIP3    H267542   6.374   0.707   3.456  0.0063  1.7072 -1.1249
15351TIP3   OH267543   1.348   5.996   3.708  0.3395 -0.0291  0.4638
15351TIP3    H167544   1.328   5.920   3.762  1.8198  0.2319  1.4454
15351TIP3    H267545   1.444   5.998   3.703  0.3398  1.7150  0.3979
15352TIP3   OH267546   1.631   2.381   0.199  0.1677  0.4513  0.5413
15352TIP3    H167547   1.570   2.332   0.144 -0.4900  0.6414  1.0898
15352TIP3    H267548   1.717   2.344   0.179 -0.0896  0.3858 -0.4635
15353TIP3   OH267549   3.233   5.367   5.721 -0.0865  0.1039 -0.3379
15353TIP3    H167550   3.255   5.457   5.746  1.1200 -0.0355 -0.8413
15353TIP3    H267551   3.316   5.329   5.692 -0.4288 -1.3926  0.5174
15354TIP3   OH267552   2.235   0.848  16.049  0.0957 -0.3166 -0.2506
15354TIP3    H167553   2.311   0.904  16.067 -0.0925 -0.5648  1.5420
15354TIP3    H267554   2.272   0.763  16.026  0.3715  0.3160 -2.3159
15355TIP3   OH267555   5.682   3.796  11.698 -0.0779  0.4978  0.3445
15355TIP3    H167556   5.714   3.713  11.733 -0.6897 -0.1251 -0.5247
15355TIP3    H267557   5.726   3.863  11.750 -0.9320 -0.3758  2.3199
15356TIP3   OH267558   5.894   1.079   5.389  0.1412  0.5026  0.2261
15356TIP3    H167559   5.984   1.084   5.420  0.2328  0.0928  0.0369
15356TIP3    H267560   5.841   1.096   5.467  0.3765  0.2484  0.4458
15357TIP3   OH267561   6.581   1.874   5.403 -0.1915 -0.0080  0.1265
15357TIP3    H167562   6.514   1.807   5.414  0.1498 -0.2226  0.9792
15357TIP3    H267563   6.622   1.853   5.319 -0.6684 -0.3417 -0.0265
15358TIP3   OH267564   5.521   0.439  14.986  0.1667 -0.6089  0.1574
15358TIP3    H167565   5.543   0.386  14.909  0.5369  0.1790 -0.2855
15358TIP3    H267566   5.445   0.394  15.025 -1.8341  0.4814 -2.2359
15359TIP3   OH267567   3.172   1.249   3.993  0.0718  0.4215  0.4965
15359TIP3    H167568   3.194   1.340   4.010 -2.7646  1.2063  0.3864
15359TIP3    H267569   3.200   1.202   4.071  0.4630  1.5666  1.0590
15360TIP3   OH267570   5.677   5.155   4.815  0.8365  0.0549 -0.1284
15360TIP3    H167571   5.703   5.115   4.898  0.0681 -0.2475 -0.0288
15360TIP3    H267572   5.754   5.145   4.758  1.0249 -0.6008  0.2380
15361TIP3   OH267573   2.239   4.995  14.534  0.3853  0.2881 -0.0415
15361TIP3    H167574   2.320   5.043  14.548  1.7698 -2.7173  4.9929
15361TIP3    H267575   2.261   4.931  14.465  1.0753  1.6788 -1.1560
15362TIP3   OH267576   5.828   3.571   4.752 -0.1049  0.0652 -0.2692
15362TIP3    H167577   5.840   3.483   4.717  1.0660 -0.1339  0.5669
15362TIP3    H267578   5.886   3.626   4.699 -0.5856  0.2864 -0.5737
15363TIP3   OH267579   6.085   1.588  11.270 -0.4435 -0.2359  0.2514
15363TIP3    H167580   6.106   1.658  11.331 -0.4938  0.6750 -0.7635
15363TIP3    H267581   6.169   1.566  11.229 -0.9421  1.6986 -1.9961
15364TIP3   OH267582   3.758   6.395  14.062 -0.0303 -1.0534 -0.4349
15364TIP3    H167583   3.666   6.380  14.039 -0.3067  0.2801 -0.2807
15364TIP3    H267584   3.776   6.483  14.031  1.2228 -1.3204 -0.4952
15365TIP3   OH267585   0.241   6.649  14.579 -0.4981  0.0734 -0.3502
15365TIP3    H167586   0.226   6.582  14.645  0.0920 -0.4796 -0.7596
15365TIP3    H267587   0.252   6.730  14.629 -0.2264 -0.3067  0.2178
15366TIP3   OH267588   5.176   0.635  16.395  0.0501 -0.1501  0.5287
15366TIP3    H167589   5.262   0.630  16.435  0.6007  1.3603 -0.4038
15366TIP3    H267590   5.193   0.641  16.301 -1.0743  0.0957  0.3230
15367TIP3   OH267591   3.101   2.398   4.881  0.2927  0.2752 -0.5785
15367TIP3    H167592   3.164   2.337   4.844 -1.4789 -1.0220 -1.6271
15367TIP3    H267593   3.059   2.350   4.952  0.8580  1.3258  0.4947
15368TIP3   OH267594   1.954   6.302   3.272  0.6007  0.0388  0.6657
15368TIP3    H167595   1.996   6.218   3.291 -2.0010 -1.1917  1.5990
15368TIP3    H267596   1.868   6.294   3.314  0.6147  3.5926  1.6562
15369TIP3   OH267597   2.935   6.579   2.980  0.3616 -0.0560 -0.1325
15369TIP3    H167598   2.863   6.544   2.927 -0.3448  0.0879  0.7085
15369TIP3    H267599   2.925   6.674   2.976 -0.4985 -0.0595  1.2984
15370TIP3   OH267600   1.652   0.573   1.824 -0.4486  0.0310  0.2665
15370TIP3    H167601   1.662   0.579   1.729 -0.7054 -0.1588  0.2245
15370TIP3    H267602   1.736   0.601   1.860  0.5085 -2.2524 -0.0773
15371TIP3   OH267603   1.799   4.539  16.963 -0.2173  0.0597  0.8315
15371TIP3    H167604   1.799   4.574  16.874 -0.0299 -0.9241  0.4319
15371TIP3    H267605   1.852   4.460  16.958  0.0662  0.1648  1.8983
15372TIP3   OH267606   3.437   6.183  16.718  0.0931  0.2083 -0.3835
15372TIP3    H167607   3.427   6.249  16.786 -0.4025  1.5841 -1.7242
15372TIP3    H267608   3.399   6.223  16.640 -0.0929 -1.6227 -1.2871
15373TIP3   OH267609   6.131   1.031   4.741  0.1463  0.6012 -0.1348
15373TIP3    H167610   6.059   1.086   4.708 -1.0146 -0.5936  0.3168
15373TIP3    H267611   6.172   1.085   4.808 -0.7389  1.0759  0.0520
15374TIP3   OH267612   4.013   2.888  16.388 -0.2565 -0.0949 -0.7489
15374TIP3    H167613   4.042   2.812  16.439 -0.3326  0.2794 -0.1358
15374TIP3    H267614   4.007   2.959  16.453 -2.6382 -0.1804 -0.8098
15375TIP3   OH267615   1.593   1.777  13.487 -0.2853  0.0524  0.2316
15375TIP3    H167616   1.649   1.700  13.483  1.6578  1.2020  2.6069
15375TIP3    H267617   1.515   1.747  13.535 -0.8716 -1.0663 -1.3442
15376TIP3   OH267618   5.732   1.192   5.586 -0.0300 -0.3636 -0.4987
15376TIP3    H167619   5.726   1.279   5.547  0.0725 -0.1130  0.0396
15376TIP3    H267620   5.745   1.208   5.679  0.6180 -0.9491 -0.4829
15377TIP3   OH267621   5.298   0.263  15.076 -0.0932 -0.1636 -0.2544
15377TIP3    H167622   5.218   0.212  15.085 -0.9941  1.2370 -0.0635
15377TIP3    H267623   5.293   0.328  15.146  1.0283  0.2009 -0.4908
15378TIP3   OH267624   2.708   1.294  12.418 -0.3953 -0.0687 -0.3015
15378TIP3    H167625   2.659   1.375  12.406 -0.3368 -0.3126 -2.5658
15378TIP3    H267626   2.650   1.225  12.384 -0.2994 -0.9739  1.2412
15379TIP3   OH267627   5.890   6.068  13.775  0.6764  0.1803 -0.5686
15379TIP3    H167628   5.930   6.010  13.711 -0.1073 -0.2866 -0.6535
15379TIP3    H267629   5.926   6.039  13.859  1.1094  0.2805 -0.7179
15380TIP3   OH267630   4.155   6.189   3.267  0.2132 -0.4284 -0.3906
15380TIP3    H167631   4.189   6.104   3.239 -0.3268 -0.8851  0.3209
15380TIP3    H267632   4.073   6.169   3.312  0.8603  0.3019  1.2139
15381TIP3   OH267633   5.135   2.352  16.064  0.1986 -0.5198  0.3661
15381TIP3    H167634   5.202   2.310  16.118  1.4790  0.5721 -0.3419
15381TIP3    H267635   5.118   2.288  15.994  1.1154 -0.4615  0.0778
15382TIP3   OH267636   6.459   6.831   5.660 -0.0820  0.3134  0.8620
15382TIP3    H167637   6.462   6.927   5.654 -0.1042  0.2832  0.3335
15382TIP3    H267638   6.376   6.807   5.620 -0.5223  0.1248  1.8474
15383TIP3   OH267639   6.145   0.799  16.837 -0.3189  0.3731 -0.0510
15383TIP3    H167640   6.056   0.764  16.837 -0.9266  1.4775 -3.5179
15383TIP3    H267641   6.194   0.742  16.895 -2.5826 -2.3443 -0.6095
15384TIP3   OH267642   0.312   0.047  16.630 -0.0217  0.5360  0.1085
15384TIP3    H167643   0.316  -0.010  16.553  1.0077 -1.0138  1.2553
15384TIP3    H267644   0.402   0.051  16.662 -0.5281  0.5941  1.6215
15385TIP3   OH267645   5.889   4.975  11.181  0.9493  0.3842  0.1525
15385TIP3    H167646   5.891   5.064  11.147  0.2792  0.0601 -0.7725
15385TIP3    H267647   5.920   4.920  11.109  0.6918 -0.1953  0.4732
15386TIP3   OH267648   2.354   2.008  10.619 -0.4540 -0.0582 -0.2715
15386TIP3    H167649   2.419   1.942  10.644 -1.2286 -1.3746 -1.5769
15386TIP3    H267650   2.374   2.083  10.675  1.3715 -0.8702  0.2612
15387TIP3   OH267651   3.750   0.843  13.274 -0.1687 -0.6405  0.0259
15387TIP3    H167652   3.764   0.902  13.200 -0.9909 -0.0643  0.3270
15387TIP3    H267653   3.797   0.883  13.346  1.5458 -1.7494 -0.4144
15388TIP3   OH267654   1.908   5.658   3.557  0.0501 -0.2161 -0.0859
15388TIP3    H167655   1.933   5.648   3.649 -2.6265  0.7055  0.8347
15388TIP3    H267656   1.917   5.570   3.520  1.6440 -0.4912  0.8996
15389TIP3   OH267657   3.561   1.775  12.479 -0.2547 -0.1753 -0.4542
15389TIP3    H167658   3.589   1.684  12.468  0.7000 -0.1555  1.3981
15389TIP3    H267659   3.605   1.805  12.559 -2.5749  1.0885  0.4855
15390TIP3   OH267660   3.295   5.445  14.130  0.3795 -0.3997 -0.1874
15390TIP3    H167661   3.295   5.512  14.062  0.4405 -0.1672  0.0421
15390TIP3    H267662   3.373   5.392  14.112  0.1176 -0.6459 -0.5993
15391TIP3   OH267663   0.202   2.962  11.776 -0.0105 -0.4080 -0.4277
15391TIP3    H167664   0.109   2.939  11.767  0.2193 -1.4523 -0.2797
15391TIP3    H267665   0.248   2.880  11.760  0.9258  0.2326 -1.1158
15392TIP3   OH267666   4.683   2.409  14.771 -0.2609 -0.7454  0.3100
15392TIP3    H167667   4.726   2.389  14.688  0.0776 -0.2755  0.3707
15392TIP3    H267668   4.728   2.486  14.804 -2.5259  1.1136 -0.6753
15393TIP3   OH267669   2.707   5.903  13.038 -0.4157  0.3657 -0.3379
15393TIP3    H167670   2.754   5.850  12.974 -1.7392 -0.7187 -0.4488
15393TIP3    H267671   2.615   5.894  13.015 -0.8466  0.8928  1.0212
15394TIP3   OH267672   1.915   0.169   4.871  0.2867 -0.8631 -0.1128
15394TIP3    H167673   1.882   0.253   4.904  1.7597 -0.6630  0.9703
15394TIP3    H267674   2.009   0.185   4.857  0.0426 -1.4079 -3.0225
15395TIP3   OH267675   1.371   4.165  11.213 -0.1761  0.3176  1.2041
15395TIP3    H167676   1.376   4.138  11.305 -0.0567  1.2853  1.4932
15395TIP3    H267677   1.309   4.103  11.173  0.8284 -0.9806  1.6041
15396TIP3   OH267678   0.987   2.948  16.053 -0.3021  0.5904  0.0931
15396TIP3    H167679   1.068   2.988  16.020 -0.3334 -0.2669 -1.0836
15396TIP3    H267680   0.951   2.902  15.977 -2.4044  1.7404  0.3323
15397TIP3   OH267681   3.140   4.813  10.588  0.6308 -0.2257  0.4740
15397TIP3    H167682   3.186   4.761  10.522  1.2056  0.2183  0.5193
15397TIP3    H267683   3.067   4.853  10.539  0.9876  0.0131  0.1314
15398TIP3   OH267684   6.275   5.318  11.926  0.4164  0.1179  0.4338
15398TIP3    H167685   6.311   5.275  12.003  0.7572 -1.0243 -0.3341
15398TIP3    H267686   6.246   5.246  11.870  0.1771  0.9209 -0.5005
15399TIP3   OH267687   1.258   2.797   2.832 -0.2451 -0.4379  0.0388
15399TIP3    H167688   1.215   2.753   2.906 -3.1786  0.0180 -1.2219
15399TIP3    H267689   1.255   2.890   2.855  0.8730 -0.4604  0.2947
15400TIP3   OH267690   3.368   4.337  17.003  0.4439 -0.0695 -0.1053
15400TIP3    H167691   3.341   4.254  16.964  1.6597  0.8421 -3.1775
15400TIP3    H267692   3.309   4.402  16.965  0.1936  0.6520  1.4387
15401TIP3   OH267693   5.695   2.141  10.466  0.0679  0.5681 -0.3197
15401TIP3    H167694   5.644   2.213  10.503  1.5951  1.9336 -0.7514
15401TIP3    H267695   5.705   2.164  10.374 -0.2696 -0.7345 -0.6930
15402TIP3   OH267696   4.718   3.057  13.160  0.1851 -0.5987 -0.2156
15402TIP3    H167697   4.802   3.102  13.154 -0.7978  2.0230  2.9958
15402TIP3    H267698   4.667   3.090  13.086  0.5046  1.3332  0.3899
15403TIP3   OH267699   3.795   6.741   4.940  0.0635  0.4889  0.3244
15403TIP3    H167700   3.865   6.710   4.883 -0.9756 -0.0346 -0.6993
15403TIP3    H267701   3.765   6.823   4.899 -2.5788 -1.2748 -1.6065
15404TIP3   OH267702   2.775   3.734  15.115  0.5694 -0.4587 -0.0114
15404TIP3    H167703   2.714   3.779  15.173  2.5194  2.1608  0.1606
15404TIP3    H267704   2.833   3.685  15.174 -0.7432 -2.2579 -0.1335
15405TIP3   OH267705   1.079   3.781  13.269 -0.2175 -0.2751  0.0001
15405TIP3    H167706   1.125   3.720  13.325  0.1859  0.7829  0.8590
15405TIP3    H267707   1.116   3.867  13.291 -1.6898  0.4451 -0.2186
15406TIP3   OH267708   0.469   6.455   3.266 -0.0385 -0.6607  0.0560
15406TIP3    H167709   0.444   6.543   3.297 -0.0927 -0.6196 -0.1023
15406TIP3    H267710   0.551   6.469   3.219 -0.5323 -0.5392 -0.7887
15407TIP3   OH267711   2.303   2.329   1.492 -0.3269 -0.1806 -0.4514
15407TIP3    H167712   2.316   2.335   1.398  0.4563 -0.0202 -0.3404
15407TIP3    H267713   2.215   2.362   1.506  0.4892  2.4165 -0.8627
15408TIP3   OH267714   3.432   6.778   4.462  0.4192 -0.2392  0.4735
15408TIP3    H167715   3.479   6.758   4.543 -0.1317  0.0141  0.8638
15408TIP3    H267716   3.347   6.810   4.492 -0.0335 -0.7821 -0.2259
15409TIP3   OH267717   5.494   0.965  13.510 -0.4695  0.2684  0.7853
15409TIP3    H167718   5.580   0.934  13.481 -0.7221 -1.7923  1.9823
15409TIP3    H267719   5.495   0.951  13.605 -2.5412 -1.0143  0.6841
15410TIP3   OH267720   5.336   2.969   2.462 -0.9587  0.0051  0.4434
15410TIP3    H167721   5.296   3.053   2.436  1.3641  0.3669 -2.3864
15410TIP3    H267722   5.421   2.994   2.499  0.7157 -1.0871 -2.4272
15411TIP3   OH267723   6.117   6.107   3.712 -0.0006 -0.1973  0.3204
15411TIP3    H167724   6.067   6.049   3.654 -0.5669  1.5282 -1.0069
15411TIP3    H267725   6.090   6.195   3.686  3.3881  0.8308 -0.1625
15412TIP3   OH267726   3.688   1.843  16.085  0.4024 -0.2174  0.2019
15412TIP3    H167727   3.636   1.894  16.146  0.6975 -0.3925  0.6085
15412TIP3    H267728   3.779   1.863  16.108  0.5167 -0.5624  0.0577
15413TIP3   OH267729   0.917   5.023  13.380 -0.3569 -0.4031 -0.6324
15413TIP3    H167730   0.944   5.088  13.445 -0.3588 -2.5637  1.7075
15413TIP3    H267731   0.990   5.018  13.319 -0.9589  2.7543 -1.7883
15414TIP3   OH267732   1.493   3.844  15.336  0.4879 -0.1492 -0.0542
15414TIP3    H167733   1.531   3.839  15.249  0.1956  0.3639 -0.2146
15414TIP3    H267734   1.441   3.925  15.335 -0.9185 -1.0177  0.0237
15415TIP3   OH267735   4.229   6.617   4.321  0.0336  0.0917  0.5297
15415TIP3    H167736   4.285   6.619   4.244 -0.2397  0.0900  0.3316
15415TIP3    H267737   4.289   6.630   4.394  0.0620  1.9543  0.2025
15416TIP3   OH267738   3.362   1.059  11.140  0.0614 -0.5672  0.3307
15416TIP3    H167739   3.326   0.990  11.084 -0.5779  0.1367 -0.1502
15416TIP3    H267740   3.456   1.041  11.143  0.0350 -0.9085 -0.5780
15417TIP3   OH267741   6.376   6.380   1.995 -0.2799 -0.1826 -0.0963
15417TIP3    H167742   6.346   6.349   2.081 -0.9514 -1.8236 -0.8761
15417TIP3    H267743   6.458   6.334   1.981 -0.8605 -1.0035 -0.9077
15418TIP3   OH267744   3.895   0.761  13.519 -0.2366  0.0444 -1.1672
15418TIP3    H167745   3.959   0.769  13.447 -0.6067 -2.6950 -1.8861
15418TIP3    H267746   3.925   0.685  13.569 -1.6669  0.1215 -0.1553
15419TIP3   OH267747   3.900   3.157   4.512 -0.1605 -0.6518  0.2321
15419TIP3    H167748   3.939   3.194   4.591  0.1002 -0.6456  0.0996
15419TIP3    H267749   3.943   3.072   4.501  1.0981  0.0963 -0.8975
15420TIP3   OH267750   5.524   3.856   2.598 -0.3559 -0.2944  0.8078
15420TIP3    H167751   5.588   3.921   2.626 -1.4280  0.4167  1.7085
15420TIP3    H267752   5.509   3.876   2.505 -0.0477  0.1995  0.8594
15421TIP3   OH267753   2.398   1.282   4.978  0.0495 -0.1783 -0.2084
15421TIP3    H167754   2.403   1.375   5.000  1.4408  0.1675 -1.7710
15421TIP3    H267755   2.398   1.280   4.883  0.2724 -1.8049 -0.1992
15422TIP3   OH267756   2.292   2.368   0.539 -0.2158  0.5013  0.3035
15422TIP3    H167757   2.274   2.409   0.624 -0.3118  2.2192 -0.5114
15422TIP3    H267758   2.230   2.410   0.479  0.2337 -0.2823 -0.7303
15423TIP3   OH267759   5.899   3.103  14.325  0.0191 -0.0895  0.0951
15423TIP3    H167760   5.894   3.197  14.341  1.0137 -0.0841  0.4072
15423TIP3    H267761   5.899   3.095  14.230  2.3099  0.3909  0.0118
15424TIP3   OH267762   1.478   0.036   0.254 -0.2043 -0.2002  0.1497
15424TIP3    H167763   1.561  -0.011   0.246 -0.1097  0.1928 -1.3049
15424TIP3    H267764   1.484   0.081   0.338  0.4125 -1.3850  0.7704
15425TIP3   OH267765   1.292   4.313  15.484 -0.2374 -0.2683  0.3095
15425TIP3    H167766   1.302   4.252  15.558 -1.4941 -0.9509 -0.0570
15425TIP3    H267767   1.200   4.307  15.460 -0.2906  1.4845 -0.0268
15426TIP3   OH267768   4.935   1.123   0.224  0.0465 -0.1394  0.3007
15426TIP3    H167769   4.930   1.117   0.128 -1.7264  1.2323  0.2410
15426TIP3    H267770   4.995   1.196   0.240 -0.2294  0.1125  0.2007
15427TIP3   OH267771   3.822   3.546  14.910  0.0834 -0.5719  0.1194
15427TIP3    H167772   3.874   3.625  14.922 -0.4843 -0.1626 -0.0979
15427TIP3    H267773   3.785   3.527  14.997  0.2703 -0.6358  0.1849
15428TIP3   OH267774   1.950   5.093   0.241 -0.0744  0.3884  0.3081
15428TIP3    H167775   2.026   5.082   0.297 -0.3103 -0.6928  0.4366
15428TIP3    H267776   1.875   5.066   0.295 -0.4495  0.5908 -0.0995
15429TIP3   OH267777   6.085   4.919  10.817 -1.0279  0.0372 -0.1342
15429TIP3    H167778   6.059   4.856  10.750  1.6039 -1.1377 -0.1594
15429TIP3    H267779   6.094   5.002  10.770 -2.0399 -0.1036 -0.6062
15430TIP3   OH267780   3.911   0.717  10.514  0.2552 -0.1665  0.3569
15430TIP3    H167781   4.004   0.720  10.490  0.2755  0.6556  0.5225
15430TIP3    H267782   3.907   0.652  10.584  0.7530  0.0134  0.5573
15431TIP3   OH267783   4.625   0.277   6.240 -0.3128 -0.2194  0.3304
15431TIP3    H167784   4.547   0.222   6.232  0.9942 -1.9506 -1.5897
15431TIP3    H267785   4.691   0.219   6.277  0.4216  0.8424  0.7254
15432TIP3   OH267786   4.011   0.092   2.266 -0.3890 -0.1946  0.5724
15432TIP3    H167787   4.091   0.141   2.251 -0.5975 -0.3551 -1.3197
15432TIP3    H267788   4.039   0.001   2.275 -0.2848 -0.1285  0.9436
15433TIP3   OH267789   4.453   2.896   5.640  0.4743 -0.0602 -0.2738
15433TIP3    H167790   4.364   2.893   5.604  0.0268  2.7977  0.3739
15433TIP3    H267791   4.505   2.939   5.572  0.5480  1.4420  0.6791
15434TIP3   OH267792   5.828   0.190  14.603  0.7979 -0.1487  0.0943
15434TIP3    H167793   5.914   0.193  14.646  1.0963 -1.5094 -0.3437
15434TIP3    H267794   5.825   0.103  14.564 -0.6904 -0.0144 -0.1223
15435TIP3   OH267795   3.621   3.876   5.775 -0.1481  0.2482 -0.2438
15435TIP3    H167796   3.645   3.789   5.807 -0.2513 -0.7899 -2.7338
15435TIP3    H267797   3.525   3.876   5.775 -0.1516  0.1738 -0.6434
15436TIP3   OH267798   4.607   5.042  14.986  1.0796 -0.0839 -0.5029
15436TIP3    H167799   4.657   5.111  14.942  0.9873 -1.4421 -2.9003
15436TIP3    H267800   4.551   5.089  15.047  0.1926  2.1331 -2.8311
15437TIP3   OH267801   5.569   6.363   2.463  0.0490  0.2041  0.2724
15437TIP3    H167802   5.497   6.318   2.418  0.4393  1.8657 -2.1750
15437TIP3    H267803   5.527   6.406   2.538 -1.3989  0.6173 -0.7392
15438TIP3   OH267804   4.250   0.851   2.585 -0.2440  0.3771 -1.5413
15438TIP3    H167805   4.208   0.768   2.561 -0.4044  0.1654 -0.6020
15438TIP3    H267806   4.297   0.830   2.666 -0.3672  1.2246 -1.2448
15439TIP3   OH267807   4.941   5.795  13.178  0.0662  0.0981 -0.4234
15439TIP3    H167808   4.998   5.738  13.126  0.7357 -0.0501  0.4296
15439TIP3    H267809   4.983   5.797  13.264 -0.2428  1.4616 -0.2879
15440TIP3   OH267810   0.907   3.946  10.522 -0.6570 -0.6073 -0.3024
15440TIP3    H167811   0.977   3.986  10.469 -0.1497 -0.0758  0.7458
15440TIP3    H267812   0.863   4.021  10.563  1.7447 -1.0503  3.5374
15441TIP3   OH267813   3.658   1.229   0.693  0.2106  0.1519  0.3332
15441TIP3    H167814   3.716   1.170   0.742 -0.3209 -1.5199 -0.9427
15441TIP3    H267815   3.718   1.289   0.649  0.7107  1.6121  2.7997
15442TIP3   OH267816   6.229   5.210  16.914 -0.4422 -0.0102 -0.0693
15442TIP3    H167817   6.218   5.116  16.906 -0.5384  0.0766 -0.9692
15442TIP3    H267818   6.163   5.248  16.857  1.2017  0.5647 -1.6980
15443TIP3   OH267819   3.982   0.001  13.901  0.4653  0.1665 -0.0317
15443TIP3    H167820   4.051   0.064  13.878  1.1837 -0.0983  1.3285
15443TIP3    H267821   4.016  -0.045  13.977 -1.7975  0.9868  1.5768
15444TIP3   OH267822   0.790   2.420  13.816 -0.3897 -0.5695  0.0876
15444TIP3    H167823   0.851   2.441  13.746 -1.4816 -0.2214 -0.7979
15444TIP3    H267824   0.825   2.340  13.856  0.9935  0.0058  0.0598
15445TIP3   OH267825   2.124   1.669   4.688 -0.1041  0.3913 -0.4993
15445TIP3    H167826   2.180   1.742   4.715 -2.6377  2.2472  0.1314
15445TIP3    H267827   2.152   1.649   4.599  2.8987 -0.2545  0.4435
15446TIP3   OH267828   1.865   1.119  15.693 -0.0494 -0.3883  0.1554
15446TIP3    H167829   1.811   1.069  15.754  1.8571 -1.5430  0.9968
15446TIP3    H267830   1.870   1.065  15.615  0.1726 -0.4497  0.2116
15447TIP3   OH267831   5.478   6.709  16.089 -0.2240 -0.3325 -0.0764
15447TIP3    H167832   5.565   6.693  16.052  0.0502  2.1037 -0.6372
15447TIP3    H267833   5.418   6.687  16.018 -0.1077 -1.8919  0.2668
15448TIP3   OH267834   3.699   3.236   1.304 -0.7329 -0.1921  0.2509
15448TIP3    H167835   3.628   3.177   1.330 -0.9977  1.1170  2.8966
15448TIP3    H267836   3.666   3.323   1.324  0.9200  0.6061 -0.3096
15449TIP3   OH267837   4.862   2.352   1.873  0.0861  0.7351  0.3812
15449TIP3    H167838   4.773   2.353   1.907  0.1388  0.7906  0.5168
15449TIP3    H267839   4.903   2.275   1.912  0.4824  1.4053  1.3057
15450TIP3   OH267840   1.965   5.788   1.135 -0.0820 -0.4334 -0.1860
15450TIP3    H167841   2.011   5.831   1.064  1.3228 -1.3402  0.1296
15450TIP3    H267842   1.965   5.852   1.207  2.1650 -0.9525  0.3506
15451TIP3   OH267843   6.196   5.422  16.178 -0.1167 -0.1991 -0.1506
15451TIP3    H167844   6.276   5.473  16.189 -0.0239  0.0206 -1.6537
15451TIP3    H267845   6.161   5.450  16.094  1.0005 -4.0279 -2.1199
15452TIP3   OH267846   5.905   2.744   0.877  0.4889  0.3826  0.6216
15452TIP3    H167847   5.918   2.686   0.801  1.2787  0.8564  0.3900
15452TIP3    H267848   5.821   2.715   0.914 -0.9020  1.3414 -1.5318
15453TIP3   OH267849   0.477   2.724   2.452 -0.1546  0.3086 -0.3563
15453TIP3    H167850   0.460   2.818   2.449 -0.9560  0.1399 -1.8841
15453TIP3    H267851   0.484   2.698   2.361  2.2224 -0.7618  0.0630
15454TIP3   OH267852   5.591   2.508   4.725 -0.1126  0.0926  0.5988
15454TIP3    H167853   5.589   2.514   4.630  1.2566 -1.3556  0.4288
15454TIP3    H267854   5.580   2.598   4.755  0.1543  0.6699 -0.9453
15455TIP3   OH267855   5.364   6.494  14.547  0.4488  0.6953 -0.1077
15455TIP3    H167856   5.328   6.510  14.460 -1.0978  1.0670  0.5678
15455TIP3    H267857   5.442   6.549  14.550  0.9209  0.1495 -1.4884
15456TIP3   OH267858   1.683   6.567   5.224  0.1896 -0.0551 -0.1322
15456TIP3    H167859   1.753   6.588   5.287  1.8842 -2.0153 -1.2401
15456TIP3    H267860   1.630   6.501   5.268 -0.0617  0.3226  0.1359
15457TIP3   OH267861   0.314   6.641   4.426 -0.2362  0.8838 -0.2265
15457TIP3    H167862   0.369   6.592   4.364 -0.3066  1.3964 -0.7018
15457TIP3    H267863   0.342   6.732   4.415 -0.5424  1.0273  0.1990
15458TIP3   OH267864   2.327   3.963  15.049  0.0985  0.2198 -0.2425
15458TIP3    H167865   2.409   3.975  15.096 -0.0984 -1.1886  0.5207
15458TIP3    H267866   2.260   3.970  15.117 -0.3158  0.0058 -0.6287
15459TIP3   OH267867   2.426   5.355   5.771  0.1043 -0.1038  0.4863
15459TIP3    H167868   2.351   5.363   5.712 -0.9404  0.5015  1.8271
15459TIP3    H267869   2.387   5.349   5.858  1.6307  0.5228  1.2508
15460TIP3   OH267870   3.885   1.756   2.761  0.1043 -0.4030  0.3560
15460TIP3    H167871   3.945   1.722   2.695  0.9201 -0.2763  1.0011
15460TIP3    H267872   3.798   1.745   2.724  0.6041  0.8255 -1.2701
15461TIP3   OH267873   1.966   1.893  12.775  0.3521 -0.1914  0.0877
15461TIP3    H167874   1.958   1.978  12.819 -0.7879 -0.2037 -0.0582
15461TIP3    H267875   1.933   1.909  12.686  0.3699 -0.7270 -0.0190
15462TIP3   OH267876   4.740   0.143  13.259 -0.4094 -0.4683  0.9935
15462TIP3    H167877   4.649   0.127  13.285  0.0697 -1.5568  2.1129
15462TIP3    H267878   4.744   0.237  13.242 -1.6502 -0.3315  1.3538
15463TIP3   OH267879   4.876   4.292   0.506 -0.4447 -0.5016 -0.1471
15463TIP3    H167880   4.832   4.213   0.538  0.1937 -0.6922  0.2664
15463TIP3    H267881   4.967   4.266   0.496  0.2612  0.7972  2.2142
15464TIP3   OH267882   6.302   1.883   3.126  0.4559 -0.3116  0.1852
15464TIP3    H167883   6.353   1.808   3.096  0.3468  0.7097 -3.0026
15464TIP3    H267884   6.365   1.955   3.132 -0.2083  0.5848 -2.2740
15465TIP3   OH267885   5.123   5.876  10.396  0.2649  0.1662  0.0485
15465TIP3    H167886   5.059   5.848  10.462  0.7263  0.0848  0.4613
15465TIP3    H267887   5.159   5.795  10.361  0.7541  0.2196  0.4183
15466TIP3   OH267888   0.817   0.008   5.366  0.0077 -0.2928  0.5999
15466TIP3    H167889   0.771  -0.026   5.289 -1.2124  1.0851  0.6841
15466TIP3    H267890   0.756   0.070   5.405  2.0052  1.8537  0.5399
15467TIP3   OH267891   4.811   5.706  11.253 -0.8960  0.4221  0.3766
15467TIP3    H167892   4.826   5.619  11.289 -2.1343  0.8485  2.0487
15467TIP3    H267893   4.788   5.690  11.161  1.2810 -0.7861 -0.0126
15468TIP3   OH267894   6.576   2.277  11.601 -0.0373  0.8601 -0.0715
15468TIP3    H167895   6.546   2.337  11.532 -1.3638  1.7248  1.1678
15468TIP3    H267896   6.506   2.212  11.608 -0.4220  1.3498  1.0630
15469TIP3   OH267897   5.259   5.950   0.065 -0.3898  0.3016  0.1122
15469TIP3    H167898   5.248   6.032   0.113 -0.6258  0.9199 -0.9510
15469TIP3    H267899   5.182   5.945   0.008 -0.9527 -1.2335  0.9542
15470TIP3   OH267900   5.682   0.904   1.022  0.4334  0.2949 -0.0515
15470TIP3    H167901   5.757   0.845   1.030  1.6206  1.9183  1.9303
15470TIP3    H267902   5.711   0.986   1.063 -1.9754  1.4378 -0.4241
15471TIP3   OH267903   0.907   1.027   4.537  0.1739  0.4629 -0.2783
15471TIP3    H167904   0.878   1.053   4.450  0.0318  0.9212 -0.0998
15471TIP3    H267905   0.941   1.107   4.576  0.8709  0.1166 -0.1561
15472TIP3   OH267906   0.313   6.754   6.327 -0.0317 -0.2764  0.3118
15472TIP3    H167907   0.238   6.808   6.354 -0.9901 -0.4035 -1.8922
15472TIP3    H267908   0.301   6.671   6.373 -1.8873 -0.6830 -0.8315
15473TIP3   OH267909   2.009   4.300  13.437 -0.6372 -0.6255 -0.0150
15473TIP3    H167910   2.062   4.352  13.377  1.9711 -0.3995  2.2709
15473TIP3    H267911   2.046   4.212  13.431  0.3293 -0.3909  1.8596
15474TIP3   OH267912   5.695   1.950  10.732  0.1096  0.2060  0.2259
15474TIP3    H167913   5.627   1.883  10.743 -1.3415  1.7116  0.8478
15474TIP3    H267914   5.668   2.021  10.791  1.2465  1.6026 -0.8666
15475TIP3   OH267915   2.550   3.637  12.870 -0.3717  0.0765 -0.2716
15475TIP3    H167916   2.456   3.641  12.886  0.1315  1.4003  3.4197
15475TIP3    H267917   2.573   3.723  12.836 -0.4488 -0.2164 -1.0865
15476TIP3   OH267918   6.137   4.999   2.324 -0.5282  0.6483 -0.1683
15476TIP3    H167919   6.179   4.960   2.247 -0.2296  1.2404 -0.3128
15476TIP3    H267920   6.064   4.940   2.344  0.2139 -0.2565 -0.0688
15477TIP3   OH267921   1.357   3.650  13.969 -0.7727  0.4875 -0.5385
15477TIP3    H167922   1.370   3.704  13.891  0.5600  0.0597 -0.6442
15477TIP3    H267923   1.299   3.702  14.024 -2.7955  0.2634 -2.3102
15478TIP3   OH267924   2.349   4.406   2.639 -0.4605  0.3186 -0.1549
15478TIP3    H167925   2.332   4.313   2.625  1.5522 -0.2054  0.5303
15478TIP3    H267926   2.333   4.447   2.554  0.3141 -0.9383 -0.9408
15479TIP3   OH267927   0.108   3.017   5.384  0.4014 -0.1493 -0.0770
15479TIP3    H167928   0.173   3.039   5.317  1.1941 -0.7161  0.4693
15479TIP3    H267929   0.096   3.098   5.434  0.7264 -0.0417 -0.1686
15480TIP3   OH267930   0.564   5.874  15.731 -0.0419 -0.2428  0.5335
15480TIP3    H167931   0.643   5.833  15.768  0.2500 -1.1817 -1.0070
15480TIP3    H267932   0.492   5.824  15.769  0.0659  0.6769  2.0205
15481TIP3   OH267933   2.739   1.808  14.522  0.3910 -0.4428 -0.1753
15481TIP3    H167934   2.726   1.812  14.427 -1.5047 -2.3619 -0.0774
15481TIP3    H267935   2.657   1.841  14.559  1.2995  0.7747  0.8501
15482TIP3   OH267936   5.787   3.223  11.678 -0.2336 -0.3091  0.1968
15482TIP3    H167937   5.867   3.271  11.698  0.8094 -2.1820  0.7725
15482TIP3    H267938   5.774   3.164  11.753 -1.3099 -1.0833 -0.5570
15483TIP3   OH267939   1.338   4.989  14.697 -0.5741 -0.3339  0.3659
15483TIP3    H167940   1.359   4.899  14.671 -0.1430 -0.1782  0.1762
15483TIP3    H267941   1.422   5.033  14.703 -0.8051  0.1430  0.1615
15484TIP3   OH267942   2.603   0.003   5.650 -0.3085 -0.1335 -0.4446
15484TIP3    H167943   2.604  -0.013   5.556  0.7750  2.7453 -1.0337
15484TIP3    H267944   2.531   0.066   5.663 -2.3044 -2.5389  1.1767
15485TIP3   OH267945   5.403   5.785  15.541  0.4500  0.3376 -0.1349
15485TIP3    H167946   5.497   5.784  15.523  0.5320  0.6255  0.2484
15485TIP3    H267947   5.394   5.841  15.618  0.1109 -0.7125  0.6184
15486TIP3   OH267948   4.277   4.141   2.383 -0.3235  0.5600 -0.4895
15486TIP3    H167949   4.269   4.166   2.475  0.9160  0.6629 -0.3920
15486TIP3    H267950   4.282   4.046   2.384  2.7712  0.6287 -0.1172
15487TIP3   OH267951   3.532   5.470  11.535 -0.0386  0.3013 -0.1540
15487TIP3    H167952   3.598   5.498  11.471  0.2173 -0.7787 -0.3712
15487TIP3    H267953   3.509   5.551  11.581  1.9530  0.6093  0.4211
15488TIP3   OH267954   0.645   2.553  11.740  0.0631  0.5350 -0.6874
15488TIP3    H167955   0.733   2.589  11.755  0.2171  0.2338 -0.8541
15488TIP3    H267956   0.594   2.582  11.815  0.2988  0.7379 -0.6038
15489TIP3   OH267957   3.485   0.927  13.234 -0.5066 -0.4535 -0.3501
15489TIP3    H167958   3.532   0.843  13.239 -0.8176 -0.5679  1.0576
15489TIP3    H267959   3.533   0.985  13.294  0.0867  0.5901 -1.7912
15490TIP3   OH267960   4.947   4.412  11.857  0.6317 -0.3368  0.1127
15490TIP3    H167961   5.038   4.383  11.856  0.1594 -1.9515  0.6353
15490TIP3    H267962   4.899   4.341  11.901 -0.6622  1.1260  1.2043
15491TIP3   OH267963   5.150   3.719  12.652 -0.2941  0.4683 -0.3924
15491TIP3    H167964   5.071   3.714  12.705  0.6487  1.4226  1.1751
15491TIP3    H267965   5.199   3.640  12.673 -0.1000  0.6569 -0.1274
15492TIP3   OH267966   6.822   4.023  13.146 -0.0232  0.4183  0.4705
15492TIP3    H167967   6.765   3.986  13.078 -0.0145  0.1121  0.6286
15492TIP3    H267968   6.821   4.117  13.129 -4.1491  1.0984  3.0449
15493TIP3   OH267969   2.620   2.499   3.415  0.0803  0.7541  0.2283
15493TIP3    H167970   2.608   2.429   3.478 -0.7070  0.9621  0.3210
15493TIP3    H267971   2.550   2.562   3.435 -0.0351  0.9348 -0.6898
15494TIP3   OH267972   2.926   4.775  15.498  0.2823  0.0978 -0.0291
15494TIP3    H167973   2.835   4.772  15.528  0.4488  1.2396  0.6784
15494TIP3    H267974   2.920   4.773  15.403 -0.4510 -0.2865  0.0152
15495TIP3   OH267975   3.356   6.786   2.218  0.2832 -0.3374 -0.3761
15495TIP3    H167976   3.406   6.756   2.143  1.1488 -0.2684  0.1654
15495TIP3    H267977   3.289   6.845   2.181  0.3966 -0.6807 -1.1307
15496TIP3   OH267978   4.887   1.713  11.911 -0.4994  0.0940 -0.0195
15496TIP3    H167979   4.953   1.783  11.911  1.6653 -1.6442  3.4184
15496TIP3    H267980   4.806   1.757  11.936  0.6159  1.5618  1.2320
15497TIP3   OH267981   0.864   4.647   3.290  0.0074  0.9013  0.3440
15497TIP3    H167982   0.847   4.586   3.218  2.3282 -1.4627  1.6328
15497TIP3    H267983   0.911   4.720   3.249  0.7339 -0.0859 -0.6269
15498TIP3   OH267984   5.273   0.910  14.965 -0.2677  0.5647  0.3329
15498TIP3    H167985   5.222   0.978  14.922 -1.4768  0.2134  1.1385
15498TIP3    H267986   5.341   0.887  14.903  1.0970  3.5056  0.5852
15499TIP3   OH267987   3.143   5.941   2.730 -0.3888  0.2417  0.2121
15499TIP3    H167988   3.184   5.972   2.649 -1.9278  1.2241 -0.2351
15499TIP3    H267989   3.151   6.016   2.790 -0.9814  0.2334  0.3078
15500TIP3   OH267990   4.465   2.410   0.614 -0.1775 -0.2683 -0.3012
15500TIP3    H167991   4.397   2.344   0.610  0.1782 -0.6445 -0.2631
15500TIP3    H267992   4.543   2.367   0.578  0.1131  0.0540 -0.0739
15501TIP3   OH267993   4.219   5.899  16.192 -0.5061  0.6913  0.1185
15501TIP3    H167994   4.143   5.874  16.245 -0.6402  2.1284  0.6491
15501TIP3    H267995   4.181   5.943  16.116 -0.2410  1.2507  0.2982
15502TIP3   OH267996   6.625   3.371   0.276 -0.1246 -0.4685  0.6583
15502TIP3    H167997   6.650   3.417   0.356 -1.8079  2.3050 -0.2546
15502TIP3    H267998   6.581   3.438   0.223  0.2328 -2.3723 -2.2761
15503TIP3   OH267999   3.182   4.884   4.742 -0.7924  0.4224  0.3762
15503TIP3    H168000   3.175   4.912   4.651  1.1859 -0.8811 -0.2287
15503TIP3    H268001   3.176   4.965   4.792  2.3754  1.7750 -1.1609
15504TIP3   OH268002   2.719   5.959   3.468 -0.2624 -0.0532 -0.3072
15504TIP3    H168003   2.794   5.960   3.529 -1.2248  1.0675  0.9147
15504TIP3    H268004   2.644   5.984   3.522 -1.3719 -0.2301 -1.7145
15505TIP3   OH268005   1.749   5.956  11.696  0.2571 -0.0734 -0.1743
15505TIP3    H168006   1.753   5.962  11.791 -0.0112 -2.2087  0.0196
15505TIP3    H268007   1.829   5.908  11.672  0.2669  0.3471 -1.0058
15506TIP3   OH268008   3.798   3.865   2.096  0.1365 -0.0595  0.0590
15506TIP3    H168009   3.799   3.809   2.018 -1.1747  0.7426 -0.5645
15506TIP3    H268010   3.840   3.946   2.068 -0.5705  0.3284  0.0799
15507TIP3   OH268011   3.319   1.339   3.322 -0.5792  0.1394 -0.3876
15507TIP3    H168012   3.367   1.274   3.272 -0.5385  0.1647 -0.3811
15507TIP3    H268013   3.270   1.389   3.257 -0.4569  0.2303 -0.4101
15508TIP3   OH268014   3.353   4.024   3.160 -0.1432  0.3418  0.2709
15508TIP3    H168015   3.294   3.989   3.226  1.4332 -0.8523  1.0945
15508TIP3    H268016   3.405   4.090   3.206  0.7895 -0.3128  0.1873
15509TIP3   OH268017   1.448   5.892  15.056 -0.0486 -0.0379  0.1449
15509TIP3    H168018   1.427   5.809  15.099  0.1660  0.4669  1.2585
15509TIP3    H268019   1.404   5.887  14.971 -0.7082 -0.9526  0.5273
15510TIP3   OH268020   2.292   5.707   3.691  0.5531 -0.2478 -0.9831
15510TIP3    H168021   2.263   5.616   3.681  0.4908 -0.2119 -1.1375
15510TIP3    H268022   2.254   5.752   3.615  1.0493 -0.2112 -1.2119
15511TIP3   OH268023   4.295   0.492  14.743 -0.1235 -0.5239  0.3560
15511TIP3    H168024   4.202   0.510  14.727  0.3089  1.4177 -0.1925
15511TIP3    H268025   4.329   0.573  14.782  1.6473 -0.6645 -0.7973
15512TIP3   OH268026   5.597   1.409  12.420  0.1096  0.4350 -0.1585
15512TIP3    H168027   5.501   1.413  12.420  0.1311  1.3706  0.6486
15512TIP3    H268028   5.619   1.364  12.339 -1.1334 -3.7049  1.5206
15513TIP3   OH268029   0.501   0.487  11.371  0.2003 -0.2671 -0.0213
15513TIP3    H168030   0.546   0.540  11.306 -0.6403  0.8118  0.2483
15513TIP3    H268031   0.469   0.550  11.436 -1.1934 -1.0336  0.0861
15514TIP3   OH268032   2.157   4.114  14.097 -0.5878  0.1210  0.1892
15514TIP3    H168033   2.168   4.081  14.186 -0.1651 -1.0071 -0.2588
15514TIP3    H268034   2.218   4.187  14.091  0.2191 -0.5017  0.4974
15515TIP3   OH268035   4.639   3.087   1.838 -1.0507 -0.1966  0.0849
15515TIP3    H168036   4.688   3.160   1.801  1.3483 -0.6877  2.0186
15515TIP3    H268037   4.672   3.010   1.792 -3.0169 -0.2362 -1.4077
15516TIP3   OH268038   6.840   6.080   5.219 -0.4383 -0.0344 -0.4385
15516TIP3    H168039   6.805   6.167   5.201  0.2349  0.6622  1.4230
15516TIP3    H268040   6.908   6.067   5.152 -0.7410  0.7299 -0.9103
15517TIP3   OH268041   5.752   2.717   1.160  0.3195 -0.3812  0.6598
15517TIP3    H168042   5.803   2.653   1.209  0.2272  0.9312  2.5530
15517TIP3    H268043   5.812   2.790   1.145  0.0458 -0.3359 -0.3298
15518TIP3   OH268044   5.707   5.267  12.745  0.2975 -0.2171 -0.0987
15518TIP3    H168045   5.719   5.362  12.738  0.9147 -0.3250 -0.6467
15518TIP3    H268046   5.756   5.243  12.823  0.9330 -0.1981 -0.4763
15519TIP3   OH268047   1.258   5.371   4.198  0.4996 -0.3142  0.5635
15519TIP3    H168048   1.292   5.322   4.273 -2.5226 -2.0129  0.9757
15519TIP3    H268049   1.211   5.445   4.238 -0.0693 -0.5200  0.2732
15520TIP3   OH268050   0.965   0.505  15.263 -0.1275  0.2539 -0.0830
15520TIP3    H168051   1.048   0.460  15.278 -0.2983 -0.2756 -0.7297
15520TIP3    H268052   0.941   0.538  15.350  1.3332  1.4263 -0.0744
15521TIP3   OH268053   1.552   4.837   1.360 -0.3043 -0.0984 -0.1599
15521TIP3    H168054   1.495   4.914   1.351  0.3248  0.5733  1.3444
15521TIP3    H268055   1.515   4.789   1.434 -0.9063 -1.4823 -1.3050
15522TIP3   OH268056   6.799   1.408  13.793  1.0921  0.4587  0.2180
15522TIP3    H168057   6.762   1.321  13.780  1.5651  0.0693  1.4132
15522TIP3    H268058   6.867   1.415  13.726 -0.2126  0.6827 -1.1505
15523TIP3   OH268059   4.396   2.196   0.394  0.5029  0.1624 -0.1209
15523TIP3    H168060   4.374   2.161   0.480 -1.8034  1.1291 -0.2507
15523TIP3    H268061   4.474   2.146   0.367  0.3155 -1.2826  1.7994
15524TIP3   OH268062   4.030   1.337  15.900 -0.3316 -0.4258  0.4747
15524TIP3    H168063   3.968   1.352  15.829 -0.8673 -1.6801  0.6489
15524TIP3    H268064   4.105   1.296  15.858 -1.2284 -2.5255  0.7661
15525TIP3   OH268065   2.344   2.569   5.776  0.0066 -0.4579  0.3442
15525TIP3    H168066   2.257   2.608   5.767  0.3468  0.3619  0.5792
15525TIP3    H268067   2.373   2.594   5.863  0.7562 -0.1712  0.0173
15526TIP3   OH268068   3.254   1.231  15.887 -0.2684 -0.5461  0.4359
15526TIP3    H168069   3.344   1.261  15.876 -0.3779 -0.6927 -0.9679
15526TIP3    H268070   3.204   1.311  15.904 -0.0542 -0.3268  0.0330
15527TIP3   OH268071   0.067   3.070   1.744 -0.2069 -0.0981  0.3497
15527TIP3    H168072   0.107   3.146   1.787  2.0337 -2.3054  2.4683
15527TIP3    H268073   0.008   3.034   1.810 -2.0888  0.3173 -1.0237
15528TIP3   OH268074   6.664   5.247  15.274 -0.3223  0.0919 -0.4263
15528TIP3    H168075   6.581   5.244  15.322 -0.4851  0.0810 -0.7061
15528TIP3    H268076   6.659   5.328  15.223  1.3315  2.0373  2.2059
15529TIP3   OH268077   2.356   6.198  16.581 -0.2119  0.4421 -0.3626
15529TIP3    H168078   2.338   6.164  16.493 -1.6687  0.6577 -0.1847
15529TIP3    H268079   2.273   6.184  16.628 -0.2164  2.4375  0.2917
15530TIP3   OH268080   2.319   6.285   5.642 -0.1951 -0.5333 -0.1980
15530TIP3    H168081   2.249   6.220   5.632  0.1209 -0.9049 -0.0096
15530TIP3    H268082   2.320   6.303   5.736 -0.2606 -0.2778 -0.2464
15531TIP3   OH268083   6.426   0.810  10.812  0.3640  0.0083 -0.4630
15531TIP3    H168084   6.497   0.776  10.867  0.4230 -0.3636 -0.7627
15531TIP3    H268085   6.346   0.777  10.854  0.4327 -0.8123 -0.9406
15532TIP3   OH268086   2.217   6.416  16.779  0.1378  0.2101  0.7492
15532TIP3    H168087   2.237   6.446  16.868 -0.3830  0.8557  0.6531
15532TIP3    H268088   2.289   6.357  16.757  1.5228  1.8536  0.6999
15533TIP3   OH268089   0.163   0.942   2.346 -0.3386  0.2874  0.3379
15533TIP3    H168090   0.224   0.890   2.399  0.4933  0.7965 -0.1002
15533TIP3    H268091   0.077   0.916   2.377  0.1070 -0.1664  1.2467
15534TIP3   OH268092   2.831   1.133  15.447 -0.6498  0.3136  0.9064
15534TIP3    H168093   2.856   1.078  15.521  0.0293  0.5080  0.8321
15534TIP3    H268094   2.909   1.136  15.392 -0.8037  1.0217  0.7085
15535TIP3   OH268095   0.822   6.696  13.936  0.2824  0.0054 -0.3252
15535TIP3    H168096   0.878   6.701  14.014 -0.0726  0.5168 -0.0932
15535TIP3    H268097   0.872   6.741  13.868 -0.8477  2.7489  0.5139
15536TIP3   OH268098   3.555   5.465   2.741 -0.3854  0.8503  0.1946
15536TIP3    H168099   3.619   5.494   2.806 -1.4775  0.5800  1.4345
15536TIP3    H268100   3.471   5.494   2.775 -1.2728 -1.5094  0.2315
15537TIP3   OH268101   5.073   1.830   3.445 -0.3183 -0.0100 -0.1645
15537TIP3    H168102   5.100   1.886   3.518 -0.0834  0.2161 -0.4252
15537TIP3    H268103   5.155   1.800   3.406 -0.4417  0.3706 -0.7212
15538TIP3   OH268104   0.316   1.107  16.237 -0.4417 -0.4975  0.4639
15538TIP3    H168105   0.245   1.102  16.301 -1.8139 -0.3817 -0.9594
15538TIP3    H268106   0.388   1.148  16.283 -1.1746 -0.9567  2.0813
15539TIP3   OH268107   1.142   1.557   0.817 -0.5881  0.0309 -0.2378
15539TIP3    H168108   1.063   1.603   0.846 -0.7480 -0.7204  0.5600
15539TIP3    H268109   1.119   1.522   0.731 -0.5871  1.1011 -0.6926
15540TIP3   OH268110   5.412   0.083   3.481 -0.6336 -0.3657  0.6267
15540TIP3    H168111   5.416   0.177   3.463  0.1780 -0.6090 -0.5761
15540TIP3    H268112   5.427   0.076   3.576  1.0649  0.6417  0.4816
15541TIP3   OH268113   4.962   6.497   5.618 -0.0614  0.4692 -0.1927
15541TIP3    H168114   4.912   6.530   5.693  0.9029  0.2557  0.5578
15541TIP3    H268115   4.993   6.411   5.646 -1.1192 -0.3771 -1.4939
15542TIP3   OH268116   2.235   1.209  10.440 -0.1100 -0.1394  0.2442
15542TIP3    H168117   2.331   1.204  10.436  0.0851  2.0564  0.7524
15542TIP3    H268118   2.216   1.303  10.440 -2.4378 -0.4142 -2.9554
15543TIP3   OH268119   6.460   0.226   0.708  0.0263  0.3110 -0.0188
15543TIP3    H168120   6.371   0.223   0.673  0.7976  0.9471 -2.2232
15543TIP3    H268121   6.498   0.306   0.671  1.8824 -0.5614 -0.1552
15544TIP3   OH268122   3.291   5.720   2.768  0.6246  0.2387 -0.4674
15544TIP3    H168123   3.352   5.732   2.695 -1.3807 -2.6303 -2.9016
15544TIP3    H268124   3.229   5.792   2.760  0.4312 -0.0334 -1.6709
15545TIP3   OH268125   2.005   1.361  12.750  0.1115 -0.6050  0.3744
15545TIP3    H168126   1.928   1.303  12.750 -0.2768 -0.1098  1.1342
15545TIP3    H268127   1.970   1.447  12.726  0.6381 -0.6187 -0.4754
15546TIP3   OH268128   6.807   2.553   2.348 -0.4351  0.8633  0.0366
15546TIP3    H168129   6.799   2.457   2.345  0.7249  0.7389  0.6396
15546TIP3    H268130   6.733   2.581   2.402 -0.4599  0.2591  0.3289
15547TIP3   OH268131   2.520   4.681   2.682 -0.3291  0.4180 -0.4608
15547TIP3    H168132   2.531   4.608   2.744 -1.6233  0.3402 -0.2937
15547TIP3    H268133   2.461   4.742   2.727 -3.0150 -0.5981 -2.3435
15548TIP3   OH268134   4.650   0.509  12.620 -0.3616  0.3640 -0.9298
15548TIP3    H168135   4.635   0.567  12.546  0.2012  0.9097 -0.6196
15548TIP3    H268136   4.600   0.547  12.692  1.1400  1.2808 -0.3376
15549TIP3   OH268137   1.876   5.048  13.943 -0.2015 -0.4540 -0.4220
15549TIP3    H168138   1.873   4.967  13.993 -0.6182  0.6631  1.4478
15549TIP3    H268139   1.963   5.084  13.959 -0.5289  0.1844 -0.0214
15550TIP3   OH268140   6.358   6.805  16.121  0.1567 -0.4350 -0.2221
15550TIP3    H168141   6.366   6.773  16.031  0.1032  1.1641 -0.8337
15550TIP3    H268142   6.313   6.888  16.113 -3.6759 -2.0753  1.6888
15551TIP3   OH268143   0.618   6.807  12.018 -0.2643  0.7680 -0.1424
15551TIP3    H168144   0.654   6.761  12.094 -0.5190  2.1100  0.8210
15551TIP3    H268145   0.524   6.795  12.026 -0.2862  0.8071 -0.3381
15552TIP3   OH268146   1.668   0.302   4.380  0.2702  0.3866 -0.2098
15552TIP3    H168147   1.678   0.262   4.294  0.8670 -1.8470  0.8327
15552TIP3    H268148   1.756   0.328   4.405  0.2394  0.1969  0.0995
15553TIP3   OH268149   1.364   4.980  12.909 -0.0002 -0.4244  0.2517
15553TIP3    H168150   1.269   4.987  12.915  0.0792  0.1547  0.9062
15553TIP3    H268151   1.392   4.955  12.998  0.3185 -2.3228 -0.3382
15554TIP3   OH268152   0.322   0.399   1.676  0.1624  0.4714 -0.4038
15554TIP3    H168153   0.246   0.402   1.618 -0.0903  0.3087 -0.0790
15554TIP3    H268154   0.320   0.483   1.722 -0.9789 -0.3312  1.0791
15555TIP3   OH268155   2.498   2.481  14.884  0.1187 -0.5405 -0.1595
15555TIP3    H168156   2.502   2.577  14.889 -1.9126 -0.4271  0.3528
15555TIP3    H268157   2.486   2.453  14.974  1.2021 -1.3316 -0.2534
15556TIP3   OH268158   6.824   5.580  15.494  0.5150 -0.7854  0.8930
15556TIP3    H168159   6.828   5.529  15.575 -1.1936  0.6861  1.9770
15556TIP3    H268160   6.743   5.550  15.451 -0.7690  1.2582  1.7814
15557TIP3   OH268161   3.516   2.116   2.106 -0.1607 -0.1156 -0.7135
15557TIP3    H168162   3.583   2.101   2.040  0.0501 -1.7464 -0.1710
15557TIP3    H268163   3.435   2.085   2.065 -0.1571 -0.4254 -0.4893
15558TIP3   OH268164   1.389   4.108   5.080 -0.1209  0.3644 -0.0233
15558TIP3    H168165   1.316   4.070   5.128 -0.0244  0.4421  0.1854
15558TIP3    H268166   1.457   4.122   5.146 -0.3411  1.3665  0.0004
15559TIP3   OH268167   4.940   6.047  17.107  0.0795 -0.2873  0.2144
15559TIP3    H168168   4.922   6.008  17.192 -0.8237  0.5922  0.4408
15559TIP3    H268169   4.880   6.002  17.047  0.0346 -0.2237  0.2129
15560TIP3   OH268170   6.084   1.711  11.633  0.5783  0.0418 -0.8805
15560TIP3    H168171   6.095   1.668  11.718 -0.9481  0.9830 -0.1764
15560TIP3    H268172   6.169   1.753  11.616  0.5992  0.6605  0.6563
15561TIP3   OH268173   2.605   2.502  13.141 -0.5873  0.9076 -0.2465
15561TIP3    H168174   2.633   2.458  13.060 -0.1244 -2.2567  1.4701
15561TIP3    H268175   2.514   2.525  13.125 -0.6147  0.0189 -1.5549
15562TIP3   OH268176   4.699   5.535  13.426  0.7192 -0.0157 -0.0490
15562TIP3    H168177   4.781   5.566  13.463  0.9875 -1.8788  1.0373
15562TIP3    H268178   4.679   5.597  13.355  1.5505  2.1509  1.5008
15563TIP3   OH268179   5.810   0.814  15.521 -0.2407 -0.4277 -0.2274
15563TIP3    H168180   5.839   0.735  15.566 -0.1430 -0.1180  0.2704
15563TIP3    H268181   5.876   0.880  15.544 -0.0449 -0.3286 -1.0480
15564TIP3   OH268182   5.795   0.417  15.018 -0.8176  0.0909 -0.8911
15564TIP3    H168183   5.835   0.498  15.050 -0.9516  0.0551 -0.6336
15564TIP3    H268184   5.701   0.437  15.015 -0.8760 -0.1402 -0.5843
15565TIP3   OH268185   5.675   2.454   2.393 -0.0293  0.5720 -0.4166
15565TIP3    H168186   5.666   2.546   2.370 -2.2858  0.8866  1.3349
15565TIP3    H268187   5.658   2.451   2.487 -0.3508 -1.6663 -0.4814
15566TIP3   OH268188   0.201   3.188  12.776  0.4668 -0.0350 -0.5578
15566TIP3    H168189   0.151   3.154  12.851  2.2593  2.9122  2.2348
15566TIP3    H268190   0.280   3.134  12.775  0.0714 -0.6302 -0.9486
15567TIP3   OH268191   2.501   3.763   0.728 -0.0179 -0.3195 -0.5938
15567TIP3    H168192   2.503   3.767   0.823 -0.6419 -2.2167 -0.4559
15567TIP3    H268193   2.433   3.825   0.703 -1.4590 -1.4201  0.3843
15568TIP3   OH268194   2.684   0.429  11.941 -0.3668  0.1315 -0.0363
15568TIP3    H168195   2.596   0.451  11.970 -0.2488  1.5272 -0.6414
15568TIP3    H268196   2.670   0.374  11.864 -0.6718 -1.9782  1.4599
15569TIP3   OH268197   4.880   4.595  17.037 -0.0500 -0.2742 -0.0495
15569TIP3    H168198   4.843   4.659  17.098  0.5857  1.0618 -1.0156
15569TIP3    H268199   4.974   4.595  17.055 -0.1454 -1.7071  0.6057
15570TIP3   OH268200   0.998   0.690  11.876 -0.0748 -0.2787  0.4900
15570TIP3    H168201   1.039   0.693  11.790 -2.2920 -2.0470 -0.7678
15570TIP3    H268202   0.934   0.762  11.875 -1.1734 -1.2194 -0.0224
15571TIP3   OH268203   3.539   6.358   3.223  1.2301 -0.6534 -0.2972
15571TIP3    H168204   3.492   6.344   3.141  0.9966 -0.1140 -0.2599
15571TIP3    H268205   3.626   6.389   3.196  1.0985 -0.3133 -0.3460
15572TIP3   OH268206   2.162   1.095   0.929 -0.1587  0.5340  0.0749
15572TIP3    H168207   2.128   1.169   0.880 -3.6170  0.0808  1.5470
15572TIP3    H268208   2.145   1.019   0.873  1.7710  0.5964 -0.6686
15573TIP3   OH268209   5.734   5.608   6.543  0.1576 -0.5759  0.0972
15573TIP3    H168210   5.750   5.673   6.612  0.0172 -0.7716  0.3163
15573TIP3    H268211   5.678   5.542   6.585  0.1537 -0.7474 -0.1752
15574TIP3   OH268212   0.668   3.266  15.396 -0.2115 -0.5866 -0.2048
15574TIP3    H168213   0.592   3.245  15.342  0.3274 -1.6299 -0.6020
15574TIP3    H268214   0.709   3.340  15.352 -1.9735  1.2460  1.0341
15575TIP3   OH268215   4.288   5.509   1.062  0.0454  0.3300  0.1860
15575TIP3    H168216   4.364   5.475   1.109 -1.2085 -0.7212  1.5266
15575TIP3    H268217   4.256   5.435   1.011 -0.1840  0.7300 -0.2633
15576TIP3   OH268218   5.566   4.025   1.585  0.0010  0.2153 -0.2546
15576TIP3    H168219   5.626   4.008   1.658  0.7815  0.0239 -0.9228
15576TIP3    H268220   5.515   3.945   1.577  0.4137 -0.0380 -0.3758
15577TIP3   OH268221   5.021   0.495  12.351  0.0233  0.3340  0.8689
15577TIP3    H168222   5.095   0.479  12.292 -1.4073 -1.8179 -0.4909
15577TIP3    H268223   4.955   0.431  12.324 -1.5030  0.6690  3.4819
15578TIP3   OH268224   1.703   6.816  11.724  0.0723  0.0848 -0.1379
15578TIP3    H168225   1.689   6.728  11.688  0.3192  0.3325 -0.8473
15578TIP3    H268226   1.768   6.802  11.794  0.4571 -0.2340 -0.5501
15579TIP3   OH268227   1.562   2.416  12.207  0.2731  0.5986  0.3970
15579TIP3    H168228   1.485   2.436  12.155  0.1193 -1.3878 -0.2173
15579TIP3    H268229   1.571   2.321  12.202  2.2721  0.6906  1.1526
15580TIP3   OH268230   3.766   3.737   2.867 -0.0063  0.6395  0.0683
15580TIP3    H168231   3.688   3.792   2.868 -0.1995  0.3661  1.1793
15580TIP3    H268232   3.734   3.649   2.846 -0.2451  0.2210  1.9880
15581TIP3   OH268233   6.605   3.092  11.056 -0.0509  0.5947 -0.2277
15581TIP3    H168234   6.571   3.162  11.001 -2.5550 -0.5435 -0.2682
15581TIP3    H268235   6.541   3.084  11.126  1.4795 -0.0458  1.1619
15582TIP3   OH268236   1.009   0.607   2.572 -0.1754 -0.8231  0.6372
15582TIP3    H168237   1.024   0.545   2.501  0.1279 -0.3585  0.2835
15582TIP3    H268238   1.088   0.604   2.625 -0.7383 -1.7927  1.4592
15583TIP3   OH268239   0.023   2.593  16.718  0.0361 -0.0296 -0.2802
15583TIP3    H168240  -0.072   2.604  16.723 -0.2891 -2.7145  0.7156
15583TIP3    H268241   0.056   2.650  16.788 -0.7255  1.4392 -1.0544
15584TIP3   OH268242   1.435   5.553  16.942  0.2872 -0.0255 -0.4043
15584TIP3    H168243   1.383   5.552  16.861  1.2182  0.0253 -1.0149
15584TIP3    H268244   1.384   5.501  17.004  0.3314 -1.4710 -1.5168
15585TIP3   OH268245   4.532   1.335  15.017 -0.1335  0.3791  0.0798
15585TIP3    H168246   4.570   1.315  15.102 -0.1417  0.7369  0.1685
15585TIP3    H268247   4.556   1.426  15.000 -0.7874  0.5525  0.0532
15586TIP3   OH268248   4.631   6.450   0.929  0.1221 -0.1202  0.1893
15586TIP3    H168249   4.716   6.450   0.973 -0.5911 -1.5909  1.6493
15586TIP3    H268250   4.614   6.358   0.910  0.8449  0.4389 -4.2676
15587TIP3   OH268251   3.772   1.504   1.108 -0.3860  0.2999 -0.1774
15587TIP3    H168252   3.786   1.556   1.029 -0.5541 -0.7766 -0.9245
15587TIP3    H268253   3.677   1.495   1.115 -0.3915  0.6762  0.3508
15588TIP3   OH268254   5.071   3.564   3.474  0.0488 -0.4969  0.1947
15588TIP3    H168255   5.161   3.597   3.481  0.3805 -1.3195 -0.0679
15588TIP3    H268256   5.080   3.469   3.485 -0.3826 -0.9920 -2.8946
15589TIP3   OH268257   1.942   4.341   2.107 -0.1479  0.3963 -0.0960
15589TIP3    H168258   1.884   4.274   2.143  0.3768 -0.1416 -0.2459
15589TIP3    H268259   1.914   4.350   2.016  0.4103 -0.3203 -0.3460
15590TIP3   OH268260   5.529   6.661  12.954  0.0447  0.5494  0.3726
15590TIP3    H168261   5.587   6.674  13.029  4.3764  0.2514 -2.5859
15590TIP3    H268262   5.519   6.749  12.917 -0.4536  0.4183  0.1924
15591TIP3   OH268263   5.409   0.020   1.734 -0.3886 -0.4661  0.0971
15591TIP3    H168264   5.319   0.042   1.757 -0.4776  2.3014 -2.2571
15591TIP3    H268265   5.447   0.103   1.705  2.4542 -1.8338 -0.4645
15592TIP3   OH268266   1.785   2.971  15.170  0.3405 -0.1500 -0.1317
15592TIP3    H168267   1.748   2.887  15.140  1.5249 -0.3372 -1.1102
15592TIP3    H268268   1.801   3.020  15.090  1.3540  0.2851  0.3302
15593TIP3   OH268269   5.034   5.803  13.710  0.1498 -0.2419  0.1273
15593TIP3    H168270   5.061   5.894  13.711 -1.4093  0.2535 -0.0944
15593TIP3    H268271   4.940   5.805  13.723  0.2401 -1.9108  1.4289
15594TIP3   OH268272   0.489   0.146   5.856 -0.1698 -0.2442 -0.0908
15594TIP3    H168273   0.447   0.227   5.826 -0.7576 -0.3296  0.4563
15594TIP3    H268274   0.513   0.164   5.947  2.9037  0.5275 -0.9562
15595TIP3   OH268275   6.211   6.219   4.671 -0.8818 -0.0931  0.2422
15595TIP3    H168276   6.268   6.251   4.740  1.5318 -1.4152 -1.0136
15595TIP3    H268277   6.164   6.145   4.711 -0.4733 -0.0368  0.8273
15596TIP3   OH268278   3.236   2.192   4.211  0.3112 -0.3945 -0.1285
15596TIP3    H168279   3.302   2.129   4.241  0.5702 -0.0538  0.0342
15596TIP3    H268280   3.182   2.209   4.289  0.6721  0.1072  0.0196
15597TIP3   OH268281   4.611   6.600  16.051 -0.5181  0.0527  0.6644
15597TIP3    H168282   4.587   6.526  15.996 -0.9947  0.2469  0.5980
15597TIP3    H268283   4.595   6.570  16.141  1.6362 -0.7652  0.8250
15598TIP3   OH268284   5.171   4.466  13.820  1.1034 -0.3263  0.4114
15598TIP3    H168285   5.178   4.387  13.765 -0.5291 -1.0958  1.2494
15598TIP3    H268286   5.140   4.534  13.761 -0.8771 -1.2034  0.3781
15599TIP3   OH268287   2.794   0.147   3.168 -0.6522 -0.4294 -0.6400
15599TIP3    H168288   2.830   0.144   3.257 -3.0331  0.5340  0.4365
15599TIP3    H268289   2.735   0.072   3.164  0.6635 -1.4395 -2.0390
15600TIP3   OH268290   6.348   1.244  12.041 -0.0342  0.0089 -0.3465
15600TIP3    H168291   6.298   1.323  12.018  0.3013 -0.0466 -1.3334
15600TIP3    H268292   6.291   1.196  12.101 -1.2259 -0.1101 -1.5212
15601TIP3   OH268293   5.802   4.584  11.718  0.2792 -0.0281  0.2479
15601TIP3    H168294   5.868   4.652  11.733  0.7040 -0.0065 -1.5303
15601TIP3    H268295   5.853   4.506  11.697 -0.2418 -0.6166  1.1068
15602TIP3   OH268296   1.073   2.540   4.572  0.2861  0.4807  0.4390
15602TIP3    H168297   1.023   2.514   4.494 -1.6800  2.9380  0.7811
15602TIP3    H268298   1.148   2.588   4.537  0.2518  0.2535  0.0408
15603TIP3   OH268299   6.402   3.320  12.752  0.4109 -0.1512  0.7330
15603TIP3    H168300   6.455   3.252  12.710  0.8184 -0.1861  1.3031
15603TIP3    H268301   6.369   3.372  12.678 -1.5661 -2.1105  0.1043
15604TIP3   OH268302   5.716   0.547  11.313 -0.4406  0.2415  0.5495
15604TIP3    H168303   5.685   0.459  11.296 -0.3782  0.4115 -0.5444
15604TIP3    H268304   5.737   0.548  11.406  0.0152 -1.0403  0.4759
15605TIP3   OH268305   1.061   1.338   1.170 -0.0150 -0.4536  0.0566
15605TIP3    H168306   0.995   1.407   1.175 -0.1972 -0.5508 -0.8496
15605TIP3    H268307   1.010   1.257   1.160  0.2373 -0.5452 -0.5075
15606TIP3   OH268308   2.459   4.162   0.448 -0.0108  0.6400 -0.7293
15606TIP3    H168309   2.532   4.209   0.407  0.1604 -0.0249 -1.1971
15606TIP3    H268310   2.419   4.112   0.377 -0.7894  0.8224 -0.4320
15607TIP3   OH268311   0.770   5.453   1.987 -0.4224 -0.3438 -0.8567
15607TIP3    H168312   0.725   5.450   2.072  0.7987 -0.0250 -0.1765
15607TIP3    H268313   0.742   5.535   1.948 -2.1109 -1.1342 -1.4399
15608TIP3   OH268314   4.558   3.784   4.059  0.7330 -0.0004 -0.3109
15608TIP3    H168315   4.518   3.754   3.978 -1.3312  0.5688  0.4354
15608TIP3    H268316   4.644   3.818   4.033  0.0578  0.3203 -2.2563
15609TIP3   OH268317   4.112   1.748   5.960 -0.3214 -0.3078  0.1778
15609TIP3    H168318   4.159   1.801   5.896 -0.0220 -0.1545  0.5163
15609TIP3    H268319   4.056   1.811   6.006  0.3925 -0.1815  0.9083
15610TIP3   OH268320   5.244   6.127   4.753 -0.5636 -0.7212 -0.2638
15610TIP3    H168321   5.275   6.060   4.814 -0.8877  0.0464  0.7793
15610TIP3    H268322   5.282   6.209   4.786  1.8606 -0.6132 -2.9026
15611TIP3   OH268323   0.763   5.781  13.939  0.1815  0.1146  0.1585
15611TIP3    H168324   0.744   5.732  14.019 -0.2640 -1.8545 -1.0819
15611TIP3    H268325   0.767   5.873  13.967  0.3688 -0.5387  2.4673
15612TIP3   OH268326   5.041   4.559  12.632  0.3986  0.0744  0.5338
15612TIP3    H168327   5.120   4.507  12.618 -0.6940 -1.3291 -0.8425
15612TIP3    H268328   5.034   4.567  12.727  1.7839 -0.4279  0.6971
15613TIP3   OH268329   3.051   4.014   5.226  0.2751  0.1695  0.3724
15613TIP3    H168330   3.093   3.980   5.147  0.9570 -1.0739  1.2450
15613TIP3    H268331   2.980   3.953   5.245 -0.5813  1.0550  0.1459
15614TIP3   OH268332   3.170   3.688  15.310  0.3174  0.2333 -0.3663
15614TIP3    H168333   3.123   3.630  15.250 -0.8099  2.1547 -1.4526
15614TIP3    H268334   3.111   3.763  15.322  2.9402  2.7216 -1.6523
15615TIP3   OH268335   1.122   2.234  11.242 -0.5438 -0.2474 -0.1858
15615TIP3    H168336   1.075   2.165  11.290  0.3045 -0.7172 -0.0089
15615TIP3    H268337   1.100   2.314  11.289 -0.3852 -0.5967  0.5024
15616TIP3   OH268338   5.679   1.875   0.817 -0.0303  0.4611 -0.0266
15616TIP3    H168339   5.669   1.966   0.791 -0.8084  0.1259 -0.9802
15616TIP3    H268340   5.589   1.842   0.824  0.1868  0.1487  1.7722
15617TIP3   OH268341   1.148   5.730  14.684 -1.0531 -0.2660  0.9991
15617TIP3    H168342   1.123   5.638  14.693  2.6595 -1.4100  1.5458
15617TIP3    H268343   1.069   5.774  14.652 -2.4488 -3.9691 -1.2302
15618TIP3   OH268344   0.786   5.747   5.237 -0.7057 -0.5129  0.1919
15618TIP3    H168345   0.776   5.765   5.143 -0.1840 -1.2348 -0.0060
15618TIP3    H268346   0.760   5.656   5.247 -0.4787 -0.5239  0.7086
15619TIP3   OH268347   3.208   0.077   1.455 -0.4776 -0.5569  0.1475
15619TIP3    H168348   3.166  -0.005   1.430 -0.6472 -0.2903 -0.4754
15619TIP3    H268349   3.277   0.089   1.390  0.5351 -0.9495  1.1120
15620TIP3   OH268350   5.868   0.070   4.991  0.2567 -0.0326  0.5080
15620TIP3    H168351   5.799   0.116   4.942  1.2944 -0.2659 -1.2276
15620TIP3    H268352   5.822   0.032   5.066 -1.3648  0.4304 -0.2041
15621TIP3   OH268353   4.857   2.626   1.114  0.2170  0.3828  0.8341
15621TIP3    H168354   4.849   2.579   1.197  1.5881 -2.9191 -0.7201
15621TIP3    H268355   4.932   2.585   1.071 -0.6145  1.7589 -2.1482
15622TIP3   OH268356   0.182   6.455   1.319  0.4183 -0.0982 -0.0714
15622TIP3    H168357   0.135   6.526   1.363  1.4512  0.5325  0.0438
15622TIP3    H268358   0.215   6.494   1.238  3.0141  0.3007  1.0735
15623TIP3   OH268359   6.203   3.562  12.096  0.0422  0.3698 -0.2688
15623TIP3    H168360   6.263   3.521  12.035 -0.2184  0.0941 -0.3409
15623TIP3    H268361   6.152   3.623  12.042 -2.2302 -1.9554 -0.9705
15624TIP3   OH268362   1.760   2.711  11.657  0.2889 -0.2149 -0.0768
15624TIP3    H168363   1.695   2.768  11.698  0.0758  1.2430 -2.2734
15624TIP3    H268364   1.713   2.665  11.588  0.8868 -1.7158  0.4685
15625TIP3   OH268365   2.172   0.775   3.083  0.2135 -0.1096 -0.0478
15625TIP3    H168366   2.101   0.779   3.148 -0.6084  0.2835 -0.9522
15625TIP3    H268367   2.130   0.744   3.003  1.3315 -1.1583 -0.2602
15626TIP3   OH268368   5.461   2.752   5.866  0.0034 -0.9983 -0.2839
15626TIP3    H168369   5.482   2.792   5.782  1.2372 -0.9082  0.0440
15626TIP3    H268370   5.396   2.810   5.905  0.9462  0.1145 -0.3019
15627TIP3   OH268371   0.080   3.453   2.895 -0.4511 -0.4002  0.4004
15627TIP3    H168372   0.162   3.496   2.873  0.0947 -0.8445  1.4952
15627TIP3    H268373   0.055   3.407   2.815  0.8165 -0.9525  0.3020
15628TIP3   OH268374   1.303   6.661   3.447  0.1778 -0.0455  0.7254
15628TIP3    H168375   1.394   6.685   3.427  0.2926 -0.1669  1.0987
15628TIP3    H268376   1.297   6.569   3.423 -0.0034  0.0970  0.1862
15629TIP3   OH268377   1.664   3.357   3.231 -0.2304  0.2010 -0.4197
15629TIP3    H168378   1.722   3.292   3.271 -1.5317 -0.9628 -0.3344
15629TIP3    H268379   1.698   3.369   3.143  1.9722  1.8997  0.5794
15630TIP3   OH268380   2.125   3.532  16.849  0.6540  0.2958 -0.0853
15630TIP3    H168381   2.059   3.463  16.855  0.1530  0.4566 -2.7604
15630TIP3    H268382   2.201   3.489  16.810  1.6204  0.5037  1.4630
15631TIP3   OH268383   2.432   0.678  11.842  0.2839  0.3103 -0.4429
15631TIP3    H168384   2.438   0.741  11.914  1.0742 -1.4293  1.0836
15631TIP3    H268385   2.347   0.635  11.855  0.6748 -0.3961 -0.2039
15632TIP3   OH268386   5.386   3.818  10.451  0.3210  0.1016  0.5211
15632TIP3    H168387   5.351   3.764  10.521  0.7232  0.3909  0.9485
15632TIP3    H268388   5.394   3.906  10.489  2.6692 -0.1936  0.8434
15633TIP3   OH268389   4.040   5.926  13.360  0.5008  0.2565 -0.0296
15633TIP3    H168390   3.961   5.883  13.391  0.2906  0.5271 -0.1864
15633TIP3    H268391   4.077   5.865  13.296  0.4986  0.0673  0.1477
15634TIP3   OH268392   0.484   4.414  14.850  0.1346 -0.2238 -0.3690
15634TIP3    H168393   0.574   4.433  14.879  0.3354 -0.8477 -0.5747
15634TIP3    H268394   0.479   4.452  14.762  0.0820  0.1300 -0.2142
15635TIP3   OH268395   2.776   3.376   0.814  0.0032  0.6376 -0.1061
15635TIP3    H168396   2.717   3.428   0.760 -1.9272  0.3488  1.6099
15635TIP3    H268397   2.863   3.414   0.799 -1.0430  3.0951 -0.3712
15636TIP3   OH268398   5.573   3.645   0.500 -0.0479  0.5328  0.0879
15636TIP3    H168399   5.481   3.661   0.522 -0.0841 -0.5141  0.7448
15636TIP3    H268400   5.570   3.578   0.431  0.2369 -0.2305  0.7979
15637TIP3   OH268401   5.760   2.695  11.814 -0.5769  0.7575  0.4038
15637TIP3    H168402   5.719   2.701  11.900  0.8487 -0.7021  1.2242
15637TIP3    H268403   5.854   2.697  11.831 -0.2216 -1.5289 -0.9045
15638TIP3   OH268404   6.468   2.792  10.655 -0.1682 -0.1416 -0.1636
15638TIP3    H168405   6.405   2.842  10.604 -0.3051  0.9896  1.0522
15638TIP3    H268406   6.450   2.816  10.746  0.7390 -1.3012  0.3572
15639TIP3   OH268407   0.711   3.056   5.488 -0.3742  0.0537 -0.0442
15639TIP3    H168408   0.661   2.991   5.438  0.0131 -0.5572  0.3486
15639TIP3    H268409   0.801   3.024   5.485  0.0180  1.1896 -0.8148
15640TIP3   OH268410   0.144   4.646   0.748  0.0942  0.0962  0.1110
15640TIP3    H168411   0.058   4.658   0.709 -0.4256 -2.8257  0.0882
15640TIP3    H268412   0.129   4.654   0.843 -0.6043 -1.8439  0.2223
15641TIP3   OH268413   4.009   2.295  14.912  0.2086 -0.0918  0.5278
15641TIP3    H168414   4.004   2.357  14.840  0.5531  1.4792  1.8053
15641TIP3    H268415   3.918   2.273  14.931 -0.0476  1.4782  1.2446
15642TIP3   OH268416   3.181   5.106  12.065 -0.0891 -0.1306  0.0490
15642TIP3    H168417   3.188   5.199  12.043  3.1155 -0.7800 -2.5847
15642TIP3    H268418   3.258   5.089  12.119  1.5637 -1.8031 -2.5796
15643TIP3   OH268419   5.908   3.927  13.550 -0.1229  0.1074  0.0316
15643TIP3    H168420   5.945   3.863  13.610  1.3986  0.8597 -0.0664
15643TIP3    H268421   5.946   4.011  13.577 -2.2535  1.0483  0.3291
15644TIP3   OH268422   6.053   6.134   1.317 -0.2813  0.1251 -0.1911
15644TIP3    H168423   6.111   6.210   1.309  1.1139 -0.4698  2.8167
15644TIP3    H268424   6.068   6.083   1.237  0.6096  1.7702 -1.1231
15645TIP3   OH268425   6.195   2.626  11.951 -0.1387 -0.4316  0.3820
15645TIP3    H168426   6.192   2.598  11.859  0.5047 -0.4264  0.3518
15645TIP3    H268427   6.215   2.546  11.999 -0.8996 -0.5182  0.5692
15646TIP3   OH268428   4.863   6.006   4.573 -0.0581  0.4152  0.0565
15646TIP3    H168429   4.884   5.939   4.638 -1.2837  0.5562  0.6269
15646TIP3    H268430   4.921   5.987   4.499  0.0992 -0.8515  0.4773
15647TIP3   OH268431   4.714   0.504  15.994 -0.3411 -0.3864 -0.3496
15647TIP3    H168432   4.676   0.550  16.069  0.0319 -0.4248 -0.1318
15647TIP3    H268433   4.720   0.413  16.022  0.7033 -0.2383 -0.0519
15648TIP3   OH268434   1.218   2.516  15.602  0.0645  0.2165 -0.8020
15648TIP3    H168435   1.284   2.454  15.632  1.1717  1.7478  0.1044
15648TIP3    H268436   1.267   2.597  15.584 -1.1642  0.5834 -2.9062
15649TIP3   OH268437   6.042   1.763  14.325 -0.5363 -0.2130  0.0071
15649TIP3    H168438   6.004   1.686  14.367 -0.3405 -0.5551 -0.4357
15649TIP3    H268439   6.136   1.759  14.347 -0.6543  0.3424  0.6587
15650TIP3   OH268440   0.925   2.544   5.558 -0.1595 -0.7293  0.5797
15650TIP3    H168441   0.831   2.525   5.553 -0.5362 -0.3949  3.9393
15650TIP3    H268442   0.959   2.481   5.621  1.1965  1.1303  1.8260
15651TIP3   OH268443   0.369   1.339  14.215  0.2513  0.0243  0.6910
15651TIP3    H168444   0.284   1.353  14.172 -0.0124 -2.3694  0.2676
15651TIP3    H268445   0.362   1.386  14.298 -1.8755 -0.8734  1.0803
15652TIP3   OH268446   6.224   5.497  12.802 -0.3094  0.3731 -0.1779
15652TIP3    H168447   6.286   5.543  12.745 -0.7786 -0.5522 -1.4780
15652TIP3    H268448   6.166   5.567  12.834  0.6104  1.0604  0.0352
15653TIP3   OH268449   6.518   3.680   1.879  0.3104 -0.1517  0.2750
15653TIP3    H168450   6.573   3.734   1.823 -1.1168  0.0798 -0.9629
15653TIP3    H268451   6.430   3.717   1.870 -0.4875 -1.9339  0.3224
15654TIP3   OH268452   6.553   2.063   4.133 -0.0882  0.4584  0.0723
15654TIP3    H168453   6.640   2.098   4.153  0.9261 -1.6963 -0.2618
15654TIP3    H268454   6.532   2.100   4.047  1.6812 -0.8733 -1.0300
15655TIP3   OH268455   1.784   3.886   2.018  0.6876 -0.2203  0.3955
15655TIP3    H168456   1.850   3.938   1.972  0.2989 -0.9361 -1.0515
15655TIP3    H268457   1.706   3.891   1.962 -0.3514  0.2199  1.8278
15656TIP3   OH268458   2.771   6.818   1.989 -0.6604  0.7566  0.0722
15656TIP3    H168459   2.677   6.825   1.974 -0.3585  1.5439 -1.6053
15656TIP3    H268460   2.796   6.903   2.025 -0.5931  0.5198  0.5932
15657TIP3   OH268461   5.029   2.645   4.301  0.5019 -0.1193  0.3077
15657TIP3    H168462   5.044   2.633   4.395  1.6464 -0.3084  0.1156
15657TIP3    H268463   4.965   2.579   4.277  1.1738 -0.9292  0.7137
15658TIP3   OH268464   6.185   2.185   1.455  0.1437 -0.4566 -0.2902
15658TIP3    H168465   6.127   2.248   1.498  0.1983 -1.0007  0.6034
15658TIP3    H268466   6.252   2.239   1.414  2.2579  0.0922  3.3663
15659TIP3   OH268467   5.890   1.919  15.504  0.0264 -0.4418 -0.0988
15659TIP3    H168468   5.904   1.855  15.574 -1.9375 -1.1570 -0.3076
15659TIP3    H268469   5.828   1.877  15.445 -0.4250  1.2128 -0.8466
15660TIP3   OH268470   4.092   2.317  14.593  0.1417  0.4273  0.3820
15660TIP3    H168471   4.187   2.312  14.600  0.1714 -1.4552 -0.6185
15660TIP3    H268472   4.067   2.233  14.553 -2.0785  0.1939  2.0792
15661TIP3   OH268473   2.464   1.741  16.317 -0.5713 -0.4081 -0.1598
15661TIP3    H168474   2.550   1.737  16.275 -0.1585  0.1384  0.6006
15661TIP3    H268475   2.422   1.658  16.295  0.0127 -0.5326 -0.8313
15662TIP3   OH268476   1.521   0.588   0.324  0.1103 -0.2925 -0.5933
15662TIP3    H168477   1.446   0.552   0.277  0.7726 -2.1123 -0.3647
15662TIP3    H268478   1.592   0.526   0.306  0.7223 -0.3606  1.7181
15663TIP3   OH268479   1.457   4.724   1.731 -0.0635  0.5550  0.3611
15663TIP3    H168480   1.426   4.672   1.657 -0.5897  1.7685 -0.2998
15663TIP3    H268481   1.418   4.683   1.808  1.7035 -1.6811  0.2011
15664TIP3   OH268482   5.188   0.543  12.072 -0.0914 -0.5561  0.0447
15664TIP3    H168483   5.101   0.504  12.064 -1.0248  1.3815  0.2483
15664TIP3    H268484   5.190   0.612  12.006  0.6085  0.5832  1.2078
15665TIP3   OH268485   4.181   5.320  17.061 -0.5306  0.0206 -0.0491
15665TIP3    H168486   4.151   5.312  17.151 -2.0623  1.2514 -0.3943
15665TIP3    H268487   4.275   5.330  17.067 -0.4332 -1.4496  1.2895
15666TIP3   OH268488   4.019   0.010   3.792 -0.4611  0.3414  0.1000
15666TIP3    H168489   4.025  -0.059   3.859  1.2233  0.5539  0.2113
15666TIP3    H268490   3.926   0.013   3.769 -0.8665 -0.6472  1.4720
15667TIP3   OH268491   5.822   3.552   0.563 -0.5329 -0.8846  0.0327
15667TIP3    H168492   5.888   3.542   0.495  1.0708  1.1588  1.1611
15667TIP3    H268493   5.747   3.591   0.519  0.5962  0.7265 -0.5665
15668TIP3   OH268494   2.493   4.705  12.930  0.2994 -0.5307  0.7077
15668TIP3    H168495   2.519   4.624  12.974  0.8778 -0.0149  1.3210
15668TIP3    H268496   2.475   4.678  12.840 -0.0980 -1.4465  1.0430
15669TIP3   OH268497   4.148   4.494   5.440 -0.7106 -0.6736  0.2778
15669TIP3    H168498   4.126   4.461   5.353 -1.9704 -1.6259  0.9403
15669TIP3    H268499   4.190   4.420   5.484  0.0289 -0.1597  0.4640
15670TIP3   OH268500   1.322   1.350  16.757 -0.2404  0.0957 -0.0204
15670TIP3    H168501   1.282   1.430  16.723  1.6595  0.1151 -2.5097
15670TIP3    H268502   1.254   1.284  16.747 -1.6843  1.2396  1.6476
15671TIP3   OH268503   3.168   2.515  15.574  0.2218 -0.4934  0.3700
15671TIP3    H168504   3.194   2.441  15.519 -0.4690 -0.2259 -0.3436
15671TIP3    H268505   3.246   2.536  15.624  0.4096 -1.7563  0.6472
15672TIP3   OH268506   3.292   2.107   5.857 -0.0768  0.4030 -0.3239
15672TIP3    H168507   3.383   2.082   5.838 -0.0309 -1.7079  2.0954
15672TIP3    H268508   3.295   2.139   5.947 -1.7980 -0.1426 -0.0412
15673TIP3   OH268509   0.737   5.581  13.108  0.6240  0.1467  0.3009
15673TIP3    H168510   0.653   5.577  13.062  1.3293  0.9499 -1.1115
15673TIP3    H268511   0.719   5.541  13.194 -1.4390  1.1781  0.4115
15674TIP3   OH268512   3.687   3.511  11.485  0.4782  0.1033 -0.2511
15674TIP3    H168513   3.775   3.529  11.517  0.3035  2.5296 -0.9381
15674TIP3    H268514   3.634   3.582  11.520 -0.6212  0.2902 -2.1826
15675TIP3   OH268515   5.105   0.928   2.915  0.1259  0.1230  0.0827
15675TIP3    H168516   5.185   0.890   2.879  0.1445  0.7767 -0.5902
15675TIP3    H268517   5.034   0.890   2.864 -0.0461 -0.8192  0.9908
15676TIP3   OH268518   4.900   4.405  10.771  0.1200  0.3249  0.1509
15676TIP3    H168519   4.847   4.348  10.715  0.7845  0.3020 -0.4575
15676TIP3    H268520   4.876   4.493  10.744 -0.0893  0.3270  0.3348
15677TIP3   OH268521   4.713   1.339   0.298  0.9048 -0.0989 -0.3501
15677TIP3    H168522   4.736   1.381   0.380 -1.6990 -0.2530  0.5684
15677TIP3    H268523   4.764   1.258   0.297  0.0637 -0.7338  1.8093
15678TIP3   OH268524   6.264   5.022   3.183 -0.0045  0.6640 -0.7869
15678TIP3    H168525   6.339   5.039   3.239  0.4367 -1.2081 -0.7688
15678TIP3    H268526   6.274   4.932   3.155 -3.0818 -0.2153  0.4985
15679TIP3   OH268527   1.754   0.828  13.426  0.3049  0.4044  0.1009
15679TIP3    H168528   1.673   0.878  13.437  0.7817  1.3973 -0.6543
15679TIP3    H268529   1.774   0.836  13.332  1.3008  0.2423  0.2883
15680TIP3   OH268530   4.899   0.295  14.726 -0.4595 -0.4859 -0.1972
15680TIP3    H168531   4.994   0.304  14.719 -0.6470  0.7026 -1.6399
15680TIP3    H268532   4.884   0.200  14.726  0.6346 -0.6990 -1.8390
15681TIP3   OH268533   1.636   0.637   1.079  0.4371  0.4366 -0.3655
15681TIP3    H168534   1.710   0.634   1.139  0.0705 -1.0391  0.0472
15681TIP3    H268535   1.626   0.547   1.047 -0.3646  0.8698 -1.4193
15682TIP3   OH268536   2.215   5.842   3.146  0.4591  0.1065  0.2492
15682TIP3    H168537   2.247   5.825   3.235  1.0305 -0.0134  0.0298
15682TIP3    H268538   2.292   5.876   3.100 -0.1353  1.3114  0.1191
15683TIP3   OH268539   2.096   0.854  15.132  0.3018  0.7906 -0.7477
15683TIP3    H168540   2.140   0.769  15.130  1.2715  1.1577  1.6112
15683TIP3    H268541   2.008   0.834  15.164  0.8432  0.7307  0.7985
15684TIP3   OH268542   2.898   2.619  15.103 -0.6148  0.4565 -0.1561
15684TIP3    H168543   2.875   2.535  15.144  2.7626 -0.1529  0.7848
15684TIP3    H268544   2.993   2.626  15.114 -0.6845  4.1985 -0.6811
15685TIP3   OH268545   6.577   6.772  11.764  0.2081 -0.0852 -0.4067
15685TIP3    H168546   6.545   6.708  11.829 -0.1818  1.5761  1.1235
15685TIP3    H268547   6.670   6.753  11.756 -0.0505 -1.3448 -0.5738
15686TIP3   OH268548   5.729   2.033   4.888 -0.2912 -0.3972  0.1773
15686TIP3    H168549   5.699   2.117   4.854  1.3803  0.1000 -0.1140
15686TIP3    H268550   5.712   2.038   4.982 -1.2550 -0.2164  0.0097
15687TIP3   OH268551   0.568   4.735   2.848  0.1023  0.6247 -0.0090
15687TIP3    H168552   0.579   4.814   2.796  0.2932  1.0639  0.6950
15687TIP3    H268553   0.474   4.717   2.845 -0.1412  1.6299  0.9031
15688TIP3   OH268554   6.805   3.065   4.102  0.0094  0.1567  0.3013
15688TIP3    H168555   6.896   3.035   4.099  0.0474  0.1580  1.1448
15688TIP3    H268556   6.760   3.014   4.035  0.7064  0.4224 -0.3786
15689TIP3   OH268557   1.793   6.487  16.321 -0.0042  0.2696 -0.0717
15689TIP3    H168558   1.874   6.482  16.269  1.1507  1.1647  1.5322
15689TIP3    H268559   1.736   6.420  16.284 -0.1016  2.1810 -3.8333
15690TIP3   OH268560   1.165   4.790   5.694 -0.2035 -0.7689 -0.0457
15690TIP3    H168561   1.107   4.866   5.691 -2.3202 -2.2704  0.6080
15690TIP3    H268562   1.151   4.752   5.780  0.6317 -2.0470 -0.4428
15691TIP3   OH268563   3.524   5.754   5.802 -0.1123 -0.2092  0.7323
15691TIP3    H168564   3.577   5.742   5.724  0.6264  1.4297  0.9565
15691TIP3    H268565   3.583   5.735   5.875 -0.6056 -1.0552  0.9221
15692TIP3   OH268566   3.345   2.198  13.235  0.3706 -0.1253  0.3180
15692TIP3    H168567   3.253   2.177  13.252  1.2438 -2.6240  2.5668
15692TIP3    H268568   3.359   2.172  13.144 -0.6085 -2.1551  0.6783
15693TIP3   OH268569   5.009   1.109   3.159  0.3547  0.5427 -0.5397
15693TIP3    H168570   5.048   1.085   3.075  2.2783  0.0192  0.4326
15693TIP3    H268571   4.952   1.183   3.139  0.4853  0.2075 -2.3407
15694TIP3   OH268572   6.480   2.196  15.945 -0.1313 -0.4151 -0.0157
15694TIP3    H168573   6.521   2.111  15.959 -0.6507 -0.9279 -1.5139
15694TIP3    H268574   6.530   2.236  15.874 -0.3378  0.2507  0.2007
15695TIP3   OH268575   5.156   1.783  11.614 -0.3053 -0.1799  0.6364
15695TIP3    H168576   5.126   1.763  11.525  2.0279  0.4312 -0.3628
15695TIP3    H268577   5.177   1.698  11.652  0.8339 -0.3253 -0.2570
15696TIP3   OH268578   6.458   5.926  16.733 -0.2268  0.0941  0.1288
15696TIP3    H168579   6.507   5.890  16.658 -0.3164  1.7004 -0.7590
15696TIP3    H268580   6.446   5.851  16.791 -0.3018 -1.2760 -1.5392
15697TIP3   OH268581   0.104   5.252   4.486  0.5086  0.0279  0.0464
15697TIP3    H168582   0.159   5.329   4.498 -1.7608  1.7066  0.0767
15697TIP3    H268583   0.160   5.191   4.438  2.2975  1.7527 -0.1899
15698TIP3   OH268584   1.479   1.255  11.399 -0.0845  0.3636  0.0545
15698TIP3    H168585   1.488   1.221  11.310 -0.6340 -0.0328  0.1417
15698TIP3    H268586   1.566   1.286  11.422 -0.3704  2.4283 -1.3828
15699TIP3   OH268587   1.325   4.131  14.244 -0.3908 -0.3686 -0.5020
15699TIP3    H168588   1.289   4.175  14.321  1.8435  0.0701  0.3718
15699TIP3    H268589   1.297   4.185  14.170  0.1263  1.0729  0.3248
15700TIP3   OH268590   5.213   3.063   3.010  0.1463 -0.3259  0.3075
15700TIP3    H168591   5.308   3.072   3.018  0.1906 -1.3493  1.0958
15700TIP3    H268592   5.181   3.078   3.099 -0.7122  2.8136 -0.3999
15701TIP3   OH268593   6.057   5.922  11.061  0.3055  0.4403 -0.1915
15701TIP3    H168594   6.018   5.862  11.123 -1.8072  2.0902  0.1741
15701TIP3    H268595   6.085   5.866  10.988  0.3712 -1.1901  1.0346
15702TIP3   OH268596   3.264   2.800   3.454  0.5151  0.0122  0.5796
15702TIP3    H168597   3.209   2.752   3.517  1.7471  0.8164  2.3272
15702TIP3    H268598   3.230   2.889   3.456 -0.2491 -0.2086 -0.9062
15703TIP3   OH268599   3.341   0.848  10.190 -0.0791  0.2393  1.0185
15703TIP3    H168600   3.359   0.754  10.196 -0.0592  0.1637 -0.0486
15703TIP3    H268601   3.247   0.855  10.208 -0.5017 -0.2275 -0.8113
15704TIP3   OH268602   4.049   4.711  14.853 -0.2465  0.2266  0.0071
15704TIP3    H168603   3.988   4.735  14.783  1.2654 -0.1651 -1.5196
15704TIP3    H268604   3.997   4.658  14.914 -1.7542  1.0840 -0.4858
15705TIP3   OH268605   0.708   0.088  15.432 -0.3733  0.4409 -0.5028
15705TIP3    H168606   0.705   0.038  15.350 -1.0237  1.1210 -0.9097
15705TIP3    H268607   0.749   0.029  15.495 -2.9236 -1.4038 -0.4080
15706TIP3   OH268608   5.601   1.799  16.669 -0.0020 -0.9666  0.0947
15706TIP3    H168609   5.615   1.891  16.690  3.5097 -1.4831  0.7945
15706TIP3    H268610   5.575   1.799  16.577 -3.0198  0.7625  0.8266
15707TIP3   OH268611   1.615   0.439  10.798 -0.0378  0.4000 -0.0342
15707TIP3    H168612   1.575   0.503  10.740 -1.3488  0.3631  0.7746
15707TIP3    H268613   1.686   0.400  10.747 -0.4663  1.1198 -1.2059
15708TIP3   OH268614   5.067   6.655  13.457 -0.2403 -0.7474  0.2684
15708TIP3    H168615   5.027   6.605  13.528  1.1292 -0.8392  1.0148
15708TIP3    H268616   5.008   6.642  13.383 -1.6229 -0.7876  1.3290
15709TIP3   OH268617   5.587   4.222  16.278  0.0616  0.0440  0.3738
15709TIP3    H168618   5.624   4.145  16.235 -0.5369 -0.3528  0.5447
15709TIP3    H268619   5.496   4.225  16.247  0.5863  1.7930 -1.1232
15710TIP3   OH268620   1.689   6.175   3.449 -0.7377 -0.6224 -0.0313
15710TIP3    H168621   1.637   6.103   3.486 -0.3559 -1.1402 -0.4762
15710TIP3    H268622   1.650   6.191   3.363 -0.7781 -0.3425  0.0380
15711TIP3   OH268623   4.800   5.851  14.591  0.2364 -0.1734 -0.0631
15711TIP3    H168624   4.836   5.931  14.629 -0.4520  0.4556 -0.6920
15711TIP3    H268625   4.776   5.797  14.666  2.7095 -0.7496  0.3877
15712TIP3   OH268626   4.522   4.774  15.845 -0.5012 -0.1897  0.8745
15712TIP3    H168627   4.472   4.764  15.764  0.7491  0.0856  0.0324
15712TIP3    H268628   4.575   4.694  15.850  2.3710  1.4146 -0.7650
15713TIP3   OH268629   2.325   5.146  15.828 -0.4185  0.0561  0.0447
15713TIP3    H168630   2.407   5.194  15.827 -0.0803 -0.5215 -0.2985
15713TIP3    H268631   2.341   5.071  15.886  0.1023 -1.4134 -1.9075
15714TIP3   OH268632   4.919   1.970   1.095 -0.2172  0.3933 -0.4017
15714TIP3    H168633   4.839   1.962   1.043 -0.8369 -0.4397  0.6451
15714TIP3    H268634   4.957   2.054   1.068  0.1449 -0.5390 -3.0807
15715TIP3   OH268635   6.492   1.929  12.714 -0.2896 -0.0824  0.1977
15715TIP3    H168636   6.523   1.838  12.721  0.1041  0.1177  1.2157
15715TIP3    H268637   6.571   1.979  12.695 -0.3442  0.1619  0.6049
15716TIP3   OH268638   1.244   0.837  14.472  0.7938  0.3634  0.1253
15716TIP3    H168639   1.194   0.757  14.487 -0.1529  1.0233  0.6971
15716TIP3    H268640   1.251   0.844  14.377  1.6281 -0.8194  0.0845
15717TIP3   OH268641   0.116   5.982   4.300  0.2893 -0.2852  0.3198
15717TIP3    H168642   0.108   6.077   4.291  2.8183  0.1119  1.1971
15717TIP3    H268643   0.126   5.968   4.395 -1.5887 -1.6219  0.3603
15718TIP3   OH268644   0.155   2.716   2.450 -0.4380  0.0557 -0.2131
15718TIP3    H168645   0.217   2.670   2.506  0.7480  0.7358 -0.9465
15718TIP3    H268646   0.090   2.649   2.427 -0.2227 -0.5555  0.8934
15719TIP3   OH268647   1.728   4.123  10.757  0.4604 -0.2189 -0.0305
15719TIP3    H168648   1.662   4.083  10.813  1.0716 -0.5614  0.4698
15719TIP3    H268649   1.686   4.131  10.671 -0.7315  0.9529  0.6259
15720TIP3   OH268650   2.777   0.955  17.004  0.0825  0.3804 -0.1231
15720TIP3    H168651   2.815   0.921  16.924  0.4186 -0.4958  0.3988
15720TIP3    H268652   2.735   1.037  16.978  1.5391  0.9068 -0.8801
15721TIP3   OH268653   6.003   0.785   4.675 -0.0424 -0.0420 -0.8296
15721TIP3    H168654   6.043   0.872   4.671 -0.5569  0.2555  0.1870
15721TIP3    H268655   5.919   0.795   4.631 -0.8585  0.4307  0.7800
15722TIP3   OH268656   5.743   0.753   1.406 -0.6551  0.0607 -0.2269
15722TIP3    H168657   5.766   0.819   1.340  0.8917 -0.5333 -0.3146
15722TIP3    H268658   5.673   0.703   1.365  0.2696 -0.2935 -1.4439
15723TIP3   OH268659   2.337   0.292  16.769  0.2667 -0.3800 -0.3239
15723TIP3    H168660   2.325   0.251  16.683 -1.4630 -3.1022  1.0838
15723TIP3    H268661   2.414   0.249  16.806  0.7852  0.5187 -0.3213
15724TIP3   OH268662   3.375   3.825  15.216  0.0920 -0.1658  0.2941
15724TIP3    H168663   3.306   3.765  15.242 -2.6032  2.3688 -0.4929
15724TIP3    H268664   3.358   3.842  15.123 -0.0812  2.7190  0.7721
15725TIP3   OH268665   5.633   2.053   2.280  0.2182  0.5080  0.3614
15725TIP3    H168666   5.628   1.977   2.223 -1.4128  0.1280  0.9641
15725TIP3    H268667   5.644   2.127   2.220 -1.9468  0.1682 -0.5397
15726TIP3   OH268668   5.595   6.604  15.461 -0.0256 -0.2004  0.4836
15726TIP3    H168669   5.635   6.565  15.384  2.2156 -0.3916  1.6614
15726TIP3    H268670   5.587   6.697  15.440 -0.9746 -0.4971 -0.5565
15727TIP3   OH268671   4.895   2.607   1.742  0.0848 -0.4045 -0.2778
15727TIP3    H168672   4.874   2.514   1.754 -0.8334 -0.0077  1.7586
15727TIP3    H268673   4.946   2.630   1.820  1.7202  0.4627 -1.5386
15728TIP3   OH268674   0.770   2.718  16.604 -0.2803 -0.4036  0.1333
15728TIP3    H168675   0.723   2.802  16.603  0.2549 -0.1023 -0.9850
15728TIP3    H268676   0.833   2.726  16.675 -2.3028 -1.0609  2.1195
15729TIP3   OH268677   4.308   0.957  15.618  0.0995  0.3772  0.0667
15729TIP3    H168678   4.391   0.953  15.572 -0.1683  0.4627 -0.4290
15729TIP3    H268679   4.311   0.885  15.681  0.5893  0.4500  0.1261
15730TIP3   OH268680   4.023   6.256  12.975 -0.4514 -0.2178  0.2129
15730TIP3    H168681   4.020   6.324  12.908 -0.4026  0.3239  0.7487
15730TIP3    H268682   4.117   6.241  12.990 -0.4560  0.1243  0.6104
15731TIP3   OH268683   2.222   4.568   1.962 -0.3130  0.4755  0.5742
15731TIP3    H168684   2.316   4.572   1.980 -0.4844 -0.4392  1.7790
15731TIP3    H268685   2.181   4.561   2.048 -1.3245 -1.6889 -0.0196
15732TIP3   OH268686   6.787   3.753  13.314 -0.3535  0.3179 -0.3099
15732TIP3    H168687   6.825   3.813  13.249  1.2856  0.8981  1.1003
15732TIP3    H268688   6.849   3.681  13.319 -0.4563  0.2811  0.6024
15733TIP3   OH268689   6.512   3.664   4.863 -0.0527 -0.0794 -0.0662
15733TIP3    H168690   6.594   3.632   4.828 -0.1805  0.8108 -1.2398
15733TIP3    H268691   6.502   3.618   4.947  0.9662 -1.1884 -0.5206
15734TIP3   OH268692   4.920   3.306   1.959  0.0494  0.1088  0.1155
15734TIP3    H168693   4.977   3.286   2.034  1.7722 -0.6888 -1.3423
15734TIP3    H268694   4.837   3.262   1.980  0.1784  0.6400  1.9331
15735TIP3   OH268695   3.171   0.988  16.020 -0.6848  0.0920  0.3308
15735TIP3    H168696   3.260   0.961  16.043 -0.9844 -1.0230  0.2627
15735TIP3    H268697   3.180   1.079  15.991  0.5329 -0.2124 -0.3142
15736TIP3   OH268698   5.736   0.683  15.212 -0.0755 -0.1141  0.2227
15736TIP3    H168699   5.817   0.644  15.244  0.2606  0.8415  0.5606
15736TIP3    H268700   5.711   0.746  15.280 -0.4281  0.4995 -0.4675
15737TIP3   OH268701   5.326   2.981  16.851 -0.0219 -0.4579 -0.2746
15737TIP3    H168702   5.397   2.977  16.787 -0.6330  0.3050 -1.0256
15737TIP3    H268703   5.251   2.939  16.807 -0.5602  0.4347 -0.2321
15738TIP3   OH268704   6.436   1.025  15.123  0.0513 -0.0525 -0.0286
15738TIP3    H168705   6.519   1.019  15.170 -0.4077 -1.2383  0.6665
15738TIP3    H268706   6.446   1.103  15.068  1.1716  0.5042  0.9041
15739TIP3   OH268707   5.050   1.414  17.106 -0.3372 -0.5832  0.4700
15739TIP3    H168708   5.062   1.397  17.200 -1.5606 -0.2171  0.7118
15739TIP3    H268709   5.137   1.438  17.075 -0.1534  0.7064  1.8319
15740TIP3   OH268710   0.409   3.486  12.312 -0.1658 -0.2896 -1.0473
15740TIP3    H168711   0.437   3.399  12.282 -1.1052 -0.4428 -1.5171
15740TIP3    H268712   0.355   3.520  12.241 -0.6821  0.2362 -0.4177
15741TIP3   OH268713   0.543   2.765   4.789  0.5261 -0.0653  0.5840
15741TIP3    H168714   0.569   2.750   4.698 -2.6929 -1.4579 -0.2266
15741TIP3    H268715   0.543   2.861   4.798  1.4843  0.0830 -0.6498
15742TIP3   OH268716   5.152   3.755   2.120 -0.4696 -0.1226 -0.1021
15742TIP3    H168717   5.100   3.788   2.193 -1.0469 -0.1341 -0.4978
15742TIP3    H268718   5.108   3.789   2.042  1.5596  2.0182 -0.4166
15743TIP3   OH268719   2.493   4.898  16.985 -0.2835  0.3977  0.1653
15743TIP3    H168720   2.474   4.942  16.903  1.2363  1.5057  0.3549
15743TIP3    H268721   2.413   4.851  17.007 -1.8920  2.7430 -0.2720
15744TIP3   OH268722   2.254   4.420   0.275  0.0818  0.0577  0.1670
15744TIP3    H168723   2.308   4.372   0.213  0.3025  0.8680 -0.2923
15744TIP3    H268724   2.317   4.454   0.340  0.3905  2.2912 -1.2086
15745TIP3   OH268725   4.863   1.865  14.842 -0.2260  0.0736  0.4480
15745TIP3    H168726   4.768   1.862  14.856 -0.2031 -0.0533  0.5793
15745TIP3    H268727   4.895   1.783  14.879 -0.3369 -0.9828 -1.6267
15746TIP3   OH268728   0.250   5.120  16.819 -0.3246 -0.0468  0.0465
15746TIP3    H168729   0.207   5.065  16.885  0.1836  0.7863  1.0972
15746TIP3    H268730   0.333   5.145  16.859 -0.5643  1.5386 -0.3721
15747TIP3   OH268731   5.803   4.611  14.690  0.0416 -0.2014 -0.1741
15747TIP3    H168732   5.815   4.516  14.697  0.1827 -0.2248 -0.7150
15747TIP3    H268733   5.728   4.622  14.632  0.7911  0.0271 -1.1320
15748TIP3   OH268734   4.412   2.010   3.713  0.1994  0.1223  0.1828
15748TIP3    H168735   4.403   1.923   3.676 -1.5550  0.0431  0.6779
15748TIP3    H268736   4.323   2.046   3.710  0.9794  2.1139 -0.5267
15749TIP3   OH268737   3.915   0.911   6.007  0.1511 -0.9553 -0.0357
15749TIP3    H168738   3.958   0.983   6.055 -0.6894 -0.3816 -0.1315
15749TIP3    H268739   3.846   0.882   6.066  0.1966 -1.3816 -0.1955
15750TIP3   OH268740   1.824   1.551   5.238  0.2259 -0.7799 -0.4910
15750TIP3    H168741   1.891   1.564   5.306  0.6976 -0.4650 -1.0038
15750TIP3    H268742   1.761   1.492   5.278  1.2158 -1.7234 -0.2685
15751TIP3   OH268743   5.864   5.653  13.369 -0.6422  0.2215 -0.4036
15751TIP3    H168744   5.823   5.700  13.442  0.8822  0.4402  0.3419
15751TIP3    H268745   5.934   5.603  13.410  1.1074  1.3733 -1.8677
15752TIP3   OH268746   2.740   4.096  11.902 -0.2565 -0.3410 -0.4100
15752TIP3    H168747   2.663   4.045  11.928 -0.7546  0.9323  0.7714
15752TIP3    H268748   2.803   4.032  11.870 -1.6566 -1.4577 -1.0345
15753TIP3   OH268749   6.682   2.788   0.572 -0.0488  0.4175  0.3862
15753TIP3    H168750   6.672   2.875   0.611  0.2052 -0.1835  1.8629
15753TIP3    H268751   6.777   2.778   0.560  0.0360 -0.1302  1.4101
15754TIP3   OH268752   3.857   0.211  16.844 -0.0219 -0.0686 -0.2944
15754TIP3    H168753   3.904   0.129  16.832  0.9750  0.6803 -1.8616
15754TIP3    H268754   3.913   0.263  16.900  1.1307  0.8308 -2.1767
15755TIP3   OH268755   3.369   4.097   5.005 -0.2493  0.2439 -0.3832
15755TIP3    H168756   3.287   4.128   4.968 -0.6476  0.6389  0.7760
15755TIP3    H268757   3.355   4.100   5.100 -0.3434 -3.4870 -0.1136
15756TIP3   OH268758   5.576   3.374   4.497 -0.2112  0.2606 -0.0508
15756TIP3    H168759   5.667   3.399   4.483  0.5035 -2.4092 -0.7965
15756TIP3    H268760   5.536   3.451   4.538  2.0526  1.9382 -0.7737
15757TIP3   OH268761   5.124   2.079  15.422 -0.3629  0.3175 -0.2563
15757TIP3    H168762   5.047   2.135  15.432 -0.2039  0.8839 -1.8557
15757TIP3    H268763   5.131   2.066  15.327  2.3283  1.4452 -0.2880
15758TIP3   OH268764   3.584   0.307  16.073 -0.0748  0.4114  0.2674
15758TIP3    H168765   3.659   0.351  16.114 -0.0253  0.8240 -0.2549
15758TIP3    H268766   3.509   0.336  16.125  0.1876 -0.5580  1.2355
15759TIP3   OH268767   2.060   2.199   5.581  0.9744 -0.0499  0.2157
15759TIP3    H168768   1.965   2.209   5.590  0.8620  1.4472 -1.8938
15759TIP3    H268769   2.092   2.196   5.671 -1.0434 -0.4350  0.9785
15760TIP3   OH268770   5.806   2.468   1.305 -0.2983 -0.1996 -0.9338
15760TIP3    H168771   5.737   2.447   1.368 -0.1647  1.7634 -0.0624
15760TIP3    H268772   5.874   2.511   1.357  1.0589 -1.0029 -1.9796
15761TIP3   OH268773   4.724   4.381   5.101 -0.4759 -0.2196 -0.1366
15761TIP3    H168774   4.675   4.314   5.055 -0.0970  0.0733 -0.9794
15761TIP3    H268775   4.658   4.440   5.137 -0.9377 -2.0595  2.2946
15762TIP3   OH268776   1.973   5.524  16.913 -0.0928  0.4175 -0.1253
15762TIP3    H168777   1.878   5.515  16.924 -0.0674 -1.7743 -1.2679
15762TIP3    H268778   1.983   5.568  16.829 -0.0789  1.4674  0.4098
15763TIP3   OH268779   0.475   1.823  12.381  0.4827 -0.0031  0.3202
15763TIP3    H168780   0.549   1.854  12.328  3.1634 -2.9510  1.9863
15763TIP3    H268781   0.506   1.830  12.471 -1.4713 -0.9551  1.1210
15764TIP3   OH268782   4.320   1.835  15.710 -0.3803 -0.0852 -0.0564
15764TIP3    H168783   4.389   1.901  15.709 -0.5701  0.2507  2.3813
15764TIP3    H268784   4.291   1.829  15.619  1.3132  1.3911 -0.7509
15765TIP3   OH268785   2.952   0.920  15.619 -0.6571 -0.3766 -0.3749
15765TIP3    H168786   3.014   0.889  15.552 -0.3874 -1.7358  0.4731
15765TIP3    H268787   3.000   0.987  15.666 -0.9961  0.9169 -1.7805
15766TIP3   OH268788   0.329   3.586  11.000  0.0843  0.4168  0.4084
15766TIP3    H168789   0.353   3.671  10.961 -1.2496  0.1533 -1.0752
15766TIP3    H268790   0.234   3.590  11.011  0.3751  0.5198  3.9163
15767TIP3   OH268791   4.575   4.008  14.045 -0.0362  0.0333 -1.2885
15767TIP3    H168792   4.596   4.100  14.027 -0.6755  0.4555  0.0118
15767TIP3    H268793   4.655   3.960  14.022  1.8066  1.3627  1.7581
15768TIP3   OH268794   1.563   1.075  15.745 -0.5328 -0.5453 -0.3906
15768TIP3    H168795   1.605   1.096  15.829 -0.7635  1.4223 -0.7173
15768TIP3    H268796   1.594   0.987  15.724  0.4461 -0.6185  1.1925
15769TIP3   OH268797   3.671   5.483   3.067  0.1774  0.3283 -0.2376
15769TIP3    H168798   3.708   5.508   3.152  0.6546  1.1585 -0.6748
15769TIP3    H268799   3.714   5.541   3.004 -1.9509  1.4544 -0.7660
15770TIP3   OH268800   0.926   0.004   2.586 -0.2947 -0.0605 -0.1369
15770TIP3    H168801   0.947   0.083   2.636 -3.0535  1.1407 -0.6584
15770TIP3    H268802   0.942   0.029   2.495 -1.1836 -0.0773 -0.3045
15771TIP3   OH268803   2.333   3.317   4.537  0.2931  0.5475 -0.0277
15771TIP3    H168804   2.305   3.335   4.447 -0.5152  0.8029  0.2640
15771TIP3    H268805   2.416   3.270   4.528 -1.1099 -1.9337 -1.0140
15772TIP3   OH268806   5.134   1.858   2.590 -0.3496 -0.4644 -0.1277
15772TIP3    H168807   5.161   1.902   2.671 -0.3713 -0.2504 -0.2339
15772TIP3    H268808   5.200   1.790   2.576 -1.1257 -1.4388  0.8220
15773TIP3   OH268809   2.620   2.036   2.007  0.2681  0.1396  0.4286
15773TIP3    H168810   2.597   1.994   2.089 -1.6454 -0.0459 -0.1660
15773TIP3    H268811   2.606   1.969   1.940 -1.3397  1.2071 -0.3649
15774TIP3   OH268812   5.348   0.180   6.283 -0.0556  0.2037 -0.0478
15774TIP3    H168813   5.356   0.276   6.277  0.3137  0.0920 -3.5298
15774TIP3    H268814   5.264   0.161   6.243  0.3135 -0.9885 -0.2815
15775TIP3   OH268815   3.888   6.623  10.684  0.2199  0.2401  0.1324
15775TIP3    H168816   3.981   6.612  10.703  0.3257  1.8683  0.6700
15775TIP3    H268817   3.847   6.545  10.721  1.4703 -1.0502 -1.0904
15776TIP3   OH268818   2.681   5.880  11.891 -0.4044  0.3297 -0.0946
15776TIP3    H168819   2.725   5.964  11.879  0.2840  0.0955  0.7042
15776TIP3    H268820   2.598   5.890  11.845  0.4878  0.7745 -1.6824
15777TIP3   OH268821   3.488   1.638   1.534  0.1463 -0.0811 -0.2896
15777TIP3    H168822   3.409   1.594   1.503  0.4101 -1.1532  0.5259
15777TIP3    H268823   3.538   1.658   1.455 -1.6189  2.0302 -0.9835
15778TIP3   OH268824   5.200   4.117  16.425 -0.0410  0.5341 -0.1549
15778TIP3    H168825   5.179   4.055  16.495  1.7459  0.0852  0.0150
15778TIP3    H268826   5.131   4.184  16.432 -0.4882 -0.0284  1.3709
15779TIP3   OH268827   0.036   0.293   1.247 -0.1142 -0.2141 -0.4818
15779TIP3    H168828   0.119   0.341   1.243  0.4280 -1.1078 -0.0766
15779TIP3    H268829   0.050   0.226   1.313 -1.0454 -0.6054 -0.6733
15780TIP3   OH268830   4.372   0.270   4.594 -0.3939 -0.3811  0.3814
15780TIP3    H168831   4.312   0.208   4.635 -0.6741  0.6360  1.5795
15780TIP3    H268832   4.340   0.278   4.504  0.4859 -2.9649 -0.2355
15781TIP3   OH268833   0.448   6.690  15.053 -0.7172 -0.6386  0.3989
15781TIP3    H168834   0.364   6.713  15.093 -1.9378  0.0421 -2.3467
15781TIP3    H268835   0.453   6.595  15.062 -3.2458 -1.1140 -1.8245
15782TIP3   OH268836   2.653   3.885  12.781 -0.1621 -0.2003  0.0869
15782TIP3    H168837   2.647   3.955  12.716 -2.1975 -0.7478 -0.3998
15782TIP3    H268838   2.741   3.893  12.818  1.3800 -0.3150 -3.2328
15783TIP3   OH268839   0.543   0.908  11.346  0.0202 -0.3320  0.1713
15783TIP3    H168840   0.590   0.990  11.326 -0.9570  0.1261 -0.3278
15783TIP3    H268841   0.543   0.903  11.441  3.1087 -1.5630  0.2157
15784TIP3   OH268842   0.948   4.767   2.514  0.0044  0.1701  0.4333
15784TIP3    H168843   0.852   4.776   2.514 -0.2841 -2.0519 -1.3346
15784TIP3    H268844   0.975   4.806   2.431  0.6826  0.9489  1.0080
15785TIP3   OH268845   1.304   3.801  13.749 -0.0147 -0.3763 -0.1850
15785TIP3    H168846   1.219   3.840  13.771 -0.1801 -0.6112 -0.4045
15785TIP3    H268847   1.366   3.873  13.761 -0.2493 -0.1902 -0.0622
15786TIP3   OH268848   1.196   4.006  13.290 -0.2135 -0.4645  0.2931
15786TIP3    H168849   1.173   4.085  13.240 -0.2674  0.1829  1.3154
15786TIP3    H268850   1.281   3.979  13.255  0.3481  0.7141  0.6880
15787TIP3   OH268851   1.920   2.354   0.385 -0.0453 -0.0400  0.1865
15787TIP3    H168852   1.958   2.340   0.298 -1.2190  1.2476 -0.5695
15787TIP3    H268853   1.955   2.282   0.438 -1.3657 -2.4931 -2.0093
15788TIP3   OH268854   1.871   4.765  15.139  0.8307  0.5159 -0.0007
15788TIP3    H168855   1.789   4.814  15.128 -0.1415 -0.5366  1.8842
15788TIP3    H268856   1.894   4.735  15.051 -0.6752  1.0859 -0.6138
15789TIP3   OH268857   1.954   3.929  16.186  0.0031 -0.6977 -0.3744
15789TIP3    H168858   2.024   3.872  16.218  1.1290  0.4351 -0.7537
15789TIP3    H268859   1.913   3.964  16.265  1.6432  0.7377 -0.1189
15790TIP3   OH268860   1.185   5.352   5.923  0.0859 -0.3194 -0.5911
15790TIP3    H168861   1.157   5.410   5.994 -0.8589 -0.3540 -0.9154
15790TIP3    H268862   1.280   5.362   5.919 -0.1151  2.0283 -1.3344
15791TIP3   OH268863   2.824   5.764  12.842 -0.1078  0.2369 -0.0461
15791TIP3    H168864   2.782   5.779  12.757 -0.4065  0.1211  0.0774
15791TIP3    H268865   2.899   5.708  12.823 -1.4407 -1.6841  0.0287
15792TIP3   OH268866   5.395   1.913   0.395  0.0582  0.3812 -0.4651
15792TIP3    H168867   5.367   1.872   0.313 -0.2702  1.1847 -0.7673
15792TIP3    H268868   5.419   1.839   0.452 -2.2031 -0.3578 -0.3678
15793TIP3   OH268869   0.216   1.601  10.659  0.0092  0.0821 -0.2605
15793TIP3    H168870   0.260   1.642  10.733 -1.0313 -1.4775  1.2874
15793TIP3    H268871   0.123   1.611  10.677 -0.2833 -2.1181 -0.2536
15794TIP3   OH268872   3.377   4.866  16.764  0.1960 -0.0205 -0.0026
15794TIP3    H168873   3.401   4.826  16.680  2.7414 -1.8832  1.4700
15794TIP3    H268874   3.384   4.961  16.748 -1.1551 -0.2277 -2.2987
15795TIP3   OH268875   2.577   0.126   0.204 -0.2574 -0.2994  0.4404
15795TIP3    H168876   2.560   0.218   0.224  0.9549 -0.1393  0.8688
15795TIP3    H268877   2.656   0.128   0.149 -0.9292 -1.0231 -0.5933
15796TIP3   OH268878   6.134   2.514  15.068 -0.2680  0.1298 -0.1976
15796TIP3    H168879   6.057   2.560  15.102 -1.4159  0.3948 -2.8430
15796TIP3    H268880   6.113   2.421  15.079 -0.8538  0.2034 -0.6060
15797TIP3   OH268881   4.195   4.480   4.744 -0.1549  0.3988  0.1810
15797TIP3    H168882   4.222   4.541   4.813  0.5456 -0.2660  0.5175
15797TIP3    H268883   4.254   4.405   4.755 -1.4691 -0.6617  0.2544
15798TIP3   OH268884   1.229   4.811   3.889 -0.4415  0.0828  0.4738
15798TIP3    H168885   1.316   4.782   3.859  0.0967 -0.1072  2.1031
15798TIP3    H268886   1.227   4.904   3.869  0.2604  0.1454  0.6476
15799TIP3   OH268887   2.087   3.057  13.015 -0.5454 -0.1862  0.0570
15799TIP3    H168888   2.168   3.021  13.053 -0.3646  0.5523  0.3968
15799TIP3    H268889   2.095   3.038  12.921 -0.0572 -0.2702  0.1085
15800TIP3   OH268890   1.633   1.077  10.656 -0.6952 -0.1946  0.4397
15800TIP3    H168891   1.623   1.162  10.699  0.2723  0.2106 -0.0962
15800TIP3    H268892   1.647   1.016  10.728  0.0658  0.3427  0.7649
15801TIP3   OH268893   4.833   3.332  15.885  0.4470  0.7632  0.3973
15801TIP3    H168894   4.818   3.238  15.892  0.6745  0.7437  0.6596
15801TIP3    H268895   4.928   3.340  15.875  0.5591  1.0145  1.4686
15802TIP3   OH268896   1.925   6.452  16.745  0.3764  0.0635 -0.2775
15802TIP3    H168897   1.883   6.370  16.771  1.0848  0.1775  1.3470
15802TIP3    H268898   2.018   6.434  16.753  0.5442  0.9184 -0.2629
15803TIP3   OH268899   4.343   6.823   1.391 -0.5603  0.1679  0.6023
15803TIP3    H168900   4.410   6.862   1.334 -1.7002  0.0216 -0.9004
15803TIP3    H268901   4.380   6.831   1.479  1.4043  0.1384 -0.1535
15804TIP3   OH268902   0.526   2.771   3.185  0.4799 -0.3980  0.0330
15804TIP3    H168903   0.523   2.821   3.267  1.7250 -0.0000 -0.1427
15804TIP3    H268904   0.483   2.688   3.207 -0.1032  0.0913  0.8011
15805TIP3   OH268905   3.814   4.109  12.461  0.1314 -0.4413 -0.1929
15805TIP3    H168906   3.773   4.149  12.384 -0.4085  0.3199  0.4780
15805TIP3    H268907   3.884   4.170  12.486 -0.7824  0.1907  0.9128
15806TIP3   OH268908   0.640   0.766   1.450  0.0270  0.2298 -0.1997
15806TIP3    H168909   0.720   0.725   1.481 -1.3391 -0.6532  2.5661
15806TIP3    H268910   0.606   0.707   1.384  1.9280  0.9771 -1.9413
15807TIP3   OH268911   6.712   4.756  11.167  0.6379  0.2723  0.2186
15807TIP3    H168912   6.799   4.797  11.176  0.4117  0.4140  2.1895
15807TIP3    H268913   6.657   4.826  11.133  1.1345  0.4201 -0.2891
15808TIP3   OH268914   0.775   1.989   0.879 -0.8865  0.3575  0.2197
15808TIP3    H168915   0.740   1.923   0.940 -1.5998 -0.1160 -0.6749
15808TIP3    H268916   0.717   2.064   0.890 -2.1153 -0.3482 -1.1025
15809TIP3   OH268917   3.877   3.653  15.521 -0.3524  0.1637 -0.1720
15809TIP3    H168918   3.884   3.563  15.555 -0.8950  0.6029  1.1670
15809TIP3    H268919   3.950   3.700  15.562 -0.7930  0.6171  0.1030
15810TIP3   OH268920   2.419   6.786   3.501 -0.6108  0.2305 -0.0287
15810TIP3    H168921   2.467   6.831   3.432 -1.3296 -1.3390 -1.6134
15810TIP3    H268922   2.463   6.812   3.582  0.4588  1.8539 -1.0775
15811TIP3   OH268923   3.617   2.486   2.556  0.4042 -0.0422 -0.5231
15811TIP3    H168924   3.670   2.407   2.572  2.0005  0.5523 -2.4876
15811TIP3    H268925   3.541   2.454   2.508  0.3760 -0.5605 -0.1397
15812TIP3   OH268926   1.593   6.350   3.686 -0.2294 -0.0121  0.4500
15812TIP3    H168927   1.505   6.355   3.650 -0.3894  2.3698  0.9960
15812TIP3    H268928   1.587   6.282   3.753 -1.0169 -1.4692 -1.0302
15813TIP3   OH268929   4.143   5.138   6.015 -0.3763  0.4152 -0.1361
15813TIP3    H168930   4.217   5.189   6.048  0.3429 -0.6822  0.0040
15813TIP3    H268931   4.097   5.107   6.093 -1.1081  1.2389 -0.2226
15814TIP3   OH268932   0.790   6.223  13.162 -0.2560 -0.3469  0.1621
15814TIP3    H168933   0.815   6.207  13.253 -1.0042 -0.1510  0.4076
15814TIP3    H268934   0.699   6.255  13.167 -0.5194 -0.9295 -0.6912
15815TIP3   OH268935   4.665   5.670   2.222  0.5014  0.4649  0.6681
15815TIP3    H168936   4.708   5.605   2.167  1.1762  0.7992  0.7891
15815TIP3    H268937   4.618   5.619   2.288  1.5859  0.0967  1.1790
15816TIP3   OH268938   0.764   0.239   4.363  0.0698  0.1418 -1.0318
15816TIP3    H168939   0.777   0.146   4.385 -0.1143  0.4993  0.7196
15816TIP3    H268940   0.773   0.242   4.268  0.7643 -1.5642 -1.0613
15817TIP3   OH268941   6.832   5.955   4.954 -0.5136  0.1137 -0.1918
15817TIP3    H168942   6.738   5.943   4.943 -0.5536  1.0184 -0.8809
15817TIP3    H268943   6.861   5.997   4.873  0.1080  1.8588  0.8903
15818TIP3   OH268944   2.311   6.406  15.535  0.0464  0.2423  0.4571
15818TIP3    H168945   2.367   6.347  15.586 -0.0341  0.0355  0.3079
15818TIP3    H268946   2.265   6.349  15.474 -0.1170  0.4468  0.3859
15819TIP3   OH268947   0.938   4.954   0.549  0.4536  0.1401  0.2219
15819TIP3    H168948   1.013   4.985   0.499  1.2492  0.0934  1.3524
15819TIP3    H268949   0.914   4.871   0.507  1.0018  0.1835 -0.1807
15820TIP3   OH268950   4.422   0.990   2.425 -0.0372 -0.4339  0.7543
15820TIP3    H168951   4.370   1.060   2.385  1.0947 -0.5894 -1.1250
15820TIP3    H268952   4.361   0.945   2.483 -1.4258  0.6743  0.2037
15821TIP3   OH268953   2.805   0.196   0.645  0.3136  0.2346 -0.8175
15821TIP3    H168954   2.818   0.103   0.665 -1.5540  0.2715  0.9751
15821TIP3    H268955   2.886   0.238   0.673 -0.3039 -0.4181  2.3839
15822TIP3   OH268956   3.142   5.927   1.852 -0.1336 -0.0912  0.5365
15822TIP3    H168957   3.118   5.949   1.941 -1.4967 -1.3002  0.5007
15822TIP3    H268958   3.192   5.845   1.860 -1.7954 -1.2051  0.1045
15823TIP3   OH268959   5.188   2.155   1.625  0.4446  0.3244  0.3463
15823TIP3    H168960   5.211   2.109   1.706  0.4224 -0.2639  0.0240
15823TIP3    H268961   5.166   2.085   1.563 -1.2603  0.8266  0.3416
15824TIP3   OH268962   5.851   3.169  12.800  0.3554  0.0632 -0.0524
15824TIP3    H168963   5.778   3.182  12.740  1.0854  1.1680 -0.7381
15824TIP3    H268964   5.916   3.234  12.773  0.7856  0.4598  1.8080
15825TIP3   OH268965   4.467   4.249  11.720  0.5566 -0.4785  0.3936
15825TIP3    H168966   4.552   4.205  11.726  0.4979 -0.6685 -0.0727
15825TIP3    H268967   4.466   4.286  11.632 -0.6905 -2.3076 -0.4392
15826TIP3   OH268968   4.757   6.710  16.752 -0.0804 -0.0679 -0.2013
15826TIP3    H168969   4.775   6.636  16.694  1.6790 -0.0270  0.2433
15826TIP3    H268970   4.719   6.776  16.694 -1.7427 -1.2980 -0.5988
15827TIP3   OH268971   5.958   2.200  11.365  0.0523  0.1455 -0.0914
15827TIP3    H168972   5.991   2.236  11.448 -1.6024 -0.2947  0.7997
15827TIP3    H268973   5.909   2.122  11.391 -0.1687 -0.2220 -1.5487
15828TIP3   OH268974   4.620   3.497  13.712  0.2103 -0.4570  0.1467
15828TIP3    H168975   4.526   3.505  13.701  0.4287  0.9057 -1.2727
15828TIP3    H268976   4.636   3.403  13.723 -1.3401 -0.6427  0.9921
15829TIP3   OH268977   5.055   5.583  16.071 -0.3347 -0.2852 -0.2362
15829TIP3    H168978   5.125   5.648  16.063  0.1215 -0.6036  0.9583
15829TIP3    H268979   4.992   5.608  16.004  1.2121 -0.3775 -1.8121
15830TIP3   OH268980   2.093   6.557  15.785 -0.3115 -0.3514 -0.0572
15830TIP3    H168981   2.171   6.587  15.739 -0.5307 -0.2793 -0.3886
15830TIP3    H268982   2.022   6.612  15.751 -0.5552 -0.6037  0.0326
15831TIP3   OH268983   3.081   2.899  13.379  0.2894  0.1833 -0.2060
15831TIP3    H168984   3.157   2.907  13.321  1.1094 -1.9611  0.4630
15831TIP3    H268985   3.031   2.826  13.342 -0.8734  0.8361  0.0219
15832TIP3   OH268986   5.134   6.561   4.079  0.5340 -0.4599 -0.1248
15832TIP3    H168987   5.117   6.469   4.058 -2.0720  0.0059 -0.3883
15832TIP3    H268988   5.086   6.610   4.013 -0.1144  1.0643  1.3902
15833TIP3   OH268989   1.464   4.341  13.321 -0.4362  0.3108  0.0765
15833TIP3    H168990   1.497   4.257  13.353 -2.1409 -0.4410 -0.0259
15833TIP3    H268991   1.517   4.406  13.366  1.2057 -0.8093 -0.1534
15834TIP3   OH268992   3.451   1.798  14.618  0.3040  0.1229 -0.3032
15834TIP3    H168993   3.499   1.738  14.562 -3.9527 -2.6550 -1.4474
15834TIP3    H268994   3.435   1.749  14.699 -3.0718 -0.5203 -1.1769
15835TIP3   OH268995   2.406   2.472  16.174  0.0126 -1.0321  0.0973
15835TIP3    H168996   2.462   2.395  16.184 -0.1528 -1.2056 -0.3095
15835TIP3    H268997   2.372   2.466  16.085  1.5060  0.5162 -0.6441
15836TIP3   OH268998   2.838   5.069   6.268 -0.5087  0.4074 -0.3512
15836TIP3    H168999   2.909   5.124   6.301 -0.6961  0.7382 -0.4912
15836TIP3    H269000   2.769   5.078   6.334 -1.1257  1.5718 -1.1229
15837TIP3   OH269001   1.193   5.960   1.074 -0.2809  0.2889  0.5899
15837TIP3    H169002   1.196   5.869   1.102  1.5716 -0.1612 -0.8665
15837TIP3    H269003   1.271   6.000   1.111 -0.6452  1.0805  0.5390
15838TIP3   OH269004   5.235   2.634  15.232 -0.2139  0.0493  0.0579
15838TIP3    H169005   5.255   2.724  15.203 -1.0705 -0.2711 -1.6703
15838TIP3    H269006   5.310   2.610  15.286  0.3603  1.5706  0.0140
15839TIP3   OH269007   1.890   1.537   3.129  0.5145  0.0597  0.1105
15839TIP3    H169008   1.826   1.473   3.098  0.0772  0.6366 -0.2016
15839TIP3    H269009   1.906   1.593   3.053  0.4764  0.6559  0.5333
15840TIP3   OH269010   6.577   3.395   1.857 -0.6948 -0.2204  0.2285
15840TIP3    H169011   6.542   3.468   1.908  0.8003  0.0059  0.9791
15840TIP3    H269012   6.571   3.320   1.916  1.3443  0.1072  0.9332
15841TIP3   OH269013   4.753   3.423   4.890 -0.0356  0.0388 -0.1032
15841TIP3    H169014   4.731   3.398   4.979 -0.6035  1.9740  0.3452
15841TIP3    H269015   4.720   3.513   4.881  2.7272  1.0670 -1.2231
15842TIP3   OH269016   0.818   2.873   0.806  0.3808 -0.0980 -0.5394
15842TIP3    H169017   0.854   2.949   0.761  0.8622  0.6157  0.9772
15842TIP3    H269018   0.887   2.848   0.868  0.6838 -2.4493 -1.7162
15843TIP3   OH269019   1.518   1.171   5.464 -0.3670  0.0452  0.3318
15843TIP3    H169020   1.561   1.093   5.498 -0.8725  0.2851  1.5584
15843TIP3    H269021   1.460   1.138   5.396 -1.7294 -0.8820  1.8724
15844TIP3   OH269022   1.277   0.187   4.739  0.2359 -0.4040 -0.7459
15844TIP3    H169023   1.330   0.124   4.691  1.2759 -0.5916  0.5737
15844TIP3    H269024   1.193   0.143   4.753  0.2827 -0.7321 -1.4957
15845TIP3   OH269025   5.550   6.051  14.025 -0.5409 -0.2470 -0.6222
15845TIP3    H169026   5.572   6.028  14.115 -0.0696  1.0098 -0.4033
15845TIP3    H269027   5.466   6.096  14.032  0.2760  1.3449 -0.5767
15846TIP3   OH269028   2.084   2.649   1.277  0.5482 -0.2959  0.2164
15846TIP3    H169029   1.994   2.635   1.307  0.5748 -1.6876 -0.2601
15846TIP3    H269030   2.083   2.620   1.185  1.8167 -1.8970  0.6558
15847TIP3   OH269031   2.286   2.095   2.927 -0.2960 -0.0567 -0.3195
15847TIP3    H169032   2.225   2.051   2.986 -0.6421  0.0208 -0.6192
15847TIP3    H269033   2.260   2.065   2.839 -0.1824  0.3150 -0.4802
15848TIP3   OH269034   2.135   2.588  14.225 -0.0547 -0.2262 -0.3877
15848TIP3    H169035   2.179   2.512  14.264  1.9493 -0.2983 -2.5179
15848TIP3    H269036   2.049   2.589  14.265  1.1625 -1.3335  2.5720
15849TIP3   OH269037   6.679   2.667   3.100 -0.0400 -0.2333 -0.6633
15849TIP3    H169038   6.693   2.580   3.137  0.1620 -1.0905 -2.6626
15849TIP3    H269039   6.622   2.653   3.024  0.1946  1.3455 -1.1845
15850TIP3   OH269040   2.695   6.147   0.075 -0.3356  0.1450  0.5398
15850TIP3    H169041   2.760   6.095   0.122  0.0237 -0.2007 -0.3245
15850TIP3    H269042   2.745   6.205   0.019 -0.7067 -1.3380 -1.4660
15851TIP3   OH269043   2.057   4.969   5.337 -0.6339 -0.6657  0.8640
15851TIP3    H169044   2.135   4.914   5.337 -0.1697 -0.1271 -1.8116
15851TIP3    H269045   2.043   4.992   5.245 -1.0188  3.3605  1.7367
15852TIP3   OH269046   5.377   2.704   2.475 -1.1245  0.2503  0.3163
15852TIP3    H169047   5.370   2.795   2.446  0.0614  1.0131  2.2374
15852TIP3    H269048   5.286   2.675   2.487 -1.4994  1.2935  0.0558
15853TIP3   OH269049   5.456   5.403   1.137  0.2781  0.4313  0.1594
15853TIP3    H169050   5.505   5.483   1.157 -0.8638  0.8338  1.5058
15853TIP3    H269051   5.365   5.431   1.133 -0.2031 -0.8883  1.2305
15854TIP3   OH269052   2.226   5.115  13.357 -0.0926 -0.3132 -0.0385
15854TIP3    H169053   2.201   5.029  13.323 -1.3798  0.3303 -0.7668
15854TIP3    H269054   2.150   5.170  13.342  0.7957  1.0235  0.2187
15855TIP3   OH269055   4.848   6.369  15.101  0.7536  0.0461  0.0149
15855TIP3    H169056   4.803   6.443  15.060  0.5247  0.3097  0.7294
15855TIP3    H269057   4.920   6.348  15.042  1.5334  1.5881  0.3772
15856TIP3   OH269058   3.377   4.795   1.549 -0.1370 -0.0458  0.1998
15856TIP3    H169059   3.394   4.849   1.626  1.5100 -0.1590 -0.0600
15856TIP3    H269060   3.372   4.706   1.582  1.8777 -0.2505  0.0490
15857TIP3   OH269061   5.001   6.252   0.934  0.0529 -0.0189  0.2306
15857TIP3    H169062   5.072   6.306   0.899  0.3540 -0.4203  0.2179
15857TIP3    H269063   4.922   6.292   0.900  0.2072  1.1285  1.1793
15858TIP3   OH269064   0.547   4.875  11.778  0.1119  0.2887  0.1444
15858TIP3    H169065   0.476   4.845  11.722  0.3133 -0.2195  0.1576
15858TIP3    H269066   0.504   4.904  11.859 -0.0423 -0.4430  0.3266
15859TIP3   OH269067   1.734   6.235   5.744 -0.0795 -0.0241  0.4355
15859TIP3    H169068   1.677   6.174   5.698  0.7174 -0.3564 -0.1206
15859TIP3    H269069   1.812   6.185   5.766  2.1806  1.5715 -3.1439
15860TIP3   OH269070   6.031   0.527   3.254  0.0799  0.2517  0.1686
15860TIP3    H169071   6.111   0.485   3.286  0.8886  1.2186 -0.5294
15860TIP3    H269072   5.962   0.463   3.273  0.8405 -0.1462  1.7855
15861TIP3   OH269073   2.326   5.232   0.689 -0.2346  0.1950 -0.0055
15861TIP3    H169074   2.393   5.300   0.701 -1.2936  1.1381  0.7993
15861TIP3    H269075   2.293   5.215   0.777 -0.0455 -1.3309 -0.2120
15862TIP3   OH269076   1.838   5.449   0.416 -0.1324  1.0895  0.7403
15862TIP3    H169077   1.846   5.465   0.510  0.3857  0.2301  0.8580
15862TIP3    H269078   1.892   5.371   0.401 -1.2252  0.4584 -0.0507
15863TIP3   OH269079   4.075   3.444  13.872 -0.1489  0.1254  0.3958
15863TIP3    H169080   4.054   3.441  13.966  0.3478 -0.6801  0.4878
15863TIP3    H269081   4.005   3.497  13.834 -1.6059 -1.3307  0.9078
15864TIP3   OH269082   0.404   6.078  14.872 -0.4305 -0.0939  0.0960
15864TIP3    H169083   0.397   6.105  14.780 -0.7213 -0.4994 -0.0042
15864TIP3    H269084   0.381   6.156  14.922 -0.5817  0.0428 -0.1846
15865TIP3   OH269085   5.680   4.546  14.296 -0.3856 -0.7095  0.0139
15865TIP3    H169086   5.711   4.588  14.376 -0.0218  0.2546 -0.6069
15865TIP3    H269087   5.585   4.557  14.297 -0.5896 -2.3255  1.1853
15866TIP3   OH269088   1.321   1.228  12.103 -0.1808 -0.5250 -0.2206
15866TIP3    H169089   1.410   1.243  12.072  0.3404 -1.4253  0.7712
15866TIP3    H269090   1.290   1.314  12.131  0.8131 -0.3896  0.5024
15867TIP3   OH269091   2.554   2.923   1.948 -0.4981 -0.5700  0.3725
15867TIP3    H169092   2.501   2.851   1.914 -1.1781  0.6412 -1.2634
15867TIP3    H269093   2.553   2.911   2.043  0.3265 -3.3070  0.1112
15868TIP3   OH269094   6.804   1.804   5.221 -0.8851  0.0135 -0.1984
15868TIP3    H169095   6.812   1.821   5.128  0.8044  0.5472  0.0220
15868TIP3    H269096   6.875   1.744   5.241 -1.3652 -0.2764  0.7150
15869TIP3   OH269097   6.265   1.403   5.891  0.2197  0.4359 -0.1426
15869TIP3    H169098   6.269   1.332   5.954  0.3519 -1.7860 -2.5062
15869TIP3    H269099   6.172   1.426   5.887  0.1181  0.1301  0.3347
15870TIP3   OH269100   4.991   2.789  12.479  0.9175  0.1676  0.1189
15870TIP3    H169101   5.027   2.808  12.393 -0.8997 -1.5732 -1.1127
15870TIP3    H269102   5.043   2.715  12.512 -0.4559 -1.3563 -0.9987
15871TIP3   OH269103   4.610   3.116   6.757  0.1259  0.3180  0.2761
15871TIP3    H169104   4.595   3.184   6.691 -1.2135 -1.1831 -1.0311
15871TIP3    H269105   4.523   3.097   6.792  0.2328 -1.7379 -0.4431
15872TIP3   OH269106   3.979   3.820  11.385  0.2410  0.4722  0.3420
15872TIP3    H169107   3.889   3.789  11.376  1.1871 -2.2078 -0.6693
15872TIP3    H269108   3.988   3.887  11.318 -0.5454 -0.4080 -0.6732
15873TIP3   OH269109   1.649   6.538  16.990  0.3628  0.1244 -0.1573
15873TIP3    H169110   1.637   6.609  16.927  0.8471 -0.9771 -1.5409
15873TIP3    H269111   1.563   6.498  16.998  0.0167  1.0309  0.8652
15874TIP3   OH269112   1.890   6.831  14.022  0.0148  0.3603 -0.1085
15874TIP3    H169113   1.931   6.917  14.026 -1.5332  1.1180  0.6509
15874TIP3    H269114   1.807   6.843  14.068  0.4018 -1.9237  1.3059
15875TIP3   OH269115   2.420   0.243   2.433  0.4541 -0.5948  0.6527
15875TIP3    H169116   2.333   0.256   2.471  0.6357 -0.8165  1.1577
15875TIP3    H269117   2.480   0.285   2.496  0.7068 -0.3963  0.2810
15876TIP3   OH269118   1.124   3.819  11.538  0.4150 -0.1635  0.2142
15876TIP3    H169119   1.098   3.856  11.623  2.2879 -0.8145  1.1261
15876TIP3    H269120   1.061   3.748  11.523  0.7804 -0.8493  1.6907
15877TIP3   OH269121   2.887   6.242  11.190 -0.5827  0.1570  0.5591
15877TIP3    H169122   2.923   6.320  11.149 -0.0452 -1.1110 -1.5254
15877TIP3    H269123   2.949   6.172  11.168 -1.4204 -0.9999  1.7239
15878TIP3   OH269124   2.570   0.301  14.356 -0.0765  0.2114  0.3488
15878TIP3    H169125   2.516   0.380  14.349 -0.8654 -0.3810 -0.3161
15878TIP3    H269126   2.636   0.312  14.288 -0.2998  0.2055  0.1318
15879TIP3   OH269127   6.853   1.044  14.129  1.2091 -0.5088 -0.6986
15879TIP3    H169128   6.854   0.999  14.045  3.7748  1.6896 -1.9991
15879TIP3    H269129   6.777   1.103  14.124 -0.8711 -2.9340  0.1632
15880TIP3   OH269130   3.959   5.322  14.455 -0.2217  0.5124 -0.7966
15880TIP3    H169131   3.946   5.228  14.469 -1.5548  0.2876 -3.0329
15880TIP3    H269132   4.051   5.337  14.475 -0.1756 -1.1077  0.3666
15881TIP3   OH269133   1.028   0.673   6.749 -0.3145  0.5007  0.0917
15881TIP3    H169134   0.941   0.672   6.710 -0.5008 -0.7619  0.4768
15881TIP3    H269135   1.047   0.580   6.765  0.7224  0.8314  0.8463
15882TIP3   OH269136   4.110   1.334  13.350  0.2723 -0.8680 -0.8139
15882TIP3    H169137   4.087   1.274  13.421 -2.1802  0.7695 -0.0943
15882TIP3    H269138   4.161   1.403  13.393 -0.8903 -0.0774 -0.6262
15883TIP3   OH269139   4.372   2.068  11.289 -0.3028  0.7258 -0.1824
15883TIP3    H169140   4.330   1.999  11.238 -2.2028  1.1478  0.7150
15883TIP3    H269141   4.461   2.073  11.254 -0.3114 -1.6829 -0.7402
15884TIP3   OH269142   1.242   0.782   5.979 -0.2250  0.1020 -0.5387
15884TIP3    H169143   1.304   0.806   5.910  1.0318  0.1525  0.5624
15884TIP3    H269144   1.272   0.830   6.056 -0.6716 -1.1150  0.4300
15885TIP3   OH269145   1.891   3.568   6.191  0.7010 -0.6392  0.3901
15885TIP3    H169146   1.876   3.525   6.107 -2.3518  1.3043 -0.1908
15885TIP3    H269147   1.944   3.645   6.171 -1.1592  0.5686 -0.0427
15886TIP3   OH269148   5.667   4.261   2.930 -0.2822  0.2836  0.2037
15886TIP3    H169149   5.581   4.301   2.924 -0.4545 -0.1757 -0.5149
15886TIP3    H269150   5.684   4.254   3.024 -1.4928 -0.5826  0.3760
15887TIP3   OH269151   0.598   1.637  15.300 -0.7333  0.2561  0.3561
15887TIP3    H169152   0.608   1.701  15.229 -1.0644 -1.8972 -1.7498
15887TIP3    H269153   0.656   1.669  15.370  0.8858  1.6083 -1.5052
15888TIP3   OH269154   0.693   0.283  10.626  0.4329 -0.5603  0.1387
15888TIP3    H169155   0.724   0.198  10.596 -0.0011 -0.2078 -1.4297
15888TIP3    H269156   0.690   0.276  10.722  1.4921 -1.9030  0.0941
15889TIP3   OH269157   4.819   6.089   3.969  0.8266  0.5186  0.3034
15889TIP3    H169158   4.899   6.120   3.925  1.3337  0.6045  1.2744
15889TIP3    H269159   4.814   5.996   3.947  1.2623  0.4835  0.3507
15890TIP3   OH269160   6.067   3.484  13.825  0.4167 -0.0075 -0.0526
15890TIP3    H169161   6.133   3.552  13.809 -0.2060  0.9874  1.3801
15890TIP3    H269162   6.093   3.444  13.908 -0.4425 -0.0188  0.2202
15891TIP3   OH269163   5.168   6.320   2.625 -0.6546 -0.3954 -0.3347
15891TIP3    H169164   5.213   6.339   2.707  1.2676 -0.5071 -1.3121
15891TIP3    H269165   5.125   6.236   2.640 -0.0173 -0.5963  0.4447
15892TIP3   OH269166   6.625   1.089  15.633  0.0567  0.4245 -1.0274
15892TIP3    H169167   6.554   1.082  15.569 -0.1181 -1.8653 -0.6826
15892TIP3    H269168   6.691   1.027  15.602 -0.5315 -1.6838  1.4904
15893TIP3   OH269169   5.998   3.230   4.423  0.1164  0.1159  0.1605
15893TIP3    H169170   5.926   3.177   4.389 -1.3912  1.4011  1.1559
15893TIP3    H269171   6.061   3.167   4.458 -0.2800 -1.0545 -1.1957
15894TIP3   OH269172   3.340   1.035  10.754  0.8263 -0.4963  0.0575
15894TIP3    H169173   3.426   1.075  10.769  0.7179  0.3030 -1.2556
15894TIP3    H269174   3.356   0.974  10.682  0.4974 -1.1118  0.5027
15895TIP3   OH269175   2.601   6.111   3.251  0.4588  0.0274  0.5202
15895TIP3    H169176   2.543   6.045   3.290  0.7134  0.0967  1.0278
15895TIP3    H269177   2.676   6.061   3.219 -0.3495 -0.1983 -1.1077
15896TIP3   OH269178   0.394   5.775  10.995 -0.2492 -0.1372  0.4269
15896TIP3    H169179   0.443   5.716  10.937 -2.0965 -1.7327  0.3668
15896TIP3    H269180   0.367   5.847  10.938 -0.8557 -0.9757 -0.3812
15897TIP3   OH269181   3.615   3.659  16.467 -0.4876  0.3778 -0.5009
15897TIP3    H169182   3.577   3.739  16.503  0.3031  0.6605 -0.2567
15897TIP3    H269183   3.702   3.686  16.436 -0.0129 -0.4751  0.0264
15898TIP3   OH269184   5.469   1.130   2.904 -0.1499 -0.5991 -0.1033
15898TIP3    H169185   5.490   1.036   2.905  0.9357 -0.3655  0.3237
15898TIP3    H269186   5.520   1.164   2.830  0.5016 -0.1356  0.5429
15899TIP3   OH269187   0.411   4.110  16.736 -0.0219 -0.7208 -0.3317
15899TIP3    H169188   0.468   4.050  16.689  1.7882  1.2104 -0.7703
15899TIP3    H269189   0.471   4.177  16.771 -1.6754 -0.2939  1.9083
15900TIP3   OH269190   5.682   1.412  13.058  0.3318 -0.7658 -0.4850
15900TIP3    H169191   5.735   1.380  13.131  0.6516 -0.2167 -0.4722
15900TIP3    H269192   5.677   1.338  12.998  1.6871 -0.6412 -0.8008
15901TIP3   OH269193   0.727   2.012   4.913 -0.0866  0.6135  0.3686
15901TIP3    H169194   0.638   2.045   4.918  0.0373  1.2651 -1.2444
15901TIP3    H269195   0.775   2.078   4.863  0.7998 -0.7075 -0.5898
15902TIP3   OH269196   1.114   5.417  12.097  0.5884 -0.2408 -0.2156
15902TIP3    H169197   1.159   5.446  12.017  2.0623 -1.7824 -0.0011
15902TIP3    H269198   1.132   5.323  12.102 -0.6908 -0.4408  1.1806
15903TIP3   OH269199   6.620   4.293   4.029  0.5032  0.5814 -0.6038
15903TIP3    H169200   6.570   4.211   4.021 -0.6864  1.0994  0.9724
15903TIP3    H269201   6.554   4.362   4.021  1.1886  1.3287 -0.0024
15904TIP3   OH269202   5.203   3.228   2.471 -0.3907  0.1539  0.5609
15904TIP3    H169203   5.116   3.191   2.456  0.4222 -2.1344  1.0542
15904TIP3    H269204   5.197   3.269   2.557 -1.1209  0.5550  0.3297
15905TIP3   OH269205   2.597   5.250  14.151 -0.1819 -0.2787 -0.1804
15905TIP3    H169206   2.533   5.187  14.181  1.4238 -2.6797 -1.4258
15905TIP3    H269207   2.665   5.251  14.219 -0.4104  0.4884  0.0491
15906TIP3   OH269208   6.267   3.102   2.192  0.3450 -0.3860  0.1901
15906TIP3    H169209   6.336   3.058   2.242  0.4416 -0.1534  0.2650
15906TIP3    H269210   6.212   3.031   2.160  0.5065 -0.5626  0.2967
15907TIP3   OH269211   6.627   1.036  10.938 -0.1457 -0.1549 -0.2265
15907TIP3    H169212   6.588   1.037  10.850 -0.7714  0.0759  0.0418
15907TIP3    H269213   6.721   1.027  10.923  0.1652  3.0537 -1.0924
15908TIP3   OH269214   6.156   1.404   2.633 -0.7147 -0.4315  0.1615
15908TIP3    H169215   6.112   1.489   2.626 -0.1746 -0.1737 -0.1966
15908TIP3    H269216   6.108   1.358   2.702 -1.6838 -0.2560 -0.3777
15909TIP3   OH269217   3.245   0.518   3.548  0.0571 -0.6054 -0.0402
15909TIP3    H169218   3.268   0.580   3.618  0.7104 -1.0095  0.1083
15909TIP3    H269219   3.277   0.434   3.579  2.7465 -0.4166 -1.9278
15910TIP3   OH269220   1.517   3.601  14.825 -0.1631 -0.0026 -0.0432
15910TIP3    H169221   1.507   3.553  14.907 -0.1519  1.1353  0.6568
15910TIP3    H269222   1.485   3.541  14.757 -1.3877 -0.4980  0.9288
15911TIP3   OH269223   5.879   6.413   5.703  0.3288 -0.0578  0.2024
15911TIP3    H169224   5.937   6.373   5.769  0.1031  0.4118  0.6888
15911TIP3    H269225   5.912   6.502   5.694  0.4864 -0.1826 -0.4804
15912TIP3   OH269226   2.557   5.897   1.939 -0.5525  0.6061  0.0449
15912TIP3    H169227   2.470   5.858   1.945 -0.9821  1.6107  0.5282
15912TIP3    H269228   2.564   5.925   1.848 -1.6297  2.4908  0.5014
15913TIP3   OH269229   4.964   2.920   4.464  0.0069  0.2491  0.0930
15913TIP3    H169230   4.933   2.959   4.382 -1.0087  2.7155  1.5117
15913TIP3    H269231   4.888   2.873   4.498 -0.2534  0.9690  0.5491
15914TIP3   OH269232   4.473   2.429   4.023 -0.2631  0.1265 -0.1086
15914TIP3    H169233   4.458   2.513   4.067  3.3983  0.6703  0.3890
15914TIP3    H269234   4.475   2.451   3.930 -0.2178  0.4149 -0.0419
15915TIP3   OH269235   5.390   6.551  12.156 -0.3544  0.1552  0.2717
15915TIP3    H169236   5.372   6.509  12.072  0.7426  1.4206 -0.6584
15915TIP3    H269237   5.486   6.549  12.163 -0.4540 -0.4377  1.7895
15916TIP3   OH269238   6.684   1.524  11.804 -0.1725 -0.3532 -0.2543
15916TIP3    H169239   6.630   1.453  11.838 -1.7155  0.3835 -1.0598
15916TIP3    H269240   6.757   1.480  11.760 -0.7301 -1.4075 -0.1472
15917TIP3   OH269241   3.318   4.942   5.668  0.7555  0.7104  0.3372
15917TIP3    H169242   3.314   4.866   5.725 -2.3033  0.0117 -0.6226
15917TIP3    H269243   3.226   4.969   5.657  1.4800  2.6591 -1.8090
15918TIP3   OH269244   5.753   4.854   2.949 -0.8567  0.1581  0.2689
15918TIP3    H169245   5.780   4.914   3.019  1.8430 -0.6017 -0.0366
15918TIP3    H269246   5.745   4.910   2.872  0.2359  0.3670  0.2960
15919TIP3   OH269247   6.836   0.342  13.589  0.6296 -0.0635  0.1960
15919TIP3    H169248   6.770   0.409  13.569 -0.0576 -0.6570  0.4420
15919TIP3    H269249   6.836   0.285  13.512 -0.9133 -1.4605  1.1574
15920TIP3   OH269250   2.049   3.317   5.109 -0.6473  0.0295 -0.1569
15920TIP3    H169251   2.099   3.342   5.186  0.2871  1.9600 -1.3040
15920TIP3    H269252   1.967   3.366   5.116 -0.6263  0.0878 -0.3020
15921TIP3   OH269253   2.179   6.148   0.097 -0.0969  0.0778 -0.4981
15921TIP3    H169254   2.270   6.134   0.070  0.7225  0.6481  1.7616
15921TIP3    H269255   2.127   6.109   0.027  1.8892 -1.2991 -1.2853
15922TIP3   OH269256   3.810   5.662   1.483 -0.1128 -0.2920 -0.4313
15922TIP3    H169257   3.881   5.725   1.489  0.2213 -0.7042  0.0256
15922TIP3    H269258   3.797   5.649   1.389  0.4497 -0.2465 -0.5150
15923TIP3   OH269259   0.874   1.750   6.499  0.3849 -0.1860 -0.0994
15923TIP3    H169260   0.918   1.677   6.543  0.5879 -0.2773 -0.4468
15923TIP3    H269261   0.943   1.815   6.486  0.1986  0.0849  0.2356
15924TIP3   OH269262   5.213   3.138   0.175  0.1625  0.4313 -0.1942
15924TIP3    H169263   5.125   3.102   0.186 -0.2822  1.0473 -1.5072
15924TIP3    H269264   5.217   3.209   0.238 -0.0013 -0.0884  0.4083
15925TIP3   OH269265   4.461   0.239   4.223  0.2090  0.1468 -0.4307
15925TIP3    H169266   4.514   0.207   4.151  0.4530  1.1317 -0.7072
15925TIP3    H269267   4.411   0.163   4.252  1.4039 -0.6891 -0.4821
15926TIP3   OH269268   3.087   0.971  13.746 -0.8011 -0.1962  0.5155
15926TIP3    H169269   3.157   0.906  13.753  1.1063  1.6216 -0.3008
15926TIP3    H269270   3.044   0.969  13.832  0.0226 -1.6053  0.9379
15927TIP3   OH269271   1.452   6.193   2.129  0.1801  0.1165 -0.2658
15927TIP3    H169272   1.507   6.204   2.207  0.1503  0.2149 -0.2590
15927TIP3    H269273   1.490   6.252   2.065  0.1205  0.1365 -0.2821
15928TIP3   OH269274   6.835   0.744  14.227 -0.0368 -0.0664  0.4463
15928TIP3    H169275   6.909   0.788  14.185 -0.1970  1.1516  1.3791
15928TIP3    H269276   6.778   0.719  14.154  0.8045 -0.1197 -0.2119
15929TIP3   OH269277   1.919   6.094   4.737 -0.0290 -0.1958 -0.5240
15929TIP3    H169278   1.953   6.153   4.804  2.4475 -1.2766 -0.7434
15929TIP3    H269279   1.887   6.153   4.668 -2.2431  0.9210  1.3231
15930TIP3   OH269280   3.409   1.519  13.066 -0.2356 -0.1676  0.1004
15930TIP3    H169281   3.322   1.494  13.098  0.0079  0.3307  1.1854
15930TIP3    H269282   3.449   1.437  13.038 -0.2706 -0.6942  1.5493
15931TIP3   OH269283   3.115   1.706   3.274 -0.0629 -0.4818 -0.3071
15931TIP3    H169284   3.093   1.643   3.205 -1.3164 -0.3712 -0.0187
15931TIP3    H269285   3.090   1.663   3.355 -1.4453  0.5901 -0.1470
15932TIP3   OH269286   4.234   1.837   2.959 -0.0805 -0.3119 -0.1617
15932TIP3    H169287   4.310   1.893   2.971 -0.3389  0.4431 -1.8675
15932TIP3    H269288   4.213   1.806   3.047  0.5231  1.6590  0.7119
15933TIP3   OH269289   2.283   1.806   1.406  0.2463  0.3699 -0.2391
15933TIP3    H169290   2.223   1.801   1.333  0.2794  1.5799 -0.3606
15933TIP3    H269291   2.347   1.873   1.381  1.7261 -0.9384 -0.1655
15934TIP3   OH269292   0.394   5.630  11.884 -0.0094 -0.1511 -0.0035
15934TIP3    H169293   0.368   5.659  11.971  0.9606  0.5550  0.0659
15934TIP3    H269294   0.483   5.663  11.873  0.8136 -2.2862 -0.3166
15935TIP3   OH269295   2.789   1.841   0.741 -0.0107  0.0160 -0.2068
15935TIP3    H169296   2.768   1.910   0.679 -0.1396 -0.4021 -0.6332
15935TIP3    H269297   2.764   1.760   0.697  1.0922 -0.3837 -0.1154
15936TIP3   OH269298   0.542   1.511   2.288 -0.2322  0.3765  0.0405
15936TIP3    H169299   0.631   1.494   2.321 -0.7579  0.0549  1.3676
15936TIP3    H269300   0.502   1.424   2.283 -0.6296  0.5648 -0.1046
15937TIP3   OH269301   1.305   0.972  10.079 -0.5137  0.5960  0.4679
15937TIP3    H169302   1.330   0.880  10.072 -0.9678  0.5385 -0.5492
15937TIP3    H269303   1.374   1.019  10.032 -0.5804  0.7250  0.4971
15938TIP3   OH269304   3.490   6.790   4.743  0.1648 -0.1488  0.0800
15938TIP3    H169305   3.487   6.872   4.792  0.3447 -0.6135  0.8869
15938TIP3    H269306   3.458   6.724   4.804  0.3976 -0.7430 -0.4256
15939TIP3   OH269307   2.006   3.765  11.724 -0.4204 -0.6552  0.4173
15939TIP3    H169308   2.100   3.775  11.707 -0.7561  1.0320 -0.7168
15939TIP3    H269309   2.000   3.694  11.788  1.6437 -0.5641  0.7620
15940TIP3   OH269310   5.228   6.577   4.646  0.7762 -0.1343 -0.5244
15940TIP3    H169311   5.195   6.506   4.701  0.8449  0.5207  0.3805
15940TIP3    H269312   5.189   6.561   4.560 -0.1446 -0.6025 -0.0312
15941TIP3   OH269313   1.804   3.143   4.446  0.4090 -0.7898  0.2335
15941TIP3    H169314   1.835   3.159   4.357 -1.2932 -1.4821 -0.5380
15941TIP3    H269315   1.878   3.167   4.502  1.4262 -0.0673 -1.3363
15942TIP3   OH269316   0.757   0.136  14.139 -0.0498  0.1419  0.4704
15942TIP3    H169317   0.728   0.159  14.227 -0.8024 -1.2772  0.6115
15942TIP3    H269318   0.696   0.068  14.110 -0.7567  1.6041 -1.7357
15943TIP3   OH269319   1.303   3.540  14.594  0.0257 -0.2424 -0.2315
15943TIP3    H169320   1.231   3.591  14.556 -0.8595 -0.7885  0.6648
15943TIP3    H269321   1.281   3.449  14.575  1.4787 -0.3520 -1.6150
15944TIP3   OH269322   1.719   5.096   2.192 -0.0067 -0.2994  0.5573
15944TIP3    H169323   1.700   5.175   2.243 -1.3565 -1.3015  1.6657
15944TIP3    H269324   1.644   5.087   2.133  0.1316 -0.7826  0.4531
15945TIP3   OH269325   2.267   4.732   3.257  0.6136 -0.5951 -0.9013
15945TIP3    H169326   2.273   4.822   3.226  1.2884 -1.0500 -2.1328
15945TIP3    H269327   2.358   4.700   3.257  0.5283 -0.9358  0.6152
15946TIP3   OH269328   3.211   2.202  15.836 -0.2099 -0.2407  0.0090
15946TIP3    H169329   3.142   2.168  15.779  0.0599  0.2880 -0.6448
15946TIP3    H269330   3.287   2.212  15.779 -0.6893  2.8994 -0.2698
15947TIP3   OH269331   0.145   5.894  14.948 -0.5396  0.6065  0.0443
15947TIP3    H169332   0.195   5.974  14.967  0.1634 -0.1703  1.6643
15947TIP3    H269333   0.085   5.886  15.022 -1.6033  0.3628 -0.8191
15948TIP3   OH269334   3.083   4.728  12.612  0.3315 -0.0611  0.4623
15948TIP3    H169335   3.098   4.764  12.525  1.1310  0.6517  0.8809
15948TIP3    H269336   3.156   4.668  12.626 -1.6194 -2.9200 -0.7227
15949TIP3   OH269337   5.367   4.677   3.796 -0.5846  0.0258 -0.3463
15949TIP3    H169338   5.365   4.587   3.763 -0.4863  0.2636 -1.0044
15949TIP3    H269339   5.364   4.667   3.892  3.6743 -0.9059 -0.0929
15950TIP3   OH269340   5.414   2.282   0.033 -0.5810  0.3436  0.2308
15950TIP3    H169341   5.481   2.342   0.001  0.0582 -0.9441 -0.9569
15950TIP3    H269342   5.372   2.248  -0.047  0.0518 -1.8652  0.7717
15951TIP3   OH269343   0.357   3.772   2.396  0.1723 -0.3212  0.6775
15951TIP3    H169344   0.337   3.809   2.482 -3.2917 -1.7783  0.6614
15951TIP3    H269345   0.392   3.685   2.414  1.3686  0.1196  0.5866
15952TIP3   OH269346   0.812   5.422   1.325 -0.3692 -0.1965 -0.2445
15952TIP3    H169347   0.723   5.388   1.332 -0.7229  0.9041  1.1163
15952TIP3    H269348   0.801   5.513   1.296  0.4799 -0.7575 -2.4790
15953TIP3   OH269349   6.454   6.401   2.753  0.1425 -0.1485 -0.0546
15953TIP3    H169350   6.496   6.411   2.838 -0.4989 -0.3172  0.2881
15953TIP3    H269351   6.385   6.336   2.768  0.3345 -0.5366 -0.8151
15954TIP3   OH269352   2.076   6.614  11.464  0.4897  0.0504  0.3387
15954TIP3    H169353   2.064   6.709  11.465  3.3678  0.5170  0.8390
15954TIP3    H269354   2.089   6.593  11.372  0.5243  0.2672  0.2920
15955TIP3   OH269355   2.817   3.993   0.726 -0.0318 -0.5840  0.5165
15955TIP3    H169356   2.808   3.904   0.760 -4.6271 -0.3244  0.6107
15955TIP3    H269357   2.804   4.050   0.802  1.2024  0.1694  0.1866
15956TIP3   OH269358   6.477   6.425   0.709  0.2404  0.1172 -0.0182
15956TIP3    H169359   6.384   6.419   0.730 -0.2752 -0.1947 -2.1192
15956TIP3    H269360   6.480   6.474   0.627  1.6847 -1.8131 -1.2127
15957TIP3   OH269361   2.599   3.266   1.380  0.6648  0.4924 -0.0530
15957TIP3    H169362   2.533   3.287   1.314  0.5481 -0.2479 -0.1748
15957TIP3    H269363   2.630   3.178   1.357  1.1182  0.5048  0.4719
15958TIP3   OH269364   2.226   2.707  12.364 -0.2470  0.1361 -0.0653
15958TIP3    H169365   2.136   2.709  12.332 -0.0481 -0.8160 -0.7150
15958TIP3    H269366   2.244   2.615  12.380  0.4178  0.3791  0.6683
15959TIP3   OH269367   2.220   5.514  11.067 -0.2505  0.3493  0.6329
15959TIP3    H169368   2.211   5.442  11.129  0.9249  0.6251  1.1545
15959TIP3    H269369   2.175   5.588  11.108  1.6100  0.8925  1.8038
15960TIP3   OH269370   1.457   2.431  12.451  0.0081 -0.2355  0.4054
15960TIP3    H169371   1.481   2.442  12.359  1.9318  1.0398  1.0053
15960TIP3    H269372   1.394   2.359  12.451  0.2821 -0.5325 -1.8575
15961TIP3   OH269373   5.876   1.548  17.037  0.7374  0.7200  0.1266
15961TIP3    H169374   5.906   1.466  17.075  2.9024  0.9265 -0.9888
15961TIP3    H269375   5.846   1.524  16.949  0.3025  0.9658  0.2055
15962TIP3   OH269376   1.999   3.985  12.068  0.1452  0.0813  0.2562
15962TIP3    H169377   2.019   4.058  12.010  0.2628  0.8459  1.2271
15962TIP3    H269378   2.074   3.927  12.062  1.1454  1.2131  1.2337
15963TIP3   OH269379   2.606   0.828   3.406 -0.1211  0.3154 -0.2688
15963TIP3    H169380   2.606   0.767   3.480  0.5631  0.4226 -0.1728
15963TIP3    H269381   2.526   0.809   3.359 -0.6406  0.3346  0.5818
15964TIP3   OH269382   4.399   4.912   3.712 -0.1605  0.4405  0.5474
15964TIP3    H169383   4.367   4.859   3.785  1.2471  0.3560  1.1366
15964TIP3    H269384   4.439   4.989   3.754 -0.9796  1.3150 -0.2318
15965TIP3   OH269385   0.815   1.074  12.179  0.0737 -0.6194 -0.2953
15965TIP3    H169386   0.728   1.038  12.196 -0.1808 -0.5908 -1.4713
15965TIP3    H269387   0.830   1.135  12.252 -2.7623  2.7005 -2.1726
15966TIP3   OH269388   4.687   6.766   0.938  0.2075 -0.2670  0.2049
15966TIP3    H169389   4.730   6.715   0.869  0.4269 -0.0770  0.1984
15966TIP3    H269390   4.750   6.767   1.010  0.3812  0.3491  0.0479
15967TIP3   OH269391   0.118   6.056  16.416  0.4317 -0.2851 -0.0710
15967TIP3    H169392   0.035   6.104  16.419 -0.5309 -1.6675 -2.2265
15967TIP3    H269393   0.109   5.986  16.480 -0.4828 -0.9816 -0.9348
15968TIP3   OH269394   6.304   4.074  15.944  0.3687 -0.4987 -0.4280
15968TIP3    H169395   6.353   4.021  16.006  1.1453  0.4168 -0.2397
15968TIP3    H269396   6.226   4.102  15.992  1.7730  1.6128  0.7679
15969TIP3   OH269397   2.524   2.176   0.912 -0.0512  0.3456  0.1996
15969TIP3    H169398   2.515   2.141   1.001  2.2680 -1.5121 -0.1924
15969TIP3    H269399   2.435   2.176   0.877 -0.7244 -0.9939  1.7881
15970TIP3   OH269400   3.305   0.944   0.417  0.6229 -0.1495  0.9848
15970TIP3    H169401   3.350   0.972   0.497  1.3917 -0.9689  0.8534
15970TIP3    H269402   3.276   1.025   0.376  0.5616  0.3018  1.9011
15971TIP3   OH269403   4.367   3.986   4.186 -0.3729 -0.0882  0.0104
15971TIP3    H169404   4.435   3.922   4.165 -0.3650 -0.3101  0.6958
15971TIP3    H269405   4.408   4.071   4.167 -0.3009 -0.2692 -0.6642
15972TIP3   OH269406   4.297   5.647  15.972  0.3475  0.4843  0.0511
15972TIP3    H169407   4.226   5.614  16.027  1.2512 -0.6509  0.5931
15972TIP3    H269408   4.295   5.590  15.895 -0.6713  1.8272 -0.9656
15973TIP3   OH269409   0.533   1.766   0.134  0.5379 -0.5604 -1.0376
15973TIP3    H169410   0.508   1.855   0.160  0.5289 -0.3539 -1.7306
15973TIP3    H269411   0.589   1.735   0.205 -0.9088 -0.6826  0.0813
15974TIP3   OH269412   2.454   3.341  14.272 -0.3670 -0.2973  0.1580
15974TIP3    H169413   2.358   3.332  14.267 -0.2913 -0.9451 -0.2902
15974TIP3    H269414   2.484   3.327  14.182  0.2647 -1.6683  0.5508
15975TIP3   OH269415   4.138   5.975   4.860 -0.1420 -0.4330 -0.2263
15975TIP3    H169416   4.228   6.007   4.856 -0.9131  1.8007 -0.9426
15975TIP3    H269417   4.147   5.881   4.878  2.2836 -0.0766  0.8211
15976TIP3   OH269418   3.426   3.248   0.458 -0.4024 -0.3182 -0.4179
15976TIP3    H169419   3.519   3.250   0.433  0.5915  3.2874  2.7019
15976TIP3    H269420   3.408   3.155   0.474  2.4940 -1.1966 -1.4757
15977TIP3   OH269421   2.750   4.532  11.659 -0.3257  0.3686  0.4307
15977TIP3    H169422   2.764   4.624  11.640  0.3793  0.4868  1.4518
15977TIP3    H269423   2.667   4.530  11.707 -0.6273  0.3976 -0.0829
15978TIP3   OH269424   5.381   5.300   0.445 -0.1730  0.1298 -0.2661
15978TIP3    H169425   5.466   5.281   0.485  0.2983  2.0264 -0.2730
15978TIP3    H269426   5.341   5.365   0.503 -2.1466 -1.5045  0.3423
15979TIP3   OH269427   6.439   6.115  10.814  0.9019  0.1974 -0.0125
15979TIP3    H169428   6.484   6.055  10.874 -0.6459 -0.6733  0.3312
15979TIP3    H269429   6.505   6.180  10.792  1.7979  0.0140  1.9043
15980TIP3   OH269430   2.943   1.643   5.618  0.9203  0.2091  0.4308
15980TIP3    H169431   2.950   1.549   5.599 -1.5137  0.1026 -0.3315
15980TIP3    H269432   2.861   1.651   5.667  0.3874  2.0654 -0.6628
15981TIP3   OH269433   3.528   5.227   1.035 -0.9036 -0.1822 -0.0303
15981TIP3    H169434   3.455   5.278   1.000 -1.2472 -1.8614 -1.9127
15981TIP3    H269435   3.549   5.164   0.966  1.9333 -0.1792  0.7133
15982TIP3   OH269436   2.283   0.590   0.783 -0.4650 -0.2613 -0.2995
15982TIP3    H169437   2.311   0.680   0.768  0.3672 -0.6218 -1.0076
15982TIP3    H269438   2.244   0.562   0.701 -2.0859 -0.0913  0.3766
15983TIP3   OH269439   5.822   0.411   0.722 -0.2980 -0.1801 -0.8943
15983TIP3    H169440   5.775   0.471   0.665 -1.6794  0.4175  0.7993
15983TIP3    H269441   5.762   0.394   0.794  2.2530  1.2158  1.7956
15984TIP3   OH269442   3.988   1.009  11.808  0.0668 -0.1830 -0.2481
15984TIP3    H169443   3.984   0.914  11.800  1.4216 -0.5062  2.0818
15984TIP3    H269444   3.899   1.039  11.789  0.0051 -1.7132 -2.6756
15985TIP3   OH269445   3.893   3.624   5.499 -0.8081  0.4555  0.1097
15985TIP3    H169446   3.955   3.642   5.428 -1.9316 -1.1923 -1.3828
15985TIP3    H269447   3.890   3.705   5.550  1.6865  0.9561 -0.4061
15986TIP3   OH269448   3.140   0.052  15.353 -0.5106  0.2784 -0.3203
15986TIP3    H169449   3.097  -0.033  15.357  0.5232 -0.2528 -0.2512
15986TIP3    H269450   3.071   0.115  15.374 -1.4839 -0.4659 -1.1858
15987TIP3   OH269451   6.555   4.958   4.284  0.2159 -0.5125 -0.6842
15987TIP3    H169452   6.524   4.922   4.367  2.0352  0.8167  0.6440
15987TIP3    H269453   6.563   4.881   4.227 -1.3039 -1.4273  0.2488
15988TIP3   OH269454   0.156   3.394   3.870  0.6502  0.5607  0.3721
15988TIP3    H169455   0.181   3.368   3.959 -0.1916 -0.7064  0.2664
15988TIP3    H269456   0.065   3.366   3.861  0.7819  0.4796 -0.9549
15989TIP3   OH269457   5.477   2.602   4.452 -0.1257 -0.9240  0.6602
15989TIP3    H169458   5.412   2.546   4.409 -0.8364 -1.2904  2.1460
15989TIP3    H269459   5.424   2.670   4.495  0.6768  0.5463 -0.5506
15990TIP3   OH269460   3.746   0.125   4.802 -0.1106  0.1323 -0.2665
15990TIP3    H169461   3.723   0.122   4.709 -0.7365  0.1759 -0.1238
15990TIP3    H269462   3.761   0.217   4.820 -0.8108  0.2288 -0.1441
15991TIP3   OH269463   0.603   1.920  13.210 -0.2410  0.4181  0.1004
15991TIP3    H169464   0.521   1.885  13.174 -0.3095  0.7821 -0.1045
15991TIP3    H269465   0.630   1.855  13.275 -1.1307  0.6986  0.7784
15992TIP3   OH269466   6.323   4.923  14.966  0.2417  0.5006  0.3419
15992TIP3    H169467   6.398   4.917  15.025  2.1871 -1.4551 -2.1314
15992TIP3    H269468   6.349   4.985  14.899 -0.8002  0.5979  0.0011
15993TIP3   OH269469   3.946   3.507   4.517 -0.1561  0.6595  0.0660
15993TIP3    H169470   3.962   3.541   4.429 -0.0175  0.4534  0.0093
15993TIP3    H269471   4.027   3.461   4.539 -0.1711  0.7529  0.3224
15994TIP3   OH269472   2.146   4.872  12.857 -0.1711 -0.2064 -0.2026
15994TIP3    H169473   2.150   4.776  12.848  1.3025 -0.0905 -1.1225
15994TIP3    H269474   2.118   4.903  12.771  0.9861  0.2535 -0.4331
15995TIP3   OH269475   4.040   6.832  12.128 -0.1266 -0.5130 -0.4009
15995TIP3    H169476   4.033   6.887  12.206  2.6161  1.4874 -1.4163
15995TIP3    H269477   4.015   6.889  12.056  0.5613 -1.3247 -1.2979
15996TIP3   OH269478   3.315   4.616   1.250 -1.3744  0.8470 -0.2428
15996TIP3    H169479   3.280   4.574   1.329 -1.8631  1.1432 -0.2962
15996TIP3    H269480   3.239   4.657   1.209 -1.0475  1.0688 -0.6340
15997TIP3   OH269481   3.893   0.108   4.488 -0.0205  0.2266  0.1792
15997TIP3    H169482   3.802   0.125   4.464  0.1432  0.0042 -0.6132
15997TIP3    H269483   3.927   0.052   4.418  0.7914  0.4802  0.3577
15998TIP3   OH269484   3.938   4.874   1.341 -0.4195  0.2686 -0.2493
15998TIP3    H169485   3.993   4.797   1.323  2.0314  2.3582 -2.4583
15998TIP3    H269486   3.904   4.899   1.255 -3.8610 -0.0901  0.8648
15999TIP3   OH269487   6.747   2.914   5.511 -0.0724  0.2240 -0.4342
15999TIP3    H169488   6.763   2.979   5.580 -1.1562 -0.1814  0.2262
15999TIP3    H269489   6.802   2.942   5.439  0.5127  1.1020  0.3287
16000TIP3   OH269490   6.587   5.941   0.458 -0.2483  0.0891  0.5097
16000TIP3    H169491   6.674   5.949   0.420  0.3850 -3.1538  0.9495
16000TIP3    H269492   6.583   6.010   0.524  1.8917  0.4805  0.2940
16001TIP3   OH269493   3.787   2.261   4.365  0.2151 -0.9447  0.9008
16001TIP3    H169494   3.864   2.298   4.408 -0.0538  0.6585  0.0666
16001TIP3    H269495   3.778   2.311   4.284 -0.9600 -1.9790  0.3563
16002TIP3   OH269496   6.569   4.214  14.307 -0.1547 -0.7749  0.3442
16002TIP3    H169497   6.541   4.305  14.296  1.8190 -0.1814 -0.3549
16002TIP3    H269498   6.525   4.184  14.386  1.8704  2.0203  2.7690
16003TIP3   OH269499   2.914   3.281  12.445 -0.3804  0.6906  0.2125
16003TIP3    H169500   2.897   3.350  12.508  2.0589  1.8773 -0.2896
16003TIP3    H269501   3.009   3.267  12.450 -0.6209 -1.7932 -0.5849
16004TIP3   OH269502   2.787   0.628   1.758  0.1930 -0.4897  0.5496
16004TIP3    H169503   2.788   0.533   1.752  1.0107 -0.4093 -1.5821
16004TIP3    H269504   2.695   0.652   1.753 -0.0566 -1.1715  1.6590
16005TIP3   OH269505   4.604   6.736  12.505  0.2641  0.1898 -0.0168
16005TIP3    H169506   4.509   6.728  12.510  0.0029  2.2792 -0.5153
16005TIP3    H269507   4.632   6.745  12.596 -0.2545  1.2719  0.0635
16006TIP3   OH269508   1.339   4.795  15.391  0.6251  0.3032  0.0145
16006TIP3    H169509   1.404   4.861  15.369  2.3099 -1.9602 -2.3413
16006TIP3    H269510   1.390   4.717  15.413 -1.2953 -0.8596  0.6259
16007TIP3   OH269511   6.594   5.180  13.439 -0.3498 -0.0566  0.0304
16007TIP3    H169512   6.645   5.132  13.373 -0.1008  0.4837 -0.1750
16007TIP3    H269513   6.644   5.260  13.455 -0.3346 -0.2424  0.9822
16008TIP3   OH269514   3.743   6.514  16.792 -0.4408  0.4010 -0.2802
16008TIP3    H169515   3.823   6.517  16.740  0.3630  0.3178  0.9018
16008TIP3    H269516   3.718   6.421  16.792 -0.3587  0.3787 -0.3908
16009TIP3   OH269517   0.045   0.120   3.953 -0.1295 -0.3037  0.3000
16009TIP3    H169518  -0.043   0.101   3.923  0.1843 -0.4526 -0.5404
16009TIP3    H269519   0.091   0.153   3.876  0.7169 -0.7949  0.5769
16010TIP3   OH269520   5.536   0.008  13.576 -0.2519 -0.2047 -0.0782
16010TIP3    H169521   5.540   0.084  13.519 -2.6241  2.9233  3.4226
16010TIP3    H269522   5.457  -0.039  13.550 -0.7448  0.5895 -0.0256
16011TIP3   OH269523   4.018   3.969  11.145  0.3494  0.5801 -0.3633
16011TIP3    H169524   4.110   3.995  11.140  0.1004  2.1230  1.7343
16011TIP3    H269525   3.973   4.031  11.087  0.0950  3.4109  2.5867
16012TIP3   OH269526   1.746   5.005   1.062 -0.5889 -0.0040  0.0911
16012TIP3    H169527   1.674   5.066   1.046 -0.5609 -0.0815 -0.3604
16012TIP3    H269528   1.825   5.056   1.047 -0.5543  0.0042  0.2999
16013TIP3   OH269529   5.613   5.795   5.814  0.6981 -0.4145  0.5084
16013TIP3    H169530   5.698   5.752   5.801  0.7263 -0.3729  0.5579
16013TIP3    H269531   5.596   5.787   5.908  0.9705  0.1873  0.6123
16014TIP3   OH269532   3.708   2.879   2.265 -0.2247  0.0831  0.0452
16014TIP3    H169533   3.788   2.929   2.252  0.3481 -0.9513 -0.5383
16014TIP3    H269534   3.641   2.928   2.218  0.1400  0.7411  0.1958
16015TIP3   OH269535   6.335   4.208  14.826  0.2298  0.1682  0.0697
16015TIP3    H169536   6.271   4.278  14.811  1.2071  1.1275  0.2619
16015TIP3    H269537   6.394   4.244  14.892  2.1014  0.0682 -1.4739
16016TIP3   OH269538   3.208   0.980  12.016  0.0416  0.8142  0.5899
16016TIP3    H169539   3.178   1.067  12.044  0.0181  1.8740 -2.3773
16016TIP3    H269540   3.266   0.998  11.942  1.2595 -1.6702  0.8454
16017TIP3   OH269541   5.724   6.631   2.563 -0.2341 -0.6020  0.4740
16017TIP3    H169542   5.657   6.678   2.513 -0.2460 -1.3317 -0.2083
16017TIP3    H269543   5.675   6.582   2.629 -0.3167 -0.6400  0.3836
16018TIP3   OH269544   5.192   2.626   3.348  0.1105  0.0324 -0.1812
16018TIP3    H169545   5.099   2.612   3.332  0.0227  2.2351 -2.1355
16018TIP3    H269546   5.236   2.554   3.303 -0.5917  0.0694 -0.9463
16019TIP3   OH269547   3.037   2.466  12.666 -0.2853  0.0910  0.2747
16019TIP3    H169548   3.125   2.435  12.686 -0.3336 -0.8247 -0.8509
16019TIP3    H269549   2.986   2.386  12.653 -1.0361  0.6239 -0.1290
16020TIP3   OH269550   3.467   5.524  15.090  0.0940 -0.0577  0.5872
16020TIP3    H169551   3.542   5.567  15.050 -0.2637 -1.0876 -1.2809
16020TIP3    H269552   3.503   5.474  15.163  1.6217 -2.2050 -1.5028
16021TIP3   OH269553   1.456   4.771   0.246 -0.2472  0.6789 -0.3069
16021TIP3    H169554   1.534   4.738   0.292  0.0770 -0.4498 -1.6021
16021TIP3    H269555   1.490   4.806   0.164 -0.9813  1.3355 -0.3389
16022TIP3   OH269556   3.901   2.899   5.128 -0.2609 -0.1389 -0.3627
16022TIP3    H169557   3.853   2.818   5.107 -0.1542 -0.4408  0.5371
16022TIP3    H269558   3.985   2.890   5.083 -0.8290  0.1708 -1.5379
16023TIP3   OH269559   6.161   1.656   0.210  0.4614  0.2162 -0.1982
16023TIP3    H169560   6.162   1.642   0.115  0.6889  0.9960 -0.3244
16023TIP3    H269561   6.147   1.751   0.219 -0.2295  0.0467  0.5598
16024TIP3   OH269562   2.410   4.216  15.969 -0.3843 -0.1372 -0.1111
16024TIP3    H169563   2.368   4.226  16.054  0.4108  0.3223  0.2372
16024TIP3    H269564   2.342   4.178  15.913 -1.4088  0.9806  0.3142
16025TIP3   OH269565   4.208   6.292   0.364  0.3785  0.1557 -0.4098
16025TIP3    H169566   4.177   6.327   0.447 -0.2105 -1.5771  0.1284
16025TIP3    H269567   4.130   6.290   0.308  0.4737 -0.0234 -0.5369
16026TIP3   OH269568   6.074   2.983   0.149  0.0134  0.4355  0.0810
16026TIP3    H169569   6.110   3.057   0.198 -0.8381  0.0536  1.3464
16026TIP3    H269570   5.992   2.963   0.194 -0.8852  0.1347 -1.6030
16027TIP3   OH269571   0.805   4.328  15.533 -0.0917 -0.9139 -0.1672
16027TIP3    H169572   0.870   4.305  15.466  1.2326  0.7763  0.4556
16027TIP3    H269573   0.755   4.400  15.494  0.7300  0.1231  0.6458
16028TIP3   OH269574   3.134   1.242   2.799 -0.3533 -0.5074 -0.0886
16028TIP3    H169575   3.100   1.327   2.826 -0.9139 -0.8090  0.1689
16028TIP3    H269576   3.059   1.195   2.764  0.3285 -0.1813 -2.1168
16029TIP3   OH269577   4.365   5.196   0.335 -0.2456  0.0833 -0.0058
16029TIP3    H169578   4.375   5.281   0.377  1.1917  0.9162 -1.8774
16029TIP3    H269579   4.429   5.197   0.264  0.5807 -2.9970  0.5610
16030TIP3   OH269580   3.956   1.868  13.595  0.0065  0.1702  0.4024
16030TIP3    H169581   3.877   1.899  13.551  1.5553  1.4580 -1.5699
16030TIP3    H269582   3.968   1.778  13.563  0.1214  0.4710 -0.4042
16031TIP3   OH269583   2.889   6.339   5.476  0.2331  0.2228 -0.2861
16031TIP3    H169584   2.963   6.304   5.527 -0.8244 -0.9712  0.5143
16031TIP3    H269585   2.876   6.428   5.510 -0.0656 -0.3378  1.1739
16032TIP3   OH269586   4.798   4.300  15.907  0.3169 -0.4332 -0.2622
16032TIP3    H169587   4.746   4.278  15.984 -1.1576  0.9194 -0.8170
16032TIP3    H269588   4.847   4.378  15.932  0.0236 -0.1376 -0.5880
16033TIP3   OH269589   5.471   2.336  15.166  0.8239 -1.0223  0.4179
16033TIP3    H169590   5.421   2.326  15.247  0.6851 -2.4176  0.1732
16033TIP3    H269591   5.422   2.287  15.100 -0.8245  2.6366 -1.3909
16034TIP3   OH269592   4.257   3.174  12.375  0.4815  0.3275  0.2687
16034TIP3    H169593   4.345   3.159  12.343  1.1300  1.1468  1.5851
16034TIP3    H269594   4.261   3.260  12.417 -0.7381  0.0366  1.0330
16035TIP3   OH269595   2.420   6.183  12.975  0.4467 -0.6259  0.5844
16035TIP3    H169596   2.436   6.261  13.027  1.6851 -0.1249 -0.5084
16035TIP3    H269597   2.326   6.167  12.985  0.3162  0.5331  1.4471
16036TIP3   OH269598   4.828   3.627   3.552 -0.3675  0.4987  0.3003
16036TIP3    H169599   4.780   3.631   3.470 -0.5190  3.5113  0.4378
16036TIP3    H269600   4.916   3.600   3.528 -0.9865 -0.9137 -0.4932
16037TIP3   OH269601   1.742   3.223   6.046 -0.6187 -0.1523  0.2086
16037TIP3    H169602   1.687   3.259   6.115 -0.7814  0.5050 -0.2557
16037TIP3    H269603   1.751   3.130   6.068 -0.5244  0.0860  1.2009
16038TIP3   OH269604   5.232   2.587   0.641  0.6153 -0.0722 -0.2826
16038TIP3    H169605   5.272   2.524   0.701 -0.4746 -0.5180 -0.0037
16038TIP3    H269606   5.184   2.647   0.698 -1.4364 -1.1952 -0.6938
16039TIP3   OH269607   4.757   5.359   2.825 -0.6141 -0.1791  0.2742
16039TIP3    H169608   4.669   5.323   2.812 -1.1275  0.8998  0.5913
16039TIP3    H269609   4.747   5.453   2.808  0.2986  0.0867  1.0939
16040TIP3   OH269610   2.823   5.522  16.046 -0.1624 -0.4114 -0.0126
16040TIP3    H169611   2.840   5.562  15.961 -0.7847 -0.2536 -0.0631
16040TIP3    H269612   2.885   5.449  16.050  1.2183  0.7264  0.2229
16041TIP3   OH269613   4.453   6.664   6.000 -0.1977  0.3160  0.4704
16041TIP3    H169614   4.490   6.727   5.938 -1.0755 -0.2526 -0.6682
16041TIP3    H269615   4.477   6.698   6.086  0.1740  1.6757 -0.1473
16042TIP3   OH269616   4.307   4.523  13.667 -0.0060  0.1392  0.1396
16042TIP3    H169617   4.322   4.472  13.746 -2.4593 -2.6608 -1.0141
16042TIP3    H269618   4.260   4.601  13.697 -0.0493 -0.3869  1.5054
16043TIP3   OH269619   5.759   2.022  14.374  0.6387 -0.4094 -0.1661
16043TIP3    H169620   5.703   2.071  14.314  0.6585 -0.4543 -0.2218
16043TIP3    H269621   5.841   2.071  14.375  0.5869 -0.3272 -0.0596
16044TIP3   OH269622   6.372   5.780  14.046 -0.3229  0.2542 -0.0907
16044TIP3    H169623   6.309   5.708  14.044 -1.4158  1.1528  0.6918
16044TIP3    H269624   6.384   5.804  13.954 -1.8705  0.6838 -0.2032
16045TIP3   OH269625   1.106   4.675  14.856 -0.1947 -0.4482  0.6118
16045TIP3    H169626   1.056   4.756  14.868 -0.7039 -0.8676  1.4436
16045TIP3    H269627   1.192   4.704  14.825 -0.8623  0.3049 -0.6254
16046TIP3   OH269628   1.695   4.453  11.798 -0.4546  0.4633 -0.2128
16046TIP3    H169629   1.778   4.406  11.790 -0.4339  0.3462  0.6011
16046TIP3    H269630   1.669   4.440  11.889 -1.5375  0.2254 -0.5476
16047TIP3   OH269631   0.008   1.698   4.573 -0.2765  0.2795  0.0169
16047TIP3    H169632  -0.030   1.702   4.661 -2.3860 -0.4355 -0.8005
16047TIP3    H269633   0.026   1.606   4.558 -2.0301  0.0610 -1.0773
16048TIP3   OH269634   3.346   1.307  16.247 -0.3337 -0.2151  0.7686
16048TIP3    H169635   3.287   1.383  16.253 -0.2055 -0.1355  1.0637
16048TIP3    H269636   3.302   1.247  16.187 -0.2094  0.2965  0.1570
16049TIP3   OH269637   0.906   3.503  12.042  0.5492  0.6443  0.4319
16049TIP3    H169638   0.840   3.572  12.038 -1.3186 -0.8673  2.6231
16049TIP3    H269639   0.900   3.459  11.958 -1.3442  0.5300  0.5726
16050TIP3   OH269640   4.606   3.434  15.588  0.6314  0.2950 -0.3219
16050TIP3    H169641   4.537   3.500  15.584  0.0721 -0.2516  0.2279
16050TIP3    H269642   4.686   3.485  15.601  0.5689  1.0658 -2.4612
16051TIP3   OH269643   3.067   2.434   2.601  0.8462  0.1889  0.4469
16051TIP3    H169644   3.126   2.360   2.613  0.4273 -0.7037 -2.2147
16051TIP3    H269645   3.113   2.508   2.641  3.4115 -0.6528 -0.6922
16052TIP3   OH269646   6.022   5.057  14.967  0.1544 -0.1008  0.3476
16052TIP3    H169647   5.944   5.106  14.942  0.4519  0.9240  1.3259
16052TIP3    H269648   6.070   5.043  14.886  0.0064  1.1492  0.0325
16053TIP3   OH269649   0.588   3.117  12.974  0.1427  0.1183 -0.6529
16053TIP3    H169650   0.616   3.146  12.887  0.0718  0.7096 -0.4818
16053TIP3    H269651   0.494   3.105  12.966  0.3803 -1.6957 -1.1785
16054TIP3   OH269652   1.428   4.413   1.041 -0.3665  0.3826 -0.0174
16054TIP3    H169653   1.501   4.441   0.985  1.7732  0.2671  2.5554
16054TIP3    H269654   1.452   4.442   1.129 -1.2879 -3.4462  1.6989
16055TIP3   OH269655   3.205   3.638  15.659 -0.1849  0.2378 -0.2885
16055TIP3    H169656   3.217   3.716  15.604  0.3903 -0.8144 -1.7088
16055TIP3    H269657   3.216   3.670  15.749 -0.6855  1.9192 -0.7886
16056TIP3   OH269658   1.794   0.400   0.632 -0.2647  0.2423  0.0174
16056TIP3    H169659   1.785   0.310   0.601 -2.4525  0.6110 -0.5950
16056TIP3    H269660   1.829   0.391   0.721  1.2680 -1.0843 -0.6750
16057TIP3   OH269661   2.229   2.494  13.544 -0.0454 -0.1476 -0.6465
16057TIP3    H169662   2.230   2.400  13.561  1.6336 -0.0266  0.0757
16057TIP3    H269663   2.175   2.503  13.466 -3.3509 -1.2977  1.2994
16058TIP3   OH269664   1.190   4.511  15.090 -0.3765 -0.0537 -0.3990
16058TIP3    H169665   1.180   4.542  15.000 -0.0299 -0.5489 -0.6143
16058TIP3    H269666   1.254   4.570  15.129 -2.2380  1.6349  0.2539
16059TIP3   OH269667   5.532   2.232   3.567 -0.0423 -0.6935  0.4863
16059TIP3    H169668   5.473   2.284   3.622  0.9088  0.2096  0.6823
16059TIP3    H269669   5.521   2.267   3.479 -0.7697 -1.4238  0.2721
16060TIP3   OH269670   1.597   6.779  12.246  0.2356  0.1284  0.4780
16060TIP3    H169671   1.508   6.745  12.234 -0.1861  1.3896 -0.1256
16060TIP3    H269672   1.602   6.801  12.340  0.1712 -0.6168  0.6619
16061TIP3   OH269673   2.152   3.387   5.351 -0.1089 -0.0050  0.0279
16061TIP3    H169674   2.164   3.482   5.354 -0.1567  0.0105 -0.2031
16061TIP3    H269675   2.117   3.365   5.437  3.2826 -0.3169  1.4815
16062TIP3   OH269676   1.614   4.057   2.824  0.8619  0.0169 -0.3774
16062TIP3    H169677   1.628   3.968   2.855  0.1848 -0.7491 -2.1305
16062TIP3    H269678   1.531   4.084   2.864 -0.0352 -0.9774 -1.4909
16063TIP3   OH269679   1.721   6.033   0.715 -0.1602  0.3944 -0.0589
16063TIP3    H169680   1.635   6.076   0.719  0.6006  2.1798 -1.4400
16063TIP3    H269681   1.773   6.079   0.781 -0.1749 -0.5129  0.5955
16064TIP3   OH269682   3.105   5.171   5.857 -0.0977  0.5633  0.6717
16064TIP3    H169683   3.165   5.233   5.815  1.8908 -0.6598  1.5084
16064TIP3    H269684   3.077   5.216   5.937  2.3038  0.0228  1.9067
16065TIP3   OH269685   0.595   0.912  10.634 -0.5806 -0.4601 -0.7723
16065TIP3    H169686   0.538   0.842  10.665  1.0033 -2.1676 -1.5295
16065TIP3    H269687   0.673   0.867  10.602  1.8744  1.8126  1.4868
16066TIP3   OH269688   4.266   6.064  14.914 -0.2292  0.3520 -0.6570
16066TIP3    H169689   4.251   6.154  14.885 -1.6121  0.6939  0.9488
16066TIP3    H269690   4.178   6.026  14.921  0.3473 -1.3988 -1.9655
16067TIP3   OH269691   5.394   2.539  12.490  0.0268 -0.3967  0.4571
16067TIP3    H169692   5.378   2.610  12.427 -0.4493 -2.8551 -2.4517
16067TIP3    H269693   5.316   2.538  12.545 -0.7780  0.2420 -0.6298
16068TIP3   OH269694   2.227   3.083  13.665  0.3999  0.3592 -0.8274
16068TIP3    H169695   2.200   3.077  13.757  0.1830  1.1680 -0.8278
16068TIP3    H269696   2.319   3.111  13.669  0.3557  0.5072 -0.8623
16069TIP3   OH269697   6.492   3.495   5.083 -0.2018 -0.5968 -0.0467
16069TIP3    H169698   6.520   3.404   5.073 -1.1499 -0.7746 -1.2176
16069TIP3    H269699   6.398   3.489   5.100  0.0430  0.0929  1.7580
16070TIP3   OH269700   6.104   0.781   2.085  0.0155  0.4070 -0.6668
16070TIP3    H169701   6.106   0.738   2.171  1.0009  0.3886 -0.6882
16070TIP3    H269702   6.192   0.818   2.075  0.0767 -0.0367 -1.8978
16071TIP3   OH269703   0.786   5.566   4.990  0.7448  0.5146  0.3459
16071TIP3    H169704   0.816   5.491   4.939 -0.2038  0.7232 -0.5517
16071TIP3    H269705   0.694   5.546   5.009  0.9380  0.6794  1.5605
16072TIP3   OH269706   1.934   1.663  16.975  0.0060 -0.4282 -0.1935
16072TIP3    H169707   1.928   1.570  16.997 -1.1695 -0.3102  0.0814
16072TIP3    H269708   1.944   1.665  16.880 -3.9021 -0.8392 -0.7977
16073TIP3   OH269709   3.499   1.751   3.505  0.1227 -0.6953 -0.6141
16073TIP3    H169710   3.576   1.800   3.536  0.8521 -0.9379 -1.9874
16073TIP3    H269711   3.461   1.807   3.437  1.0382 -2.0545 -2.2893
16074TIP3   OH269712   4.404   1.680   0.219  0.3274  0.1581  0.8371
16074TIP3    H169713   4.374   1.603   0.170 -0.0405  0.9369 -0.2002
16074TIP3    H269714   4.481   1.710   0.172  1.4305 -0.4786  2.1647
16075TIP3   OH269715   6.346   1.688  11.357  0.5042 -0.1763  0.7528
16075TIP3    H169716   6.441   1.689  11.347  0.4819  0.4499  0.5786
16075TIP3    H269717   6.332   1.676  11.451  0.7477 -1.0343  0.6834
16076TIP3   OH269718   4.654   1.737   3.011  0.3577 -0.4555 -0.2977
16076TIP3    H169719   4.587   1.695   2.958  0.4159 -2.4545  1.0842
16076TIP3    H269720   4.737   1.713   2.969  0.3363 -0.7485 -0.1755
16077TIP3   OH269721   5.085   4.743  11.613  0.4629 -0.6817 -0.0749
16077TIP3    H169722   5.127   4.658  11.610 -0.4162 -1.1028 -0.8415
16077TIP3    H269723   4.992   4.724  11.621  0.2598  0.2043 -0.1596
16078TIP3   OH269724   0.513   4.793  11.416  0.0774  0.0361  1.1022
16078TIP3    H169725   0.520   4.872  11.469 -0.8334  1.0455 -0.2145
16078TIP3    H269726   0.599   4.784  11.375  0.2209  0.2943  1.3446
16079TIP3   OH269727   4.502   3.231  11.602 -0.1709  0.3428 -0.2358
16079TIP3    H169728   4.581   3.256  11.553 -0.1786  0.1673 -0.3378
16079TIP3    H269729   4.535   3.183  11.677 -0.1733  0.3826 -0.2091
16080TIP3   OH269730   5.884   3.859  11.476  0.4440 -0.0400 -0.6934
16080TIP3    H169731   5.815   3.873  11.541 -0.4587  1.4001 -1.9023
16080TIP3    H269732   5.842   3.806  11.407  0.5585  0.7613 -1.3939
16081TIP3   OH269733   6.391   3.274  11.670 -0.2781 -0.2567  0.5122
16081TIP3    H169734   6.482   3.274  11.699 -0.8035  0.7225  2.2982
16081TIP3    H269735   6.397   3.269  11.574  1.6584  0.2905  0.5552
16082TIP3   OH269736   1.724   3.785  14.830 -0.1589  0.2517  0.2575
16082TIP3    H169737   1.790   3.773  14.762  0.4271  2.7944  0.2923
16082TIP3    H269738   1.660   3.715  14.814  0.2472  0.4157 -2.5513
16083TIP3   OH269739   3.036   4.482   2.535  0.7216 -0.3763  0.4663
16083TIP3    H169740   3.037   4.387   2.526 -0.0732 -0.4412  0.9842
16083TIP3    H269741   3.129   4.506   2.540  0.9245 -1.1413  0.5531
16084TIP3   OH269742   4.541   2.859   4.444  0.0047  0.8338 -0.1944
16084TIP3    H169743   4.456   2.852   4.487  0.5019 -2.1703  0.5378
16084TIP3    H269744   4.538   2.796   4.372  2.5940 -1.9333  1.8585
16085TIP3   OH269745   2.257   5.568  13.076 -0.8256  0.1360  0.0734
16085TIP3    H169746   2.316   5.516  13.020  1.3110 -0.9948  3.1164
16085TIP3    H269747   2.269   5.658  13.046  1.9833 -0.1496  0.0836
16086TIP3   OH269748   1.236   3.163  13.297 -0.2831  0.4137 -0.9779
16086TIP3    H169749   1.307   3.224  13.277 -0.4582  1.3978  1.1205
16086TIP3    H269750   1.226   3.111  13.217  5.5096 -2.6211 -0.2993
16087TIP3   OH269751   3.388   2.593  11.796 -0.2780  0.8819 -0.5307
16087TIP3    H169752   3.398   2.498  11.806  0.2471  0.9380 -0.4669
16087TIP3    H269753   3.454   2.617  11.731 -0.5131  1.1834 -0.6623
16088TIP3   OH269754   4.753   0.049  16.563 -0.9472  0.3405  0.4129
16088TIP3    H169755   4.784   0.050  16.472 -0.5099  1.6286  0.5480
16088TIP3    H269756   4.691   0.122  16.567 -1.3863 -0.0570  1.0158
16089TIP3   OH269757   4.696   6.742   5.436  0.6187 -0.7328  0.1351
16089TIP3    H169758   4.745   6.758   5.517 -0.7195  0.8863  0.6651
16089TIP3    H269759   4.737   6.800   5.371 -1.1578  1.4600  0.8479
16090TIP3   OH269760   6.805   4.196  17.009 -0.4683  0.2267  0.2650
16090TIP3    H169761   6.714   4.190  17.039  0.0905 -2.8167  1.7435
16090TIP3    H269762   6.807   4.146  16.927  0.0617 -0.8089  0.8882
16091TIP3   OH269763   0.140   4.334  16.384 -0.0701  0.8603  0.2801
16091TIP3    H169764   0.063   4.310  16.334  0.6440 -1.4069  0.1423
16091TIP3    H269765   0.170   4.416  16.345 -0.9979  0.4990 -1.2715
16092TIP3   OH269766   5.313   4.829   0.007 -0.2173  0.6986  0.2727
16092TIP3    H169767   5.339   4.900   0.066 -0.5535  0.1576  1.0831
16092TIP3    H269768   5.379   4.761   0.022  0.1764  0.8703 -0.5956
16093TIP3   OH269769   1.767   3.578   4.602  0.4111 -0.0184  0.5095
16093TIP3    H169770   1.800   3.640   4.537 -0.2199  1.2638  1.3811
16093TIP3    H269771   1.829   3.585   4.675 -0.3376  0.5073  1.1064
16094TIP3   OH269772   0.734   3.724   0.789 -0.1677  0.3161 -0.1614
16094TIP3    H169773   0.784   3.806   0.785  2.1472 -1.0309 -0.3207
16094TIP3    H269774   0.765   3.673   0.715 -0.9389 -1.0798  0.4401
16095TIP3   OH269775   5.357   5.368   3.698 -0.1042  0.4559  0.4182
16095TIP3    H169776   5.375   5.387   3.790 -2.9428 -0.9906  1.3850
16095TIP3    H269777   5.352   5.454   3.657  1.0126  1.1409  1.6208
16096TIP3   OH269778   6.482   3.426  12.201 -0.0745  0.2450  0.1456
16096TIP3    H169779   6.466   3.347  12.149  0.6420  0.8098 -0.9774
16096TIP3    H269780   6.488   3.496  12.137 -0.8889  1.2597  1.1482
16097TIP3   OH269781   5.646   0.815   5.412 -0.0261  0.0181 -0.2671
16097TIP3    H169782   5.624   0.763   5.335 -1.2895  0.5501 -0.2971
16097TIP3    H269783   5.662   0.903   5.377 -0.6577  0.2728  0.0569
16098TIP3   OH269784   4.707   6.644   0.701 -0.5050 -0.1493  0.1547
16098TIP3    H169785   4.742   6.555   0.709  0.3772  0.0479 -1.1257
16098TIP3    H269786   4.774   6.691   0.651 -1.3450  1.0065  0.0863
16099TIP3   OH269787   3.190   3.683   1.577 -0.2443  0.8556 -0.5594
16099TIP3    H169788   3.166   3.595   1.604  1.3368  0.9932  1.5108
16099TIP3    H269789   3.243   3.670   1.498  0.6378 -0.1270  0.1690
16100TIP3   OH269790   2.442   3.765   6.194 -0.1816  0.6338 -0.7155
16100TIP3    H169791   2.517   3.716   6.228  0.1642  2.4540  1.3796
16100TIP3    H269792   2.367   3.725   6.238 -0.5382 -1.2139 -2.8420
16101TIP3   OH269793   2.973   0.542   3.530 -1.3309 -0.8693 -0.5301
16101TIP3    H169794   3.067   0.556   3.525 -1.5265  0.6761 -0.3366
16101TIP3    H269795   2.964   0.451   3.559  0.1127 -0.7494  0.4207
16102TIP3   OH269796   2.504   1.117   5.674 -0.0476 -0.2870 -0.1672
16102TIP3    H169797   2.594   1.088   5.659  0.9548  3.2351 -1.9814
16102TIP3    H269798   2.470   1.136   5.586 -1.4302  1.3947  0.6705
16103TIP3   OH269799   2.350   3.882   2.315 -0.1637  0.5891 -0.4753
16103TIP3    H169800   2.275   3.836   2.354 -0.0254  1.8928  1.4795
16103TIP3    H269801   2.425   3.856   2.369  0.0360  2.4730  0.2265
16104TIP3   OH269802   6.082   0.307  14.678 -0.1533 -0.3885 -0.1190
16104TIP3    H169803   6.037   0.392  14.679 -1.2493 -0.9399 -0.4557
16104TIP3    H269804   6.138   0.308  14.755 -0.7890  0.3096  0.3454
16105TIP3   OH269805   6.054   2.054  14.310 -0.5615  0.1462  0.1234
16105TIP3    H169806   6.148   2.060  14.325 -0.0557 -0.5884 -2.2542
16105TIP3    H269807   6.038   1.961  14.293 -1.3121  0.5386 -1.5371
16106TIP3   OH269808   4.398   3.074  14.787 -0.0634 -0.6015  0.6600
16106TIP3    H169809   4.342   3.118  14.851 -0.5430  0.5943 -0.5219
16106TIP3    H269810   4.354   2.992  14.768 -3.4491  1.6840 -2.7622
16107TIP3   OH269811   0.149   1.588  11.581  0.3005  0.2234  0.2201
16107TIP3    H169812   0.238   1.615  11.605  0.0864  0.8831  0.3045
16107TIP3    H269813   0.159   1.546  11.496  0.7038  0.2540  0.2488
16108TIP3   OH269814   2.344   0.565  12.600 -0.0432  0.3695  0.3564
16108TIP3    H169815   2.407   0.579  12.671 -1.2357 -2.1950  2.0797
16108TIP3    H269816   2.387   0.501  12.543 -0.7519 -0.8752  1.1755
16109TIP3   OH269817   3.283   1.036   4.156  0.2332  0.0797 -0.6525
16109TIP3    H169818   3.226   0.981   4.104  0.8498 -0.1898 -1.0466
16109TIP3    H269819   3.362   0.984   4.170 -0.5582 -0.5668  2.0191
16110TIP3   OH269820   2.644   1.826   5.761  0.1516 -0.6170  0.0812
16110TIP3    H169821   2.655   1.834   5.855 -1.9100 -1.4317  0.4477
16110TIP3    H269822   2.648   1.732   5.744  1.6337 -0.4121 -0.8317
16111TIP3   OH269823   0.958   5.387   4.136  0.4197  0.5238 -0.2502
16111TIP3    H169824   0.913   5.352   4.060  1.1225  0.6693 -0.7502
16111TIP3    H269825   1.036   5.332   4.145  0.3462  0.5157  0.3587
16112TIP3   OH269826   6.189   4.950   2.767 -0.2787 -0.4456 -0.0082
16112TIP3    H169827   6.110   4.948   2.712  0.2912  1.4066 -0.9900
16112TIP3    H269828   6.192   5.040   2.800  2.1812 -0.0335 -1.1732
16113TIP3   OH269829   4.665   0.191   1.534  0.7356 -0.1278  0.2243
16113TIP3    H169830   4.698   0.130   1.468  0.1201 -0.0988 -0.1175
16113TIP3    H269831   4.602   0.246   1.487  1.4241  0.9039  0.4884
16114TIP3   OH269832   1.070   4.975  11.481 -0.0341  0.0505 -0.2992
16114TIP3    H169833   1.104   5.037  11.418 -1.2704  1.2874  0.2009
16114TIP3    H269834   1.125   4.986  11.559  2.9042 -2.9832 -1.6908
16115TIP3   OH269835   1.212   1.972  15.032  0.0018 -0.1755 -0.1865
16115TIP3    H169836   1.253   1.930  14.956  0.4318  0.0772 -0.0980
16115TIP3    H269837   1.124   1.935  15.036  0.0636 -0.3718 -0.6621
16116TIP3   OH269838   0.372   4.076   3.620 -0.0337 -0.2535  0.2451
16116TIP3    H169839   0.434   4.112   3.683 -1.1522  1.1346  0.6021
16116TIP3    H269840   0.397   4.116   3.537 -0.6371  0.5863  0.4536
16117TIP3   OH269841   1.060   2.563  15.831 -0.1247  0.5226  0.1313
16117TIP3    H169842   1.096   2.527  15.750 -0.5265 -0.5487  0.4125
16117TIP3    H269843   1.073   2.657  15.824  0.9258  0.3289 -0.6461
16118TIP3   OH269844   3.504   4.882   2.061  0.3017 -0.1111  0.3372
16118TIP3    H169845   3.460   4.810   2.105  0.9730 -1.2820 -0.8500
16118TIP3    H269846   3.597   4.859   2.063  0.6840  1.3600  1.0677
16119TIP3   OH269847   5.060   3.385  15.584 -0.0187  0.9250 -0.5378
16119TIP3    H169848   5.059   3.296  15.549  0.5655  0.2732  1.0060
16119TIP3    H269849   5.115   3.434  15.523 -0.5734  0.3209 -1.5600
16120TIP3   OH269850   5.462   4.556   2.638  0.2410  0.5851 -0.1601
16120TIP3    H169851   5.401   4.496   2.595  1.0776  1.4261 -2.7405
16120TIP3    H269852   5.549   4.526   2.609  0.7136  2.4790 -0.8434
16121TIP3   OH269853   1.205   2.121  14.592 -0.0489 -0.0844 -0.0388
16121TIP3    H169854   1.229   2.166  14.673  0.1725 -1.2630  0.5687
16121TIP3    H269855   1.110   2.130  14.587  0.1064  1.4361 -0.5369
16122TIP3   OH269856   3.390   5.797   3.836  0.1199 -0.2880  0.0266
16122TIP3    H169857   3.314   5.841   3.797 -0.7787  0.8311  2.7818
16122TIP3    H269858   3.410   5.725   3.776 -2.0865  0.3902 -1.6345
16123TIP3   OH269859   4.136   0.867  16.960  0.0957 -0.2906 -0.3684
16123TIP3    H169860   4.227   0.898  16.955  0.3663 -1.0116  0.0134
16123TIP3    H269861   4.138   0.782  16.916 -0.7650  0.4548 -1.9702
16124TIP3   OH269862   6.491   3.376  13.837  0.3628 -0.2168 -0.1445
16124TIP3    H169863   6.515   3.443  13.773 -0.4429  1.1296  0.8837
16124TIP3    H269864   6.572   3.329  13.854  1.2922  1.3503  0.0236
16125TIP3   OH269865   6.303   1.252   3.539 -0.1169 -0.1128  0.2686
16125TIP3    H169866   6.237   1.321   3.537 -0.3000 -0.3122 -0.8611
16125TIP3    H269867   6.382   1.296   3.573 -0.4968  0.4014  0.4984
16126TIP3   OH269868   2.089   6.809  11.713  0.0292 -0.4324  0.6165
16126TIP3    H169869   2.184   6.809  11.699 -0.2413  1.0298 -1.6997
16126TIP3    H269870   2.061   6.721  11.690  0.6855 -0.4983  0.0417
16127TIP3   OH269871   0.972   0.361  14.373  0.2786  0.2417 -0.3433
16127TIP3    H169872   0.942   0.380  14.285  0.5934  0.5207 -0.3942
16127TIP3    H269873   0.901   0.311  14.413 -0.9498  2.2460  0.0870
16128TIP3   OH269874   3.694   2.619   2.789  0.1014  0.0403  0.2998
16128TIP3    H169875   3.787   2.604   2.805  0.2533  1.3577  0.8192
16128TIP3    H269876   3.678   2.581   2.703  0.8535 -1.1765  0.6714
16129TIP3   OH269877   2.024   4.637   5.396  0.7667  0.0598 -0.1971
16129TIP3    H169878   2.077   4.708   5.432  0.3644 -0.2708  1.1342
16129TIP3    H269879   2.088   4.572   5.366  1.1277  0.2328  0.1916
16130TIP3   OH269880   3.379   3.199   1.132  0.8251  0.5816 -0.2837
16130TIP3    H169881   3.330   3.139   1.075  1.0201  0.1572 -0.0015
16130TIP3    H269882   3.331   3.282   1.125  0.8088  0.5198 -1.0177
16131TIP3   OH269883   3.430   5.756  12.959  0.4874 -0.1701  0.4134
16131TIP3    H169884   3.509   5.704  12.947  2.1240  1.9642  1.2812
16131TIP3    H269885   3.403   5.738  13.049  0.3936 -0.3900  0.3403
16132TIP3   OH269886   3.315   4.754  17.005 -0.1856 -0.1028  0.1787
16132TIP3    H169887   3.233   4.708  16.985 -0.7408  0.7402  0.4807
16132TIP3    H269888   3.334   4.805  16.926  0.1266 -0.3951  0.0599
16133TIP3   OH269889   1.190   1.131  12.951 -0.3655 -0.7629 -0.0465
16133TIP3    H169890   1.127   1.143  13.023 -0.6121  0.8148 -0.4830
16133TIP3    H269891   1.274   1.116  12.995 -0.5795 -0.2040  0.5768
16134TIP3   OH269892   3.492   6.091   5.475 -0.4045 -0.3455  0.0956
16134TIP3    H169893   3.407   6.051   5.496 -0.0775 -0.6432  0.8742
16134TIP3    H269894   3.519   6.133   5.557  0.7831 -1.3152  0.2169
16135TIP3   OH269895   3.239   4.667  10.912  0.4900  0.3861  0.0161
16135TIP3    H169896   3.171   4.609  10.947 -0.2176 -0.0245 -1.9369
16135TIP3    H269897   3.215   4.754  10.946 -0.5650  0.1168 -0.0060
16136TIP3   OH269898   0.115   4.357  11.572  0.1841  0.6188 -0.5829
16136TIP3    H169899   0.093   4.428  11.511 -0.8649  1.7246  1.0005
16136TIP3    H269900   0.031   4.315  11.590  0.7351 -0.7623 -1.1602
16137TIP3   OH269901   1.591   2.796   1.838 -0.1451  0.5129 -0.1026
16137TIP3    H169902   1.663   2.752   1.791 -0.2371  0.8755 -0.5941
16137TIP3    H269903   1.591   2.757   1.925 -0.3659 -0.6449 -0.5968
16138TIP3   OH269904   2.329   0.648   1.373 -0.1228 -0.0669  0.0792
16138TIP3    H169905   2.334   0.552   1.368 -0.2477 -0.1770  1.4976
16138TIP3    H269906   2.419   0.675   1.395  0.0372  0.1996 -0.8691
16139TIP3   OH269907   5.027   2.579  16.193  0.7450  0.4061  0.0903
16139TIP3    H169908   5.043   2.638  16.119  1.7590 -0.6373 -0.5362
16139TIP3    H269909   5.026   2.492  16.154 -0.7626 -0.0260  1.0086
16140TIP3   OH269910   1.680   6.729   1.414 -0.1640 -0.4257 -0.6274
16140TIP3    H169911   1.633   6.660   1.461  2.0287 -2.8241 -1.6788
16140TIP3    H269912   1.746   6.760   1.476 -1.1109  0.7573 -0.1751
16141TIP3   OH269913   5.967   5.185   3.935  0.3368 -0.3138 -0.1663
16141TIP3    H169914   5.923   5.212   3.855  1.1923 -0.6784 -0.7792
16141TIP3    H269915   6.053   5.226   3.931 -0.1176  0.8938  1.3082
16142TIP3   OH269916   4.213   6.117   0.768 -0.4900  0.0534  0.0194
16142TIP3    H169917   4.257   6.072   0.840 -0.1961  2.5091  1.4785
16142TIP3    H269918   4.197   6.205   0.801 -0.1934  1.3613 -2.9936
16143TIP3   OH269919   6.232   5.056  13.043 -0.0869  0.0846  0.1932
16143TIP3    H169920   6.265   5.010  13.120  0.5592 -1.1010 -0.7579
16143TIP3    H269921   6.165   5.115  13.077  0.4759 -0.1167  1.7055
16144TIP3   OH269922   5.769   2.397  15.093  0.0642 -0.2580 -0.5083
16144TIP3    H169923   5.780   2.346  15.013  1.0860 -1.4861  0.3829
16144TIP3    H269924   5.699   2.353  15.140  0.2487 -0.2215 -0.1991
16145TIP3   OH269925   0.094   1.620   1.604 -0.3453 -0.0863  0.3636
16145TIP3    H169926   0.165   1.664   1.649  0.3420 -1.8926  1.1210
16145TIP3    H269927   0.014   1.655   1.645  0.1422  0.9128  0.4780
16146TIP3   OH269928   4.333   1.682  13.006 -0.1642 -0.0349  0.3692
16146TIP3    H169929   4.274   1.701  13.079 -2.7602  0.6388 -1.7674
16146TIP3    H269930   4.355   1.767  12.970 -0.2284 -0.4257 -0.6141
16147TIP3   OH269931   6.127   3.114   3.532 -0.0125 -0.0855  0.0566
16147TIP3    H169932   6.052   3.146   3.481 -1.0296 -0.5489  1.2313
16147TIP3    H269933   6.200   3.113   3.469 -1.3123 -1.0060 -1.4902
16148TIP3   OH269934   3.904   3.769   0.900 -0.4789  0.4259  0.4721
16148TIP3    H169935   3.907   3.807   0.813 -0.5199  0.2767  0.4045
16148TIP3    H269936   3.954   3.829   0.955 -0.7457  0.6995  0.4159
16149TIP3   OH269937   3.885   5.671   2.589  0.0658 -0.4788  0.5777
16149TIP3    H169938   3.950   5.669   2.519  0.9758 -2.3196  1.3988
16149TIP3    H269939   3.802   5.692   2.545  1.0870  1.3782 -0.5740
16150TIP3   OH269940   0.673   1.175  15.211 -0.5386 -0.3171  0.7551
16150TIP3    H169941   0.750   1.223  15.241 -0.2607  0.2889 -0.8381
16150TIP3    H269942   0.699   1.083  15.211  0.9420  0.0243 -1.7308
16151TIP3   OH269943   6.152   5.942  15.195  0.1646  0.0067  0.0619
16151TIP3    H169944   6.151   5.853  15.161  0.4289  0.3247 -0.8159
16151TIP3    H269945   6.120   5.934  15.284  1.1029 -1.1015  0.3318
16152TIP3   OH269946   3.337   5.173  12.680 -0.5894 -0.3238 -0.1230
16152TIP3    H169947   3.336   5.087  12.638 -1.1238 -0.4959  0.2410
16152TIP3    H269948   3.346   5.154  12.774  2.2670  0.0826 -0.2240
16153TIP3   OH269949   0.611   3.081   0.858 -0.5099  0.1206 -0.9186
16153TIP3    H169950   0.686   3.022   0.849 -0.9734 -0.7283  0.4093
16153TIP3    H269951   0.632   3.135   0.935 -2.2063 -1.7182  0.9697
16154TIP3   OH269952   5.086   4.305  11.447  0.0832 -0.2193  0.2798
16154TIP3    H169953   5.136   4.370  11.494  1.2226 -0.6892 -0.2491
16154TIP3    H269954   5.152   4.248  11.406 -0.8536 -0.3923 -1.0788
16155TIP3   OH269955   0.086   6.760  16.888 -0.6069 -0.1690 -0.6762
16155TIP3    H169956   0.141   6.748  16.965 -0.9753 -1.1831 -0.5551
16155TIP3    H269957   0.103   6.850  16.860  1.8649 -0.7388 -1.2167
16156TIP3   OH269958   0.990   4.949  14.929 -0.2913 -0.6471  0.3944
16156TIP3    H169959   0.982   4.925  15.021  0.3949 -1.7875  0.1713
16156TIP3    H269960   1.033   5.034  14.930  0.0882 -0.8361  1.1246
16157TIP3   OH269961   4.511   2.514  15.148  0.2245  0.1702 -0.5349
16157TIP3    H169962   4.460   2.594  15.156  1.7074  1.0901  0.2080
16157TIP3    H269963   4.602   2.541  15.166  0.5203 -2.0281  2.0575
16158TIP3   OH269964   5.554   4.950  16.543  1.3130  0.0108  0.1240
16158TIP3    H169965   5.535   4.973  16.634  2.0548 -1.8666  0.7922
16158TIP3    H269966   5.498   4.874  16.525  1.1225  0.4017 -1.0223
16159TIP3   OH269967   4.115   2.984  11.395  0.7413 -0.2245  0.1940
16159TIP3    H169968   4.170   3.062  11.404 -0.4206  0.5674  0.7225
16159TIP3    H269969   4.088   2.984  11.303  0.4736  0.1952  0.2701
16160TIP3   OH269970   1.132   4.630   5.426  0.4092  0.5243 -0.2026
16160TIP3    H169971   1.197   4.640   5.495  0.7254  3.6463 -0.8052
16160TIP3    H269972   1.052   4.666   5.463 -0.7006 -1.9511  0.0178
16161TIP3   OH269973   0.193   0.162   3.606 -0.0829 -0.0546 -0.4308
16161TIP3    H169974   0.260   0.206   3.554 -1.6862  1.2783 -1.4876
16161TIP3    H269975   0.154   0.231   3.659 -0.3509 -0.8817  0.4812
16162TIP3   OH269976   4.334   6.817  16.648  0.4527  0.0450  0.2104
16162TIP3    H169977   4.247   6.785  16.671 -0.7179  0.8913 -2.6402
16162TIP3    H269978   4.356   6.880  16.718 -1.8660  0.9044  0.2473
16163TIP3   OH269979   5.075   0.503   0.998  0.3600 -0.3918  0.3611
16163TIP3    H169980   5.049   0.466   0.914 -1.2694 -0.7829  1.0096
16163TIP3    H269981   5.154   0.554   0.977 -0.2306 -0.1280 -1.4851
16164TIP3   OH269982   6.382   5.301   0.150  0.3288  0.0817 -0.7797
16164TIP3    H169983   6.386   5.234   0.218 -0.6878  0.8067  0.0224
16164TIP3    H269984   6.422   5.379   0.190 -2.0640  1.1031 -0.2489
16165TIP3   OH269985   4.329   1.557  15.278  0.1947 -0.6014  0.0448
16165TIP3    H169986   4.257   1.512  15.322  0.4068 -2.5335 -1.4765
16165TIP3    H269987   4.290   1.590  15.197  0.8650 -1.1093 -0.4904
16166TIP3   OH269988   6.606   3.687   0.449  0.0821  0.1260  0.1351
16166TIP3    H169989   6.629   3.594   0.454  2.0762  0.4655 -1.4720
16166TIP3    H269990   6.604   3.716   0.540 -0.1460 -1.3770  0.6430
16167TIP3   OH269991   5.657   6.345  13.265 -0.6960  0.1644 -0.2871
16167TIP3    H169992   5.696   6.357  13.351 -0.0142  0.8364 -0.6773
16167TIP3    H269993   5.564   6.328  13.282 -0.4522 -0.3562  0.6024
16168TIP3   OH269994   2.667   0.569   5.255  0.0611  0.7387  0.1166
16168TIP3    H169995   2.605   0.563   5.328 -0.7540 -0.3118 -0.6369
16168TIP3    H269996   2.616   0.605   5.183  0.9289  2.0191  0.1146
16169TIP3   OH269997   6.417   6.077   4.074  0.3488 -0.0522 -0.2840
16169TIP3    H169998   6.337   6.074   4.126  0.2169 -0.4195 -0.5028
16169TIP3    H269999   6.418   6.165   4.036  0.0441 -0.0484 -0.2852
16170TIP3   OH270000   4.748   3.628  14.000 -0.0711 -0.3070 -0.7908
16170TIP3    H170001   4.839   3.640  13.975 -0.3452  0.9302 -1.2800
16170TIP3    H270002   4.719   3.551  13.951  1.2375 -1.9733  0.9186
16171TIP3   OH270003   3.361   4.122  15.966 -0.4534 -0.0419 -0.1728
16171TIP3    H170004   3.443   4.077  15.989 -0.0955  0.1444 -1.0356
16171TIP3    H270005   3.385   4.177  15.892 -0.7929  1.9207  1.1157
16172TIP3   OH270006   4.910   6.218   1.280  1.4072 -0.5667  0.3160
16172TIP3    H170007   4.869   6.272   1.347  1.9100  0.9145 -0.5312
16172TIP3    H270008   4.841   6.156   1.254  0.7732 -0.2514  1.1958
16173TIP3   OH270009   4.573   6.696  12.168 -0.8199  0.0794 -0.2537
16173TIP3    H170010   4.580   6.604  12.195  0.4779  0.2838  0.1914
16173TIP3    H270011   4.492   6.727  12.209  0.0843 -0.1642  1.8845
16174TIP3   OH270012   4.356   1.265   0.808  0.0756 -0.3245 -0.8653
16174TIP3    H170013   4.375   1.172   0.810 -0.7703 -0.5376 -1.9562
16174TIP3    H270014   4.306   1.281   0.888 -0.5144 -0.9814 -1.0950
16175TIP3   OH270015   2.487   0.658  11.585  0.3604  0.1224 -0.2767
16175TIP3    H170016   2.477   0.668  11.680 -2.9495 -1.0702 -0.3614
16175TIP3    H270017   2.507   0.566  11.573 -0.2508  0.0476 -0.7512
16176TIP3   OH270018   4.638   5.264  11.702 -1.0818  0.2704  0.4080
16176TIP3    H170019   4.659   5.175  11.675 -1.3804  0.0700  0.8287
16176TIP3    H270020   4.694   5.280  11.778 -0.8592  0.5287  0.1950
16177TIP3   OH270021   4.656   1.772   0.056  0.0328 -0.2970  0.1621
16177TIP3    H170022   4.710   1.695   0.073 -1.5141 -1.4696 -0.0131
16177TIP3    H270023   4.632   1.764  -0.037  3.0549  2.5486 -1.0603
16178TIP3   OH270024   3.698   2.351   3.724  0.0533  0.3448  0.7635
16178TIP3    H170025   3.618   2.393   3.753  0.2886 -0.0978  2.0895
16178TIP3    H270026   3.768   2.411   3.750  0.3039 -0.3094  1.6468
16179TIP3   OH270027   6.296   4.494   5.510 -0.2952  0.1700  0.2891
16179TIP3    H170028   6.337   4.497   5.424 -0.1079 -1.9383  0.2509
16179TIP3    H270029   6.357   4.539   5.568  0.7192 -0.4856 -0.2595
16180TIP3   OH270030   6.851   3.680  15.616  0.5718 -0.3528 -0.1449
16180TIP3    H170031   6.823   3.770  15.630  2.4187  0.1577  0.5461
16180TIP3    H270032   6.836   3.636  15.700 -0.5658 -0.7879 -0.5532
16181TIP3   OH270033   1.783   4.023   1.098  0.5895 -0.0777  0.3820
16181TIP3    H170034   1.764   3.930   1.111  0.4611 -0.2782 -1.0508
16181TIP3    H270035   1.753   4.066   1.178 -0.1900 -1.1534  0.6821
16182TIP3   OH270036   4.954   3.026   0.226  0.3325  0.0981 -0.2391
16182TIP3    H170037   4.955   3.110   0.273 -0.6927  0.6185 -1.1006
16182TIP3    H270038   4.890   3.039   0.156 -1.1785 -1.9599  0.6347
16183TIP3   OH270039   3.547   4.841  10.427 -0.4861 -0.1733 -0.2092
16183TIP3    H170040   3.632   4.799  10.441 -2.1788 -3.1306  2.4766
16183TIP3    H270041   3.544   4.912  10.491 -0.4859 -0.8656  0.5744
16184TIP3   OH270042   5.476   3.249   1.733 -0.3191 -0.1536 -0.2968
16184TIP3    H170043   5.521   3.171   1.700 -0.7605  0.2333 -1.9050
16184TIP3    H270044   5.406   3.216   1.788  0.5108 -0.8310  0.3772
16185TIP3   OH270045   1.698   3.011  15.958 -0.1713  0.0271 -0.0514
16185TIP3    H170046   1.643   3.086  15.979  0.0382  0.6743 -1.6389
16185TIP3    H270047   1.734   2.982  16.042 -2.9278 -0.4633  1.0401
16186TIP3   OH270048   1.449   5.253   2.261 -0.0243  0.3220  0.2603
16186TIP3    H170049   1.500   5.280   2.337  0.0718 -0.9992  0.6891
16186TIP3    H270050   1.358   5.257   2.291  0.0845 -1.6087  0.9507
16187TIP3   OH270051   5.942   1.965   5.461  0.6590 -0.2146 -0.3909
16187TIP3    H170052   5.875   1.929   5.401  0.6342  0.8472 -1.0226
16187TIP3    H270053   5.911   2.053   5.482 -0.5535 -1.2988  3.0968
16188TIP3   OH270054   5.121   1.936   4.533  0.0126  0.0992  0.4879
16188TIP3    H170055   5.061   1.862   4.538 -0.7531  0.5790 -1.1144
16188TIP3    H270056   5.096   1.993   4.606 -0.9991 -0.0622  0.2764
16189TIP3   OH270057   2.412   0.998  14.584  0.6940  0.2985  0.2380
16189TIP3    H170058   2.475   1.066  14.609 -1.6073  1.7845  2.4687
16189TIP3    H270059   2.360   1.039  14.514  0.7093 -0.0124  0.0441
16190TIP3   OH270060   4.725   4.014  16.330  0.0595  0.3561  0.2727
16190TIP3    H170061   4.669   4.050  16.399  0.1468  0.8729  0.0803
16190TIP3    H270062   4.717   3.919  16.339  2.6209  0.2768  3.1651
16191TIP3   OH270063   3.205   2.313  16.079  0.4367 -0.5334 -0.2745
16191TIP3    H170064   3.195   2.263  15.998  0.7843 -0.8277 -0.1341
16191TIP3    H270065   3.236   2.399  16.050  0.6138 -0.6553 -0.4493
16192TIP3   OH270066   5.579   6.767  16.421  0.2057 -0.0773  0.9094
16192TIP3    H170067   5.627   6.839  16.381 -1.0559 -0.1955 -0.9735
16192TIP3    H270068   5.488   6.798  16.426 -0.6547 -1.8871 -1.2090
16193TIP3   OH270069   4.932   0.095   1.639  0.7527  0.6460  0.2932
16193TIP3    H170070   4.845   0.129   1.618  0.7110  0.8646  0.7947
16193TIP3    H270071   4.916   0.024   1.701  0.7143 -1.4988 -2.0260
16194TIP3   OH270072   5.623   3.368   5.415  0.2839  0.3190 -0.6339
16194TIP3    H170073   5.716   3.386   5.400 -0.0038  1.8512 -0.7572
16194TIP3    H270074   5.587   3.452   5.446 -1.9119  1.0897 -4.5833
16195TIP3   OH270075   4.392   0.489   0.786 -0.3990  0.2340  0.5479
16195TIP3    H170076   4.311   0.538   0.777  1.0150  2.5925 -0.0415
16195TIP3    H270077   4.461   0.555   0.789  1.4436 -1.6086  2.4524
16196TIP3   OH270078   1.369   1.846  12.642 -0.1145  0.0159  0.1857
16196TIP3    H170079   1.440   1.909  12.655  1.8191 -1.9886 -0.0856
16196TIP3    H270080   1.319   1.849  12.724  1.7583 -0.2388  1.4051
16197TIP3   OH270081   2.544   0.599   2.680 -0.7516 -0.4840 -0.3625
16197TIP3    H170082   2.452   0.603   2.707 -0.5938  1.3716  0.0632
16197TIP3    H270083   2.544   0.628   2.589 -0.5416  0.0976 -0.1838
16198TIP3   OH270084   3.462   6.681   5.458 -0.1284  0.0240  0.3700
16198TIP3    H170085   3.511   6.763   5.452  0.6508 -0.3715  1.0319
16198TIP3    H270086   3.495   6.628   5.384 -1.2512  0.6009 -0.5782
16199TIP3   OH270087   3.210   2.573  12.085  0.5422  0.4636  0.1968
16199TIP3    H170088   3.294   2.529  12.079  0.0736 -0.6059  1.1073
16199TIP3    H270089   3.212   2.617  12.170  0.4005  0.9290 -0.0350
16200TIP3   OH270090   4.211   1.432  16.690  0.7131 -0.7964  0.0411
16200TIP3    H170091   4.122   1.467  16.687  0.8766 -0.4742 -1.7369
16200TIP3    H270092   4.222   1.404  16.781 -1.8168 -2.4743 -0.0704
16201TIP3   OH270093   1.872   6.535  13.449 -0.0961  0.1492 -0.0242
16201TIP3    H170094   1.925   6.590  13.507  0.7127 -0.5856 -0.0588
16201TIP3    H270095   1.808   6.493  13.507 -1.3989  1.8655 -0.1266
16202TIP3   OH270096   2.080   0.425   2.372 -0.2407  0.5482  0.4889
16202TIP3    H170097   1.994   0.452   2.340 -0.1039 -1.8102 -2.2593
16202TIP3    H270098   2.074   0.330   2.381  1.5746  0.5154  1.9762
16203TIP3   OH270099   5.025   1.689  15.749  0.3498  0.2493 -0.2241
16203TIP3    H170100   4.945   1.638  15.764  0.9073 -0.7851 -0.6708
16203TIP3    H270101   5.081   1.668  15.824  0.5608  0.2544 -0.3819
16204TIP3   OH270102   0.589   3.608   2.131  0.2454 -0.5249 -0.2734
16204TIP3    H170103   0.573   3.637   2.041 -0.7818 -0.3450 -0.0533
16204TIP3    H270104   0.621   3.686   2.176  2.2627 -0.9985 -0.8293
16205TIP3   OH270105   2.986   0.014   1.804 -0.4967 -0.0828 -0.3979
16205TIP3    H170106   2.904   0.005   1.854 -1.0721  2.7966 -0.6561
16205TIP3    H270107   2.959   0.009   1.712 -0.4734  1.2801 -0.4917
16206TIP3   OH270108   6.691   6.126   0.885 -0.0660 -0.5570  0.5827
16206TIP3    H170109   6.628   6.055   0.899 -2.0287  1.2022  1.2058
16206TIP3    H270110   6.755   6.115   0.955 -0.1256 -1.9013  0.4566
16207TIP3   OH270111   4.087   3.846  13.310 -0.0260  0.1035 -0.0711
16207TIP3    H170112   4.073   3.930  13.266  0.9663  0.3812  0.1264
16207TIP3    H270113   4.169   3.813  13.274 -0.2555 -0.6526  0.0743
16208TIP3   OH270114   4.283   6.248   2.705 -0.2760 -0.1347 -0.1852
16208TIP3    H170115   4.196   6.270   2.673  0.1266  0.3984 -0.9224
16208TIP3    H270116   4.323   6.199   2.634  0.4295  0.5929 -0.2938
16209TIP3   OH270117   0.415   3.191   0.172 -0.7864 -0.0551 -0.1524
16209TIP3    H170118   0.356   3.245   0.225 -1.2973 -1.7592  1.0885
16209TIP3    H270119   0.458   3.133   0.234  1.8264  0.7285 -1.1073
16210TIP3   OH270120   4.965   4.147   3.088 -0.3782 -0.2873 -0.3398
16210TIP3    H170121   5.001   4.187   3.167 -2.2744 -0.1538  0.5016
16210TIP3    H270122   4.875   4.179   3.083 -0.9772 -1.9749 -1.3806
16211TIP3   OH270123   5.463   5.239   4.025 -0.4907  0.1360  0.7163
16211TIP3    H170124   5.492   5.306   3.964 -1.2427  0.2158  0.4298
16211TIP3    H270125   5.503   5.158   3.993 -2.1542 -0.1276 -0.8915
16212TIP3   OH270126   3.527   1.480  16.460 -0.0370 -0.4923 -0.1058
16212TIP3    H170127   3.573   1.401  16.432  2.4663  0.3657  1.2487
16212TIP3    H270128   3.440   1.450  16.486  1.2989 -3.1142  1.7386
16213TIP3   OH270129   6.378   3.726   4.319  0.0838 -0.2794  0.2372
16213TIP3    H170130   6.410   3.657   4.377  1.2985  1.2614  1.5056
16213TIP3    H270131   6.457   3.777   4.298 -0.6643  0.3319 -1.2294
16214TIP3   OH270132   0.049   4.776   2.170  0.2589 -0.2409  0.4147
16214TIP3    H170133  -0.013   4.711   2.136  2.0503 -1.2084 -1.1885
16214TIP3    H270134   0.119   4.723   2.208  1.4285  0.7617 -0.3131
16215TIP3   OH270135   6.341   3.402  16.187  0.1042  0.0018  0.3817
16215TIP3    H170136   6.327   3.328  16.126  0.5354  0.5793 -0.4341
16215TIP3    H270137   6.435   3.403  16.203 -0.0492 -0.3891  1.3983
16216TIP3   OH270138   0.197   4.172   2.617  0.1433  1.2818  0.2548
16216TIP3    H170139   0.197   4.111   2.691  0.2185  1.8255  0.7068
16216TIP3    H270140   0.252   4.129   2.551 -1.4499 -0.0974 -0.2451
16217TIP3   OH270141   4.107   1.630  12.258  0.5964 -0.2597  0.1699
16217TIP3    H170142   4.118   1.623  12.163 -2.3118  2.0104 -0.4944
16217TIP3    H270143   4.091   1.541  12.287  0.9633 -0.9325 -1.5455
16218TIP3   OH270144   5.265   6.213  16.496  0.1968  0.4788  0.2860
16218TIP3    H170145   5.221   6.131  16.519 -0.1293  0.3584 -0.7556
16218TIP3    H270146   5.342   6.186  16.445  1.0369  0.7375  1.3603
16219TIP3   OH270147   4.359   5.594   4.215  0.3979  0.2115 -0.4077
16219TIP3    H170148   4.356   5.686   4.190  0.8576  0.8029  1.5447
16219TIP3    H270149   4.419   5.591   4.290  0.3555 -1.6748 -0.3838
16220TIP3   OH270150   1.255   2.363   3.112 -0.3556 -0.3585 -0.0769
16220TIP3    H170151   1.231   2.401   3.196  0.6804 -0.2850  0.2041
16220TIP3    H270152   1.295   2.435   3.063 -1.1380 -0.3478 -0.7208
16221TIP3   OH270153   3.628   3.540   5.514  0.6303  0.4222 -0.2108
16221TIP3    H170154   3.702   3.601   5.518 -0.6448  2.0474 -0.4634
16221TIP3    H270155   3.622   3.504   5.603  2.6485 -0.9568 -0.5592
16222TIP3   OH270156   4.850   6.837   5.649  0.0246 -0.0848  0.3277
16222TIP3    H170157   4.911   6.899   5.690  1.2799 -0.7731 -0.4288
16222TIP3    H270158   4.851   6.761   5.708 -1.1340  0.3913  0.9948
16223TIP3   OH270159   6.622   1.386  10.383 -0.5234  0.2548 -0.1419
16223TIP3    H170160   6.670   1.434  10.316  0.6067 -0.2893  0.2434
16223TIP3    H270161   6.665   1.301  10.387 -0.4958  0.3032  1.3180
16224TIP3   OH270162   6.087   6.801   4.147  0.2803  0.6277 -0.3461
16224TIP3    H170163   6.054   6.711   4.151 -2.9204  1.4077 -3.7215
16224TIP3    H270164   6.159   6.797   4.084  0.0721  0.4099 -0.5753
16225TIP3   OH270165   0.403   5.036   6.037  0.6044 -0.9010  0.6526
16225TIP3    H170166   0.318   5.052   6.078 -0.7749 -0.9780 -1.9622
16225TIP3    H270167   0.432   5.122   6.008  0.1111 -1.1887 -0.7626
16226TIP3   OH270168   0.574   2.225   1.653 -0.0413 -0.1145 -0.7424
16226TIP3    H170169   0.610   2.286   1.719  1.2852  0.3153 -1.8090
16226TIP3    H270170   0.502   2.274   1.613  0.4541  0.4234 -0.9923
16227TIP3   OH270171   4.054   6.806   1.595  0.2719  0.3870  1.0509
16227TIP3    H170172   4.108   6.881   1.570  0.4369 -0.2481 -0.6533
16227TIP3    H270173   4.089   6.734   1.542 -1.3900 -0.3487  0.9121
16228TIP3   OH270174   1.666   3.640   3.395 -0.4925  0.4521 -0.1638
16228TIP3    H170175   1.629   3.625   3.308 -0.8029  1.5611 -0.2399
16228TIP3    H270176   1.723   3.565   3.410  1.8992  1.6310 -2.5617
16229TIP3   OH270177   4.224   2.112   3.317  0.5629 -0.3921  0.1153
16229TIP3    H170178   4.181   2.034   3.281  2.0207 -0.2641 -2.0374
16229TIP3    H270179   4.318   2.093   3.311  0.9319  0.5439  1.9495
16230TIP3   OH270180   0.508   1.631   6.485  0.2093  0.3525 -0.3574
16230TIP3    H170181   0.528   1.569   6.555  0.8422  1.0329  0.0595
16230TIP3    H270182   0.421   1.665   6.507  0.1610  0.1391 -0.2177
16231TIP3   OH270183   1.158   1.294  17.054 -0.0246 -0.0043 -0.5677
16231TIP3    H170184   1.249   1.268  17.067  0.3009  1.4729  0.2645
16231TIP3    H270185   1.161   1.359  16.984 -0.3009  0.7827  0.1371
16232TIP3   OH270186   1.337   4.182  13.578  0.5022  0.0854  0.4062
16232TIP3    H170187   1.323   4.154  13.487  0.3008  1.2689  0.0582
16232TIP3    H270188   1.432   4.181  13.589  0.4965 -1.0064  0.5099
16233TIP3   OH270189   3.304   2.795  13.781  0.1442 -0.0441 -0.0697
16233TIP3    H170190   3.215   2.813  13.812 -0.2608 -1.3849 -0.3768
16233TIP3    H270191   3.345   2.748  13.853  1.4853  2.6963  1.0911
16234TIP3   OH270192   2.407   2.222  15.452  0.0569  0.0565 -0.6423
16234TIP3    H170193   2.453   2.139  15.458  0.1024  0.0346 -1.2300
16234TIP3    H270194   2.473   2.284  15.421  0.4220  0.6584  1.1932
16235TIP3   OH270195   4.882   6.095  13.204 -0.5100 -0.4694  0.6701
16235TIP3    H170196   4.909   6.081  13.295 -0.6360 -1.0640  0.6256
16235TIP3    H270197   4.936   6.033  13.154 -1.5729 -1.3073  0.5253
16236TIP3   OH270198   0.225   0.016   2.608 -0.1436 -0.1919  0.1140
16236TIP3    H170199   0.157  -0.030   2.657 -0.1575 -0.0936  0.1886
16236TIP3    H270200   0.266   0.074   2.672  0.8541 -1.1603  0.3601
16237TIP3   OH270201   1.325   3.744  12.278  0.2790 -0.2470  0.1255
16237TIP3    H170202   1.409   3.776  12.313  1.6204 -1.9896 -1.3151
16237TIP3    H270203   1.267   3.741  12.354  2.2172 -1.2076  1.6642
16238TIP3   OH270204   2.009   5.932   4.044  0.0641 -0.4289  0.1594
16238TIP3    H170205   2.093   5.945   3.999  0.3294 -0.5275  0.6161
16238TIP3    H270206   1.958   6.010   4.022 -0.1042 -0.8343 -0.9424
16239TIP3   OH270207   5.664   2.376  15.424 -0.3518  0.2898 -0.2318
16239TIP3    H170208   5.754   2.393  15.397  0.8648 -3.3286  0.9323
16239TIP3    H270209   5.617   2.455  15.401  2.7046  1.6143 -2.7013
16240TIP3   OH270210   3.430   4.971   2.728 -0.0820 -0.4103  0.1911
16240TIP3    H170211   3.435   4.999   2.637 -1.0866 -0.1802  0.1988
16240TIP3    H270212   3.411   4.878   2.723 -0.5891 -0.3053  0.1659
16241TIP3   OH270213   0.660   5.801  14.622 -0.1677 -0.4700 -0.0491
16241TIP3    H170214   0.682   5.865  14.690  3.2180 -0.4883 -0.9188
16241TIP3    H270215   0.605   5.849  14.561  0.3637  0.9287  0.5194
16242TIP3   OH270216   4.211   6.834  13.340  0.4083 -0.2081 -0.1450
16242TIP3    H170217   4.242   6.773  13.408 -1.0054  0.2136  0.9300
16242TIP3    H270218   4.147   6.889  13.385 -0.5531  0.1194 -1.8244
16243TIP3   OH270219   0.049   1.869  12.293 -0.4440 -0.9341 -0.0684
16243TIP3    H170220   0.073   1.897  12.381 -0.0687  1.4082 -0.8507
16243TIP3    H270221  -0.045   1.886  12.287  0.0275  1.9496 -1.0414
16244TIP3   OH270222   6.713   1.124   1.433 -0.7270  0.3000  0.8574
16244TIP3    H170223   6.715   1.193   1.499 -0.4850 -0.1049  1.2753
16244TIP3    H270224   6.691   1.044   1.481 -2.7635  0.3598  0.1329
16245TIP3   OH270225   5.935   3.275  16.150  0.3040 -0.7341  0.0761
16245TIP3    H170226   5.914   3.181  16.149  1.5269 -1.0398 -1.4877
16245TIP3    H270227   5.855   3.317  16.118  0.3615 -1.4348 -1.0617
16246TIP3   OH270228   4.998   5.086   6.096  0.1384 -0.9200  0.1003
16246TIP3    H170229   5.025   5.078   6.188 -1.1746  2.9156  0.9839
16246TIP3    H270230   5.078   5.113   6.050 -0.2899  3.0246  1.3419
16247TIP3   OH270231   4.035   0.175  11.541  0.0088 -0.1979 -0.2099
16247TIP3    H170232   4.027   0.131  11.456  0.5458  0.2205 -0.4835
16247TIP3    H270233   4.126   0.160  11.567  0.0530  0.2990 -0.0641
16248TIP3   OH270234   3.167   0.522  14.711  0.3132 -0.2106  0.0037
16248TIP3    H170235   3.157   0.539  14.617 -0.1358  1.9441  0.3879
16248TIP3    H270236   3.101   0.456  14.731  0.0227 -0.2680 -1.0860
16249TIP3   OH270237   2.132   2.801   4.544 -0.0673  0.5593 -0.2892
16249TIP3    H170238   2.119   2.840   4.630  2.0033 -0.4821  0.5771
16249TIP3    H270239   2.180   2.868   4.495 -1.2875  1.1708 -0.6724
16250TIP3   OH270240   5.099   3.547  11.743  0.1996  0.2244 -0.5237
16250TIP3    H170241   5.191   3.552  11.717  0.4252  0.1110  0.2264
16250TIP3    H270242   5.100   3.562  11.837 -0.3849 -1.4378 -0.2233
16251TIP3   OH270243   6.495   4.778  13.822  0.0573  0.0301  0.6753
16251TIP3    H170244   6.555   4.706  13.844  1.6329  0.9087 -0.4984
16251TIP3    H270245   6.549   4.838  13.770 -1.5736  1.4246  0.5271
16252TIP3   OH270246   5.978   2.382  13.990 -0.0912  0.0293  0.3693
16252TIP3    H170247   5.925   2.361  13.913  1.5300 -0.7055 -0.5958
16252TIP3    H270248   6.044   2.443  13.958  0.9071 -0.6629  1.0425
16253TIP3   OH270249   1.410   1.162   0.678  0.5428  0.4209 -0.1323
16253TIP3    H170250   1.349   1.234   0.695  0.8605  0.2446  2.1692
16253TIP3    H270251   1.358   1.083   0.696  1.0886  0.2349  0.7064
16254TIP3   OH270252   3.434   6.170   0.640 -0.2306  0.4122 -0.0317
16254TIP3    H170253   3.520   6.129   0.647  0.0653  1.2904  2.5362
16254TIP3    H270254   3.390   6.149   0.722 -2.3657  0.2970 -1.1245
16255TIP3   OH270255   1.540   2.942  12.132 -0.5714 -0.2270  0.0446
16255TIP3    H170256   1.507   3.018  12.180  0.7110  0.5425 -0.2314
16255TIP3    H270257   1.464   2.886  12.120 -1.3946  0.6649  0.9203
16256TIP3   OH270258   1.379   5.641   3.195  0.0253  0.3587 -0.0962
16256TIP3    H170259   1.464   5.599   3.181  0.0047  0.1315  0.4639
16256TIP3    H270260   1.394   5.705   3.264 -0.1019  0.8074 -0.4757
16257TIP3   OH270261   0.735   0.882   5.174  0.0312 -0.1931 -0.5092
16257TIP3    H170262   0.748   0.816   5.105  2.1987 -0.0227 -0.3147
16257TIP3    H270263   0.753   0.965   5.132 -0.5151  0.0891 -0.1948
16258TIP3   OH270264   2.688   1.441   1.199  0.6177  0.4502 -0.1298
16258TIP3    H170265   2.662   1.407   1.285 -0.7429 -0.5300 -0.8961
16258TIP3    H270266   2.616   1.497   1.173  1.1852  1.0239 -0.4929
16259TIP3   OH270267   3.720   2.958   6.203 -0.1659 -0.7007 -0.4870
16259TIP3    H170268   3.722   2.869   6.237  0.5781 -0.4210  0.2443
16259TIP3    H270269   3.665   3.005   6.265 -2.4886 -1.1133 -2.1228
16260TIP3   OH270270   6.637   3.716   5.171  0.5453  0.2574  0.3363
16260TIP3    H170271   6.585   3.772   5.228  0.5723  0.0281  0.5934
16260TIP3    H270272   6.580   3.641   5.152  0.5976  0.2518  0.2035
16261TIP3   OH270273   2.176   1.758   2.850 -0.2538 -0.0499  0.0786
16261TIP3    H170274   2.191   1.780   2.758 -0.8137 -0.8766 -0.2320
16261TIP3    H270275   2.110   1.689   2.846  0.1595 -0.5146  1.0734
16262TIP3   OH270276   1.285   1.014   3.967 -0.3989 -0.3298  0.6814
16262TIP3    H170277   1.344   0.950   4.006  0.4483  0.0408  0.0385
16262TIP3    H270278   1.336   1.056   3.898 -0.6931  1.4781  1.4775
16263TIP3   OH270279   5.582   1.197   4.597 -0.5399 -0.3472 -0.0010
16263TIP3    H170280   5.614   1.286   4.613 -3.9192  0.5331  3.1776
16263TIP3    H270281   5.615   1.146   4.670 -2.8199 -0.3618  1.0838
16264TIP3   OH270282   2.466   5.809  12.318  0.4069 -0.2214 -0.2113
16264TIP3    H170283   2.556   5.786  12.292  1.4179  0.6120  2.3047
16264TIP3    H270284   2.434   5.862  12.245  1.4978 -1.4862 -1.7017
16265TIP3   OH270285   0.279   4.559   1.155 -0.3315 -0.0023 -0.0782
16265TIP3    H170286   0.186   4.573   1.171 -0.6570  0.6986 -2.3082
16265TIP3    H270287   0.283   4.482   1.098  0.1524  1.6252 -2.4020
16266TIP3   OH270288   0.588   5.875   2.526 -0.4602 -0.0135 -0.2265
16266TIP3    H170289   0.638   5.793   2.528 -2.3549 -1.2581 -1.2595
16266TIP3    H270290   0.604   5.914   2.611 -0.3894 -2.0312  0.7514
16267TIP3   OH270291   0.092   6.301   5.393 -0.8448  0.1808  0.6505
16267TIP3    H170292   0.060   6.236   5.455 -1.2706 -0.7923 -0.5657
16267TIP3    H270293   0.027   6.302   5.323 -1.6381  2.9726  1.3099
16268TIP3   OH270294   3.979   5.470   1.007  0.1045  0.4329 -0.1017
16268TIP3    H170295   4.023   5.425   1.079  1.0444 -1.7147 -1.9081
16268TIP3    H270296   3.913   5.524   1.050  2.0915  1.0373  2.5052
16269TIP3   OH270297   1.087   2.593  13.590 -0.6717  0.4226  0.3689
16269TIP3    H170298   1.081   2.587  13.495  0.6796  0.8685  0.2379
16269TIP3    H270299   1.091   2.687  13.608 -0.4277  0.3319  0.8250
16270TIP3   OH270300   5.390   4.189   2.730  0.8425 -0.1620  0.3502
16270TIP3    H170301   5.311   4.136   2.724  0.9982 -0.4913  1.0761
16270TIP3    H270302   5.416   4.204   2.639  0.4589 -0.8219  0.1259
16271TIP3   OH270303   3.244   1.372   0.015  0.0290  0.4558 -0.2619
16271TIP3    H170304   3.314   1.433  -0.005 -0.6270  1.7293  1.0746
16271TIP3    H270305   3.218   1.394   0.105 -0.7089 -1.3407  0.0144
16272TIP3   OH270306   0.770   0.529  13.315 -0.5380 -0.5685  0.0796
16272TIP3    H170307   0.865   0.525  13.315 -0.4836 -1.0106 -2.6864
16272TIP3    H270308   0.749   0.623  13.312 -0.0918 -0.4975 -1.6548
16273TIP3   OH270309   2.956   0.825  16.818 -0.1885  0.6372 -0.4651
16273TIP3    H170310   2.971   0.839  16.724  0.4087  1.3790 -0.2725
16273TIP3    H270311   3.029   0.871  16.860  0.1034 -0.5239  0.3272
16274TIP3   OH270312   0.626   3.712   5.063  0.5372 -0.5747  0.1598
16274TIP3    H170313   0.709   3.757   5.046  0.2839  0.0057  0.4179
16274TIP3    H270314   0.565   3.782   5.085  0.2172 -1.0743  0.9306
16275TIP3   OH270315   4.416   5.979  13.299  0.1664  0.4103 -0.0434
16275TIP3    H170316   4.463   6.056  13.269 -2.0543  1.8457 -0.0931
16275TIP3    H270317   4.400   5.928  13.219  1.6949 -0.1667 -0.0014
16276TIP3   OH270318   0.470   0.835  12.173 -0.2061 -0.3754 -0.4436
16276TIP3    H170319   0.492   0.868  12.260 -1.6176 -0.1522 -0.1521
16276TIP3    H270320   0.545   0.779  12.150  0.9505  0.8442  0.1945
16277TIP3   OH270321   3.049   1.968   0.539 -0.7600 -0.0377  0.0906
16277TIP3    H170322   2.998   1.979   0.459 -1.3234 -0.0443  0.4374
16277TIP3    H270323   3.079   2.057   0.560 -1.9923  0.2432  0.7505
16278TIP3   OH270324   3.035   6.030  13.686  0.4605 -0.6709 -0.4822
16278TIP3    H170325   3.068   6.112  13.649  2.6528 -1.3095 -0.1118
16278TIP3    H270326   2.997   5.983  13.612 -0.4520  0.4830 -0.7694
16279TIP3   OH270327   1.706   0.611   0.761 -0.1103 -0.5620 -0.4202
16279TIP3    H170328   1.800   0.632   0.760 -0.3031  0.4587  0.7805
16279TIP3    H270329   1.696   0.545   0.692  1.5526 -0.9865 -0.3072
16280TIP3   OH270330   0.098   5.925   0.939 -0.3800  0.0323  0.2858
16280TIP3    H170331   0.166   5.942   0.873 -0.0722 -1.6438  0.1396
16280TIP3    H270332   0.073   6.012   0.970 -0.2033  0.8409 -1.6990
16281TIP3   OH270333   1.115   2.319   1.935  0.1570  0.1303 -0.3468
16281TIP3    H170334   1.168   2.326   2.015 -0.2545 -2.4903  0.2443
16281TIP3    H270335   1.042   2.379   1.949  2.2909  3.0593 -0.7390
16282TIP3   OH270336   6.075   4.053  11.458  0.1795 -0.1492 -0.0320
16282TIP3    H170337   6.039   4.135  11.424 -0.6480 -0.4480  0.0968
16282TIP3    H270338   6.017   3.985  11.424 -0.3262 -0.5146  1.4617
16283TIP3   OH270339   6.829   4.580  15.925 -0.3433  0.6812  0.3363
16283TIP3    H170340   6.815   4.588  16.020 -0.5865 -0.9887  0.4598
16283TIP3    H270341   6.915   4.619  15.911  0.9867 -1.5570  1.7016
16284TIP3   OH270342   3.104   6.112  11.065  0.8055  0.5580  0.0728
16284TIP3    H170343   3.124   6.191  11.015  2.2055 -1.3575 -2.7014
16284TIP3    H270344   3.173   6.050  11.040 -2.1453 -2.7128 -0.8213
16285TIP3   OH270345   1.619   1.239   0.519 -0.4488 -0.4044  0.2575
16285TIP3    H170346   1.545   1.191   0.557 -0.2751  0.1049  1.2599
16285TIP3    H270347   1.659   1.177   0.458 -0.4544 -1.4090  1.2469
16286TIP3   OH270348   1.798   4.931   3.168  0.1218  0.2116 -0.3209
16286TIP3    H170349   1.713   4.943   3.210  0.1634  2.7612 -0.7974
16286TIP3    H270350   1.859   4.979   3.225  0.9320 -0.1307 -0.8871
16287TIP3   OH270351   2.668   0.420  13.451  0.0141  0.9181 -0.7423
16287TIP3    H170352   2.642   0.466  13.531 -0.2942  0.7218 -0.7257
16287TIP3    H270353   2.763   0.414  13.456 -0.0845 -0.5061  0.4151
16288TIP3   OH270354   4.076   6.176  15.978 -0.4570 -0.0756  0.1616
16288TIP3    H170355   4.055   6.191  15.886 -1.0948  0.0308  0.3208
16288TIP3    H270356   4.051   6.084  15.994  0.2407 -0.2864  0.0698
16289TIP3   OH270357   4.350   0.741   3.076 -0.7240 -0.4698  0.3899
16289TIP3    H170358   4.419   0.775   3.133 -0.5185 -0.8639  0.3771
16289TIP3    H270359   4.381   0.654   3.050 -0.6953 -0.1914 -0.5386
16290TIP3   OH270360   6.343   2.326  12.758 -0.2816  0.1481 -0.0807
16290TIP3    H170361   6.274   2.386  12.786  0.1858  0.8421 -0.3698
16290TIP3    H270362   6.423   2.379  12.760  0.3166 -0.7447  0.6318
16291TIP3   OH270363   1.368   6.542  11.338 -0.1305 -0.4067 -0.0081
16291TIP3    H170364   1.437   6.594  11.379 -0.6085  0.4143 -0.2218
16291TIP3    H270365   1.404   6.516  11.253 -0.9929  2.2808 -1.3165
16292TIP3   OH270366   5.998   6.101   5.094  0.0883  0.0361 -0.4093
16292TIP3    H170367   5.956   6.176   5.136 -0.2868 -0.3313 -0.1152
16292TIP3    H270368   5.993   6.031   5.160 -1.0000 -0.7162 -1.2602
16293TIP3   OH270369   2.542   0.667   4.029 -0.6377 -0.1180 -0.3249
16293TIP3    H170370   2.565   0.582   3.992  0.8662 -0.0840  0.4572
16293TIP3    H270371   2.581   0.731   3.969  0.5221 -0.0486  0.4529
16294TIP3   OH270372   6.834   4.985   0.269  0.4898  0.0010 -0.4985
16294TIP3    H170373   6.904   5.050   0.260  1.0139 -0.7541 -2.3015
16294TIP3    H270374   6.761   5.021   0.219 -0.7609  1.1187  1.9428
16295TIP3   OH270375   4.162   2.430   0.295  0.2053  0.1728 -0.1362
16295TIP3    H170376   4.131   2.435   0.385 -1.7272 -3.0067 -0.4693
16295TIP3    H270377   4.085   2.450   0.242  0.8880  0.3392 -1.1005
16296TIP3   OH270378   5.541   1.538   4.353  0.4907  0.0649  0.3610
16296TIP3    H170379   5.536   1.621   4.401 -2.8240 -0.9168  2.0728
16296TIP3    H270380   5.486   1.552   4.276  0.4406 -0.3558  0.3205
16297TIP3   OH270381   0.924   4.443  15.739  0.2772 -0.4898 -0.4030
16297TIP3    H170382   0.894   4.389  15.665 -1.2966 -0.4506  0.1673
16297TIP3    H270383   0.914   4.533  15.707 -0.7518 -0.4623 -0.0436
16298TIP3   OH270384   3.960   5.199  12.233  0.7164  0.5921  0.1259
16298TIP3    H170385   3.962   5.294  12.221 -0.3275  0.8014  1.3096
16298TIP3    H270386   3.874   5.182  12.272  0.7714 -0.8823 -0.3433
16299TIP3   OH270387   6.406   6.146  13.022 -0.2688  1.0033  0.3603
16299TIP3    H170388   6.375   6.057  13.039  0.1550  1.0310  1.3488
16299TIP3    H270389   6.378   6.165  12.933 -1.7150  0.4416  0.6615
16300TIP3   OH270390   5.761   6.264  14.344 -0.0824 -0.1171  0.1727
16300TIP3    H170391   5.845   6.226  14.370  0.5617  0.9377 -0.3085
16300TIP3    H270392   5.726   6.303  14.424 -0.0848 -0.4788  0.3532
16301TIP3   OH270393   2.202   1.372  14.918  0.2960 -0.0737  0.0055
16301TIP3    H170394   2.235   1.306  14.979 -0.7386 -1.0748 -0.4762
16301TIP3    H270395   2.272   1.382  14.854  1.2235  0.6918  1.1085
16302TIP3   OH270396   0.250   6.420  10.473 -0.5399  0.3489  0.1653
16302TIP3    H170397   0.205   6.404  10.390  1.1586 -0.7600 -0.6094
16302TIP3    H270398   0.186   6.398  10.540 -0.5961 -3.3912 -0.8827
16303TIP3   OH270399   0.511   0.691   2.657 -0.0306 -0.0418 -0.0068
16303TIP3    H170400   0.571   0.747   2.608 -0.2553  0.5452  0.3751
16303TIP3    H270401   0.464   0.642   2.590 -0.1192  0.5327 -0.3764
16304TIP3   OH270402   4.640   2.917   2.803 -0.3461  0.2725  0.0901
16304TIP3    H170403   4.718   2.872   2.837  0.6305  1.4307 -0.5806
16304TIP3    H270404   4.666   2.950   2.718 -1.1824  1.7204  0.3640
16305TIP3   OH270405   3.051   2.066  14.472  0.1244  0.6167 -0.1148
16305TIP3    H170406   3.059   2.058  14.377 -0.3902  1.0288 -0.2009
16305TIP3    H270407   2.979   2.128  14.485  0.5426  0.9808  0.5391
16306TIP3   OH270408   6.536   2.830  11.148  0.0888  0.3810 -0.2516
16306TIP3    H170409   6.491   2.884  11.213 -0.7933 -0.1853 -0.3792
16306TIP3    H270410   6.574   2.893  11.087 -0.1639  0.8846  0.1055
16307TIP3   OH270411   5.073   1.355   0.294 -0.4451 -0.7216  0.0651
16307TIP3    H170412   5.114   1.440   0.315  1.5874 -1.4431 -0.7083
16307TIP3    H270413   5.059   1.314   0.379 -2.2528  0.6947  0.5092
16308TIP3   OH270414   6.163   4.300   1.958 -0.6223 -0.4337 -0.5142
16308TIP3    H170415   6.192   4.284   2.049 -1.0014 -0.6433 -0.4290
16308TIP3    H270416   6.093   4.364   1.966  0.7740  1.1946 -0.8476
16309TIP3   OH270417   3.013   2.598  14.621 -0.2249  0.6554 -0.5064
16309TIP3    H170418   2.982   2.578  14.709 -1.3972  2.4963 -0.4395
16309TIP3    H270419   3.016   2.514  14.576  0.2640 -0.2964  1.2331
16310TIP3   OH270420   1.797   5.981   1.432 -0.2591 -0.1757 -0.0471
16310TIP3    H170421   1.879   6.008   1.391 -1.5589  0.6561 -2.3238
16310TIP3    H270422   1.767   6.058   1.480  0.8612 -0.8932  1.9188
16311TIP3   OH270423   1.768   1.609   4.961  0.0289 -0.0249  0.6418
16311TIP3    H170424   1.797   1.573   5.045  1.1569 -1.1759 -0.2140
16311TIP3    H270425   1.735   1.533   4.913  0.1241  0.4975 -0.2623
16312TIP3   OH270426   3.823   6.442  13.550  0.1985 -0.2789 -0.6121
16312TIP3    H170427   3.864   6.363  13.515 -1.4919 -2.0780  1.2001
16312TIP3    H270428   3.842   6.441  13.643 -1.5360  0.3193 -0.2008
16313TIP3   OH270429   2.336   0.850   0.686  0.4661  0.2176 -0.5015
16313TIP3    H170430   2.291   0.928   0.654  1.3745  0.4381 -1.3101
16313TIP3    H270431   2.369   0.808   0.606  0.1492 -0.9010 -0.0647
16314TIP3   OH270432   2.819   5.711   1.867  0.6229 -0.0257  0.2103
16314TIP3    H170433   2.750   5.645   1.863  1.7709 -1.1912 -1.1545
16314TIP3    H270434   2.848   5.710   1.958 -0.5081 -0.1737  0.5867
16315TIP3   OH270435   3.263   5.047   6.194  0.2526 -0.5440 -0.5506
16315TIP3    H170436   3.308   4.964   6.181  0.4571 -0.4205 -0.6392
16315TIP3    H270437   3.333   5.113   6.192 -0.0704 -0.2188 -2.0908
16316TIP3   OH270438   4.740   6.434   2.174  0.4918 -0.4400 -0.3193
16316TIP3    H170439   4.812   6.417   2.235 -0.9540 -0.7966  1.3598
16316TIP3    H270440   4.727   6.351   2.128  1.2261 -0.3264 -0.7482
16317TIP3   OH270441   0.613   3.499   0.242 -0.5696 -0.7091 -0.0528
16317TIP3    H170442   0.526   3.513   0.205 -0.5316 -1.8398 -0.6111
16317TIP3    H270443   0.654   3.585   0.239 -1.3093 -0.3616 -0.7428
16318TIP3   OH270444   5.695   0.007   0.892 -0.2122  0.0882  0.0587
16318TIP3    H170445   5.764  -0.054   0.862 -0.5270 -0.2696  0.0584
16318TIP3    H270446   5.727   0.040   0.975 -0.9509 -1.6298  1.0826
16319TIP3   OH270447   1.184   3.833  16.758  0.1065 -0.1268 -0.1384
16319TIP3    H170448   1.126   3.889  16.707  1.0393 -0.3020 -1.4380
16319TIP3    H270449   1.270   3.875  16.751  0.2311 -0.0048  1.5500
16320TIP3   OH270450   4.753   3.133  13.474  0.0829 -0.0737  0.0939
16320TIP3    H170451   4.742   3.042  13.501  0.4146 -0.5311 -1.2276
16320TIP3    H270452   4.836   3.133  13.426 -0.7333  0.5473 -1.3909
16321TIP3   OH270453   6.315   2.717  12.984 -0.0095 -0.1165  0.3359
16321TIP3    H170454   6.310   2.778  13.058  0.6610  0.1508  0.1754
16321TIP3    H270455   6.281   2.766  12.910  1.5299  0.4819 -0.0266
16322TIP3   OH270456   0.629   2.823  15.859  0.1225 -0.3169  0.1926
16322TIP3    H170457   0.559   2.757  15.864 -0.2909  0.1783  1.3462
16322TIP3    H270458   0.673   2.817  15.943 -1.0773  2.0969  1.0931
16323TIP3   OH270459   0.996   1.883   2.606  0.4355  0.7701 -0.5964
16323TIP3    H170460   0.971   1.855   2.518 -0.2034 -0.7055  0.0224
16323TIP3    H270461   0.944   1.961   2.622 -1.7996 -0.6609 -0.4097
16324TIP3   OH270462   0.904   2.543   3.027  0.0388  0.0481 -0.0681
16324TIP3    H170463   0.944   2.468   2.983 -0.7638 -1.9343  2.3997
16324TIP3    H270464   0.942   2.619   2.982  0.3745 -1.7434 -3.1406
16325TIP3   OH270465   3.464   0.974   6.178 -0.0676 -0.3076  0.1128
16325TIP3    H170466   3.511   0.905   6.132 -0.2290 -0.2857 -0.0819
16325TIP3    H270467   3.528   1.009   6.240  0.4885  0.3883 -0.8316
16326TIP3   OH270468   3.411   5.221   0.576 -0.0852  0.7408  0.0329
16326TIP3    H170469   3.505   5.203   0.575  1.0694  5.4382  1.2642
16326TIP3    H270470   3.387   5.232   0.484  0.1558 -1.7042 -0.3864
16327TIP3   OH270471   6.419   3.106  15.013  0.4814 -0.1319  0.0673
16327TIP3    H170472   6.382   3.035  14.960 -1.5750 -0.5084  1.8607
16327TIP3    H270473   6.348   3.170  15.018  1.4906  0.9786  0.3930
16328TIP3   OH270474   2.632   0.303   6.091  0.0681  0.0708  0.6909
16328TIP3    H170475   2.722   0.332   6.079  0.0561  0.0423  0.5175
16328TIP3    H270476   2.592   0.367   6.149  0.4624 -0.4296  1.5254
16329TIP3   OH270477   1.759   0.980   3.052 -0.0632 -0.0990  0.0285
16329TIP3    H170478   1.820   1.013   3.119 -0.4818 -2.4298  1.6629
16329TIP3    H270479   1.765   0.885   3.058 -0.1855 -0.4388 -3.2754
16330TIP3   OH270480   2.548   1.611  13.972  0.1143 -0.2093 -0.1164
16330TIP3    H170481   2.594   1.531  13.999  0.0647 -0.8203 -1.6938
16330TIP3    H270482   2.570   1.620  13.879 -0.7783  1.0084 -0.2317
16331TIP3   OH270483   2.802   1.222   4.209  0.2077 -0.1028 -0.0427
16331TIP3    H170484   2.810   1.136   4.169  0.0244 -0.2095  0.1498
16331TIP3    H270485   2.798   1.282   4.135  1.0110 -0.1942 -0.1700
16332TIP3   OH270486   3.635   0.826  12.359  0.2230 -0.1794  0.1187
16332TIP3    H170487   3.574   0.809  12.287 -1.9244 -0.8838  2.0025
16332TIP3    H270488   3.579   0.842  12.435  2.3944  1.3261  1.5034
16333TIP3   OH270489   3.911   4.376  16.643  0.3941  0.4171  0.7276
16333TIP3    H170490   3.849   4.370  16.716 -0.9519  0.6230 -0.3667
16333TIP3    H270491   3.956   4.291  16.643 -1.9265 -0.9006 -0.1987
16334TIP3   OH270492   1.055   1.608  12.232 -0.4672  0.3874  0.2135
16334TIP3    H170493   1.080   1.536  12.174  0.9192  0.0312  1.1990
16334TIP3    H270494   1.010   1.566  12.304 -2.8734  0.9033 -0.8935
16335TIP3   OH270495   1.999   6.485  10.821 -0.8475  0.5310  0.5873
16335TIP3    H170496   2.004   6.441  10.736  1.1782  1.2864  0.2659
16335TIP3    H270497   1.975   6.575  10.800 -1.0232  0.5568  0.8850
16336TIP3   OH270498   6.544   5.641  10.494 -0.0432 -0.2909  0.2859
16336TIP3    H170499   6.575   5.728  10.468 -1.0916 -0.5327 -2.0422
16336TIP3    H270500   6.600   5.617  10.567  0.7932  2.0091  0.4987
16337TIP3   OH270501   6.736   5.900  15.118 -0.1256 -0.3902  0.3216
16337TIP3    H170502   6.702   5.989  15.111 -0.0277 -0.3551  0.2934
16337TIP3    H270503   6.753   5.889  15.212  2.5398  0.6250  0.0426
16338TIP3   OH270504   4.280   0.228  13.597 -0.3175  0.4992 -0.2661
16338TIP3    H170505   4.369   0.204  13.622 -0.0765  0.8857 -0.7362
16338TIP3    H270506   4.282   0.324  13.591 -1.1311  0.6288  1.1173
16339TIP3   OH270507   1.566   2.826  14.205  0.0826  0.3253  0.6182
16339TIP3    H170508   1.530   2.912  14.180  1.1994  0.5625 -0.2545
16339TIP3    H270509   1.660   2.842  14.217  0.8923 -1.3123 -2.5309
16340TIP3   OH270510   6.039   2.764  13.361 -0.5289  0.0597 -0.5434
16340TIP3    H170511   5.994   2.696  13.310  0.4421 -0.8156 -0.2904
16340TIP3    H270512   6.025   2.738  13.452  1.2682 -0.8193 -0.4647
16341TIP3   OH270513   4.794   1.956  13.963  0.3882  0.1059 -0.0006
16341TIP3    H170514   4.756   1.892  13.903  0.8771 -0.4625  0.2841
16341TIP3    H270515   4.832   2.024  13.906 -1.3619  0.8951 -0.2850
16342TIP3   OH270516   5.309   0.609   1.866  0.5382 -0.2006  0.2511
16342TIP3    H170517   5.256   0.676   1.909 -0.1363 -1.0548  0.7880
16342TIP3    H270518   5.273   0.602   1.778 -0.4750 -0.9871  0.7042
16343TIP3   OH270519   0.128   3.215   3.038  0.6271  0.0499  0.0316
16343TIP3    H170520   0.160   3.189   2.952 -1.0648  0.5280 -0.7889
16343TIP3    H270521   0.091   3.302   3.024  1.1147  0.5221  1.4621
16344TIP3   OH270522   0.920   1.176   3.703 -0.3368 -0.6240 -0.1072
16344TIP3    H170523   0.969   1.131   3.633 -1.9224 -1.6445 -0.6260
16344TIP3    H270524   0.924   1.269   3.679  1.7726 -0.5954  0.1837
16345TIP3   OH270525   6.768   1.959   5.587 -0.1090  0.3513 -0.4362
16345TIP3    H170526   6.726   2.020   5.646 -0.8075  0.1204 -0.6828
16345TIP3    H270527   6.698   1.930   5.528  0.3803 -0.0832 -0.8192
16346TIP3   OH270528   1.219   4.325   2.642  0.0971  0.2779 -0.1160
16346TIP3    H170529   1.134   4.369   2.638 -0.7980 -1.4850 -3.0817
16346TIP3    H270530   1.204   4.249   2.699 -0.6986 -0.6656 -1.5361
16347TIP3   OH270531   3.962   1.434   0.874 -0.8723 -0.1201  0.4678
16347TIP3    H170532   3.907   1.511   0.859 -2.2382 -1.3281 -1.1896
16347TIP3    H270533   3.988   1.407   0.786  1.0757 -0.5614  1.1239
16348TIP3   OH270534   3.455   5.215  13.778  0.7756 -0.1816  0.4288
16348TIP3    H170535   3.547   5.199  13.758  0.6440 -0.5456  0.0978
16348TIP3    H270536   3.418   5.250  13.697  0.4976 -0.5697  0.3829
16349TIP3   OH270537   6.450   5.445  11.574  0.2375 -0.0053  0.4902
16349TIP3    H170538   6.534   5.419  11.612  1.1507  1.0011 -0.7063
16349TIP3    H270539   6.472   5.519  11.516 -0.9344 -1.6483 -2.2737
16350TIP3   OH270540   5.637   2.081   0.526 -0.0277 -0.3136 -0.0241
16350TIP3    H170541   5.557   2.029   0.520  0.4754 -1.2302  0.9388
16350TIP3    H270542   5.700   2.035   0.472  0.2681 -0.4192  0.4075
16351TIP3   OH270543   5.594   2.107  10.932  0.1397 -0.0315 -0.1832
16351TIP3    H170544   5.619   2.194  10.901  0.7573 -0.0511  0.2530
16351TIP3    H270545   5.609   2.110  11.026 -1.5508 -0.0280  0.1149
16352TIP3   OH270546   4.147   4.833  14.569 -0.3243  0.5805  0.0461
16352TIP3    H170547   4.181   4.890  14.639 -0.5048  0.0070  0.6073
16352TIP3    H270548   4.221   4.824  14.509  0.1202  0.3805  0.6034
16353TIP3   OH270549   0.854   3.861  13.916  0.0446 -0.1239 -0.0496
16353TIP3    H170550   0.803   3.787  13.949  2.2517 -1.0860  1.3659
16353TIP3    H270551   0.807   3.938  13.949 -2.3061 -0.7723 -1.5750
16354TIP3   OH270552   5.240   6.464  11.900  0.1395 -0.0959  0.2286
16354TIP3    H170553   5.179   6.502  11.837 -0.4148  0.0028  0.8068
16354TIP3    H270554   5.319   6.445  11.850  0.0829  0.9276 -0.2745
16355TIP3   OH270555   5.261   1.568   0.682  0.6024  0.5334  0.1693
16355TIP3    H170556   5.167   1.587   0.688  0.3335 -0.0743 -1.5074
16355TIP3    H270557   5.272   1.486   0.730  0.1176  0.2026 -0.2675
16356TIP3   OH270558   6.812   3.791   4.054 -0.1569 -0.4225 -0.0410
16356TIP3    H170559   6.853   3.748   3.978  1.5656  0.5333  0.2867
16356TIP3    H270560   6.808   3.884   4.029  0.4199 -0.1006  1.0229
16357TIP3   OH270561   0.311   6.822   3.037 -0.3307  0.5576  0.5650
16357TIP3    H170562   0.315   6.737   2.993  0.1334  2.2406 -3.0008
16357TIP3    H270563   0.376   6.816   3.107  1.4627 -1.2825 -1.1183
16358TIP3   OH270564   1.747   6.578   4.421 -0.1857 -0.2786  0.2024
16358TIP3    H170565   1.651   6.578   4.417 -0.1395 -0.2551 -1.9732
16358TIP3    H270566   1.773   6.521   4.349  1.4571 -0.1027  0.6341
16359TIP3   OH270567   3.734   1.832  12.722 -0.3367  0.6428  0.3873
16359TIP3    H170568   3.722   1.801  12.812  0.1016  2.5764  1.1825
16359TIP3    H270569   3.774   1.918  12.733  0.5422  0.5459 -1.7105
16360TIP3   OH270570   0.957   1.418   3.158 -0.1465  0.5185 -0.0294
16360TIP3    H170571   0.936   1.430   3.066 -0.3878  1.7011  0.1597
16360TIP3    H270572   0.986   1.504   3.187 -0.4522  0.2590  1.0936
16361TIP3   OH270573   3.934   2.772   3.831 -1.0512  0.2247  0.3369
16361TIP3    H170574   3.866   2.837   3.851 -0.4382  0.4328  1.8538
16361TIP3    H270575   3.907   2.693   3.877 -0.0298  0.4576  1.3618
16362TIP3   OH270576   5.058   1.422   2.931  0.0404  0.2266 -0.0692
16362TIP3    H170577   5.112   1.343   2.926  0.1717  0.3874 -1.7764
16362TIP3    H270578   5.091   1.478   2.861 -1.6531  0.7610 -0.4832
16363TIP3   OH270579   2.878   0.380   2.497  0.4361  0.7358  0.0748
16363TIP3    H170580   2.800   0.434   2.481  0.6099  1.7309  2.3008
16363TIP3    H270581   2.854   0.294   2.462 -1.8386  0.9060  1.0253
16364TIP3   OH270582   0.080   5.770   4.095  0.3413  0.6041  0.8857
16364TIP3    H170583   0.031   5.838   4.049 -0.4185 -1.0208 -0.8570
16364TIP3    H270584   0.120   5.815   4.170 -1.7808  2.5183  0.9718
16365TIP3   OH270585   2.773   5.736   1.051 -0.4040  0.2742  0.1312
16365TIP3    H170586   2.813   5.683   1.121 -2.5068 -0.8684  0.5451
16365TIP3    H270587   2.679   5.724   1.063 -0.8710  1.9318 -1.5048
16366TIP3   OH270588   1.302   6.584  13.988  0.2744  0.0101 -0.2247
16366TIP3    H170589   1.253   6.632  13.921 -1.4776 -1.0534  0.2061
16366TIP3    H270590   1.335   6.651  14.047 -0.0025  0.8192 -0.9650
16367TIP3   OH270591   1.887   2.109  16.430  0.5995  0.0653 -0.4729
16367TIP3    H170592   1.881   2.115  16.335  0.9833 -0.2751 -0.5233
16367TIP3    H270593   1.973   2.147  16.451  0.2673  0.6907 -0.2030
16368TIP3   OH270594   5.852   6.315  10.492 -0.4331  0.3991  0.5431
16368TIP3    H170595   5.848   6.294  10.399 -0.4570 -0.5123  0.7359
16368TIP3    H270596   5.933   6.274  10.523 -0.4001  0.7375  0.9148
16369TIP3   OH270597   1.942   5.147   1.877  0.1917 -0.6002  0.2842
16369TIP3    H170598   1.868   5.087   1.873 -0.6650  0.4920 -1.8085
16369TIP3    H270599   1.915   5.215   1.938 -1.2740  0.6126 -1.6026
16370TIP3   OH270600   0.281   5.427   5.303  0.2088 -0.1178 -0.3991
16370TIP3    H170601   0.288   5.421   5.208 -0.2626 -0.7927 -0.4007
16370TIP3    H270602   0.303   5.338   5.334 -0.7501 -0.2104  0.0487
16371TIP3   OH270603   0.322   0.296  13.345  0.7918  0.4062 -0.1044
16371TIP3    H170604   0.231   0.268  13.339  1.0503 -0.9011  1.4380
16371TIP3    H270605   0.349   0.307  13.254 -1.1341  1.7213 -0.5774
16372TIP3   OH270606   3.984   1.319   3.045  0.4150  0.0028 -0.0741
16372TIP3    H170607   4.054   1.256   3.064  0.1738 -0.0945  0.5061
16372TIP3    H270608   3.923   1.271   2.989  0.3035 -0.2328  0.2512
16373TIP3   OH270609   3.516   6.048  17.040  0.0625  0.1094  0.5192
16373TIP3    H170610   3.477   5.971  17.000 -1.8485  0.3584  1.7757
16373TIP3    H270611   3.604   6.054  17.001 -0.9458 -0.7471 -2.0875
16374TIP3   OH270612   1.830   2.726   6.183  0.2256  0.2888 -0.2020
16374TIP3    H170613   1.899   2.792   6.178  0.9439 -0.3568  0.8552
16374TIP3    H270614   1.805   2.724   6.275 -0.8049  0.0945 -0.4780
16375TIP3   OH270615   3.063   3.327   4.357 -0.0198 -0.0038 -0.0211
16375TIP3    H170616   3.107   3.404   4.394  1.8049 -0.0342 -1.8962
16375TIP3    H270617   3.079   3.257   4.420  1.8735  0.2286 -0.1933
16376TIP3   OH270618   1.533   0.899  16.717  0.7431 -0.2273  0.7789
16376TIP3    H170619   1.514   0.978  16.666  1.0186 -0.7139 -0.1000
16376TIP3    H270620   1.559   0.932  16.803 -1.2151  0.5720  1.1198
16377TIP3   OH270621   0.150   3.434   2.495  0.4260 -0.2127  0.3215
16377TIP3    H170622   0.233   3.425   2.542 -0.3142 -1.4329  1.4819
16377TIP3    H270623   0.086   3.390   2.551 -0.9234  0.2812 -0.7728
16378TIP3   OH270624   6.462   4.738  14.472  0.5336 -0.5450 -0.4176
16378TIP3    H170625   6.405   4.813  14.454  0.7098 -0.3090  0.0114
16378TIP3    H270626   6.403   4.670  14.504  0.2391 -0.9013 -1.6454
16379TIP3   OH270627   4.339   4.698  11.885 -0.3323 -0.6652 -0.0078
16379TIP3    H170628   4.415   4.747  11.916 -2.1040  2.4731 -0.2273
16379TIP3    H270629   4.268   4.727  11.941 -1.6100 -2.8969 -0.3387
16380TIP3   OH270630   4.548   1.235  12.347  0.1383  0.2407  0.4285
16380TIP3    H170631   4.477   1.188  12.391  2.0095 -1.2274  2.1039
16380TIP3    H270632   4.559   1.315  12.398  0.3800 -0.0370  0.8111
16381TIP3   OH270633   6.011   2.868   6.332 -0.3959 -0.0268  0.0697
16381TIP3    H170634   6.087   2.873   6.275  0.8376  2.0932  1.7445
16381TIP3    H270635   6.048   2.866   6.421 -2.2729  0.7247  0.9170
16382TIP3   OH270636   0.059   0.138   4.602  0.0953  0.2484 -0.0531
16382TIP3    H170637  -0.010   0.192   4.563  0.3893  0.8586  0.2663
16382TIP3    H270638   0.071   0.066   4.539 -0.9471  0.0357 -0.0271
16383TIP3   OH270639   5.145   1.087  10.732  0.2230  0.1616 -1.0196
16383TIP3    H170640   5.128   1.120  10.644  0.1718 -0.1998 -1.1477
16383TIP3    H270641   5.148   0.992  10.721  0.7852  0.1409 -0.7315
16384TIP3   OH270642   3.615   6.757  15.752  0.6499  0.0708  0.1779
16384TIP3    H170643   3.578   6.812  15.821  0.1627  0.9033 -0.7047
16384TIP3    H270644   3.709   6.774  15.755  0.3663  2.2997 -1.1176
16385TIP3   OH270645   4.304   1.918   0.160 -0.7656  0.2295 -0.3063
16385TIP3    H170646   4.299   1.827   0.189 -1.1582  0.8947  1.9814
16385TIP3    H270647   4.304   1.914   0.065 -1.8261 -2.1168 -0.2717
16386TIP3   OH270648   1.915   4.036   2.563  0.5146 -0.6015  0.2926
16386TIP3    H170649   1.916   3.949   2.602  0.0917 -0.8861 -0.3017
16386TIP3    H270650   1.961   4.026   2.479  0.8913 -0.1409  0.4377
16387TIP3   OH270651   6.488   2.566  11.650  0.2586 -0.0396 -0.2265
16387TIP3    H170652   6.523   2.498  11.708  1.3545 -0.4284 -1.2917
16387TIP3    H270653   6.502   2.531  11.562 -1.7070  0.3657 -0.7500
16388TIP3   OH270654   0.107   5.840   0.100 -0.0652  0.3325  0.1937
16388TIP3    H170655   0.142   5.879   0.020  2.3622 -2.3864 -0.2543
16388TIP3    H270656   0.055   5.765   0.069 -0.6414  0.3268  1.1255
16389TIP3   OH270657   6.282   0.898   3.826 -0.2786 -0.2108 -0.3113
16389TIP3    H170658   6.254   0.828   3.885 -0.8918  0.2258 -0.0725
16389TIP3    H270659   6.290   0.856   3.740 -0.0720 -0.6962 -0.0547
16390TIP3   OH270660   4.436   0.071  11.817  0.6047  0.1249  0.1128
16390TIP3    H170661   4.426   0.096  11.909 -2.4122 -0.3474  0.0138
16390TIP3    H270662   4.450  -0.024  11.820  1.8962  0.2995  0.1006
16391TIP3   OH270663   4.280   0.636  14.396 -0.2351  0.0707  0.1205
16391TIP3    H170664   4.329   0.575  14.341 -1.3857 -1.0774  0.3104
16391TIP3    H270665   4.188   0.614  14.381 -0.6242  0.5729  1.5292
16392TIP3   OH270666   3.585   0.811   0.651 -0.6524  0.4376 -0.1886
16392TIP3    H170667   3.558   0.795   0.741 -1.7921 -2.1164 -0.8993
16392TIP3    H270668   3.614   0.726   0.619  0.7915  1.5190 -1.9250
16393TIP3   OH270669   0.026   5.467   3.467 -0.5298 -0.0915  0.7667
16393TIP3    H170670   0.076   5.502   3.394 -0.4993 -1.3520  0.1484
16393TIP3    H270671   0.036   5.531   3.537 -0.9029  1.3412 -0.4594
16394TIP3   OH270672   0.411   0.226   2.479  0.5081 -0.0928 -0.5487
16394TIP3    H170673   0.360   0.157   2.519 -0.2450  0.0776 -1.1853
16394TIP3    H270674   0.499   0.190   2.470  0.3906 -0.5537  0.1429
16395TIP3   OH270675   1.764   5.547   2.885 -0.4607 -0.5416  0.1187
16395TIP3    H170676   1.671   5.530   2.866 -0.6172  0.6073 -0.1890
16395TIP3    H270677   1.791   5.611   2.819  0.8633 -1.6765 -0.4917
16396TIP3   OH270678   0.465   3.111   5.939 -0.5254  0.6744  0.5566
16396TIP3    H170679   0.436   3.180   5.998 -1.1963  1.6501 -0.8786
16396TIP3    H270680   0.557   3.096   5.963 -0.2266  2.4042  0.5856
16397TIP3   OH270681   2.549   3.417   2.052 -0.9095 -0.1551  0.0777
16397TIP3    H170682   2.524   3.509   2.062 -0.3548  0.3008 -2.1009
16397TIP3    H270683   2.490   3.369   2.110 -3.6476  1.2867 -1.3129
16398TIP3   OH270684   1.637   5.975   5.992  0.1754 -0.2803  0.5378
16398TIP3    H170685   1.555   5.974   6.041  0.1006 -0.2777  0.4132
16398TIP3    H270686   1.703   5.945   6.055  0.2814  0.8351  0.9982
16399TIP3   OH270687   1.367   6.330   5.211 -0.8896 -1.1278  0.4231
16399TIP3    H170688   1.369   6.391   5.285  2.4441 -2.3657  1.5246
16399TIP3    H270689   1.409   6.377   5.139  1.1151 -1.7827  1.0937
16400TIP3   OH270690   4.860   2.948   3.919 -0.4336 -0.0206 -0.0033
16400TIP3    H170691   4.874   2.857   3.945 -1.4220 -0.1681  0.0542
16400TIP3    H270692   4.938   2.971   3.868  0.3754 -0.5118  0.9786
16401TIP3   OH270693   4.069   4.130  15.943 -0.4142  0.0161 -0.4183
16401TIP3    H170694   4.155   4.140  15.982 -1.2403  0.8761  1.3140
16401TIP3    H270695   4.083   4.075  15.866  1.6833  0.2989 -0.2827
16402TIP3   OH270696   2.386   5.980   5.027 -0.1615  0.1705  0.4291
16402TIP3    H170697   2.424   5.954   5.111 -0.8849  3.2115  1.8055
16402TIP3    H270698   2.296   6.004   5.047 -0.7613 -0.2120 -1.5044
16403TIP3   OH270699   1.873   5.481  13.427  0.0835 -0.0660 -0.5813
16403TIP3    H170700   1.954   5.519  13.394  1.2611 -1.9967 -0.0631
16403TIP3    H270701   1.900   5.401  13.473 -1.7095  0.9747  2.6474
16404TIP3   OH270702   6.646   5.655  13.980  0.0867 -0.2557  0.1008
16404TIP3    H170703   6.565   5.675  14.028  0.7876 -0.6313  1.4856
16404TIP3    H270704   6.641   5.710  13.901 -0.9208  0.6822  0.7820
16405TIP3   OH270705   3.198   6.404   1.682 -0.6067  0.6759 -0.0519
16405TIP3    H170706   3.268   6.468   1.672  0.3820 -0.0827  1.5576
16405TIP3    H270707   3.231   6.326   1.638 -0.1412  0.1392  1.1910
16406TIP3   OH270708   4.891   3.410  11.247  0.3031  0.2430 -0.3723
16406TIP3    H170709   4.850   3.324  11.259  1.3600 -0.0357  1.9990
16406TIP3    H270710   4.819   3.472  11.246 -0.3418 -0.3938  1.8019
16407TIP3   OH270711   3.689   5.965   0.696  0.3218 -0.5347 -0.0141
16407TIP3    H170712   3.693   5.880   0.653  0.5565 -0.3932 -0.2738
16407TIP3    H270713   3.762   6.014   0.659 -0.1836 -0.0061 -0.3317
16408TIP3   OH270714   1.909   3.597  12.231  0.2115 -1.0690  0.2691
16408TIP3    H170715   1.927   3.550  12.150  0.3518 -0.9414  0.2278
16408TIP3    H270716   1.992   3.596  12.279  0.0146 -1.5293  0.6090
16409TIP3   OH270717   0.979   5.300   1.971  0.0979 -0.5209  0.5290
16409TIP3    H170718   0.905   5.360   1.957  1.0525  0.3927 -0.7727
16409TIP3    H270719   1.055   5.357   1.976  1.1233 -1.6324 -1.3765
16410TIP3   OH270720   0.749   3.948  13.414  0.4581  0.3433  0.0869
16410TIP3    H170721   0.804   3.982  13.343 -0.6504  1.7086 -0.1599
16410TIP3    H270722   0.738   4.022  13.473 -0.6762 -0.0642  0.3997
16411TIP3   OH270723   4.444   3.347  15.988  0.0877  0.6603  0.3729
16411TIP3    H170724   4.400   3.301  15.916  0.9595 -0.0240  0.2648
16411TIP3    H270725   4.503   3.282  16.025  2.5799  2.1076 -0.8073
16412TIP3   OH270726   3.499   1.301  11.354  0.3828 -0.0172  0.1804
16412TIP3    H170727   3.528   1.385  11.391  0.0828  0.1966 -0.0657
16412TIP3    H270728   3.458   1.325  11.271 -0.1752 -0.3543  0.3562
16413TIP3   OH270729   6.224   2.539   4.575 -0.0907  0.2531 -0.0002
16413TIP3    H170730   6.269   2.481   4.513  0.8377 -0.4226  1.2562
16413TIP3    H270731   6.293   2.572   4.632 -0.5429  2.8728 -0.8260
16414TIP3   OH270732   5.049   4.896   4.017  0.3143  0.1731 -0.2737
16414TIP3    H170733   4.983   4.882   3.949  0.5795 -1.5713 -0.2170
16414TIP3    H270734   5.078   4.986   4.005  0.0661  0.0195 -2.2043
16415TIP3   OH270735   2.804   1.575   0.905 -0.0124 -0.6558 -0.8070
16415TIP3    H170736   2.853   1.537   0.833 -0.0844 -0.5560 -0.9092
16415TIP3    H270737   2.715   1.539   0.895 -0.8663  1.6592 -2.5695
16416TIP3   OH270738   3.488   5.704  11.677  0.2711  0.1210  0.4499
16416TIP3    H170739   3.393   5.711  11.675  0.2663  0.1056  0.5924
16416TIP3    H270740   3.516   5.773  11.738  0.3235 -0.1227  0.7040
16417TIP3   OH270741   6.333   2.463   3.114  0.1174 -0.3637 -0.4094
16417TIP3    H170742   6.329   2.468   3.018  0.6049 -0.7909 -0.4548
16417TIP3    H270743   6.241   2.459   3.141 -0.0657  0.6805 -0.7969
16418TIP3   OH270744   3.557   3.422   1.437  0.1579  0.4020  0.2993
16418TIP3    H170745   3.463   3.401   1.432  0.0468  1.1109 -1.4670
16418TIP3    H270746   3.590   3.367   1.507 -1.3852 -0.6613  0.2529
16419TIP3   OH270747   5.404   6.456   5.976  0.0908 -0.0027 -0.2533
16419TIP3    H170748   5.430   6.492   5.891  0.0351 -1.2118 -0.7930
16419TIP3    H270749   5.309   6.468   5.979 -0.1229 -1.3225 -1.0391
16420TIP3   OH270750   3.729   0.359   1.028 -0.3555 -0.0974  0.3915
16420TIP3    H170751   3.719   0.346   1.122  0.4359  1.4858  0.7296
16420TIP3    H270752   3.820   0.387   1.017 -0.1609 -1.1510 -0.9687
16421TIP3   OH270753   2.018   5.878  11.687 -0.0030  0.5919 -0.1880
16421TIP3    H170754   1.991   5.786  11.681 -1.4330  0.9626  0.2292
16421TIP3    H270755   2.114   5.874  11.690 -0.0016 -0.8308 -0.9583
16422TIP3   OH270756   0.442   2.381   4.109 -0.1053 -0.2434 -0.0005
16422TIP3    H170757   0.361   2.387   4.160  1.7479 -0.5634  3.2481
16422TIP3    H270758   0.485   2.465   4.123  0.8827 -0.6902 -0.2817
16423TIP3   OH270759   6.672   6.225   4.844  0.5472  0.3661 -0.0806
16423TIP3    H170760   6.737   6.185   4.786  1.2820  1.2071  0.1330
16423TIP3    H270761   6.710   6.310   4.868 -0.6236  0.8721  0.0733
16424TIP3   OH270762   6.550   6.559   0.417  0.3855  0.0160  0.2058
16424TIP3    H170763   6.598   6.485   0.380  0.9131  0.7454 -0.5913
16424TIP3    H270764   6.609   6.633   0.408  0.2753  0.3519  1.9333
16425TIP3   OH270765   5.264   4.106   3.574  0.0752 -0.3013  0.6180
16425TIP3    H170766   5.348   4.072   3.605  0.1044 -1.2775 -0.4303
16425TIP3    H270767   5.219   4.029   3.539 -0.7671  0.4078  0.0985
16426TIP3   OH270768   3.460   0.111   5.101 -0.2950  0.3762 -0.4136
16426TIP3    H170769   3.404   0.051   5.149  0.0725 -1.0077 -1.6266
16426TIP3    H270770   3.549   0.077   5.114  0.0867  1.5221  0.0703
16427TIP3   OH270771   1.799   3.426  13.330  0.0301 -0.6284 -0.1915
16427TIP3    H170772   1.859   3.440  13.403  1.8818 -3.5757 -0.9442
16427TIP3    H270773   1.745   3.352  13.358 -0.7718 -0.3274 -0.9253
16428TIP3   OH270774   1.105   4.270  11.917 -0.3092 -0.3801 -0.4724
16428TIP3    H170775   1.090   4.346  11.973 -1.6130  0.5821 -2.0361
16428TIP3    H270776   1.179   4.294  11.863 -0.7955 -0.1490 -1.0486
16429TIP3   OH270777   3.337   4.277  16.580  0.3615 -0.6399 -0.2113
16429TIP3    H170778   3.264   4.224  16.612 -0.8427  0.1844 -1.4532
16429TIP3    H270779   3.331   4.271  16.485  0.9766  0.6752 -0.3516
16430TIP3   OH270780   4.507   3.073   3.492  0.1063 -0.2060 -0.4571
16430TIP3    H170781   4.596   3.083   3.527  0.6751  1.1724 -2.1301
16430TIP3    H270782   4.452   3.061   3.569  1.7734 -1.4954  0.5974
16431TIP3   OH270783   3.279   2.303  15.374  0.0221  0.2202  0.8606
16431TIP3    H170784   3.207   2.345  15.327  0.3673  1.0297  1.0542
16431TIP3    H270785   3.333   2.263  15.305 -1.0673 -1.1700  0.7573
16432TIP3   OH270786   0.309   6.440   0.076  0.2728  0.0373 -0.0448
16432TIP3    H170787   0.301   6.378   0.149  0.3479  1.0664  0.8599
16432TIP3    H270788   0.398   6.427   0.044 -0.3028 -1.6192 -1.0845
16433TIP3   OH270789   1.892   2.097  12.565  1.1007  0.2780 -0.1780
16433TIP3    H170790   1.947   2.086  12.487  1.5331  0.7032  0.0600
16433TIP3    H270791   1.833   2.169  12.543  0.3693 -0.4237 -0.5736
16434TIP3   OH270792   2.478   5.750   0.452  0.6905  0.4075  0.1753
16434TIP3    H170793   2.488   5.752   0.547  2.1523  2.0078  0.0165
16434TIP3    H270794   2.536   5.680   0.423 -0.7432 -0.9818  0.5225
16435TIP3   OH270795   0.120   2.026  15.719  0.1565 -0.9991 -0.1745
16435TIP3    H170796   0.113   1.995  15.628 -2.3405 -0.5020 -0.2210
16435TIP3    H270797   0.142   2.119  15.710 -2.0286 -0.4551 -0.3994
16436TIP3   OH270798   2.271   1.950  14.840 -0.2221 -0.0399  0.3247
16436TIP3    H170799   2.195   1.935  14.897  0.7872 -0.9685  1.4754
16436TIP3    H270800   2.306   1.862  14.824 -0.3432  0.2230 -1.5851
16437TIP3   OH270801   2.079   5.037   1.261 -0.4721  0.1304 -0.9998
16437TIP3    H170802   2.171   5.016   1.247  0.6610  0.5828  3.8467
16437TIP3    H270803   2.036   4.952   1.271 -0.1009 -0.0609 -1.0111
16438TIP3   OH270804   1.330   4.664   4.242 -0.6306 -0.4532 -0.1694
16438TIP3    H170805   1.335   4.759   4.254 -0.9283 -0.3102 -1.1471
16438TIP3    H270806   1.343   4.628   4.330  1.0981  0.4282 -0.0202
16439TIP3   OH270807   3.148   2.884   4.059 -0.0333 -0.3192  0.0998
16439TIP3    H170808   3.233   2.843   4.076  0.2375  0.2605  0.1781
16439TIP3    H270809   3.084   2.815   4.076  0.3844 -0.5742  0.6750
16440TIP3   OH270810   6.196   5.107  12.220  0.6694  0.2663  0.3219
16440TIP3    H170811   6.287   5.095  12.193  1.2494  2.1390  1.2612
16440TIP3    H270812   6.195   5.193  12.263 -1.4656  0.1106  0.6865
16441TIP3   OH270813   1.527   5.445   2.676 -0.4275  0.3122 -0.5159
16441TIP3    H170814   1.511   5.478   2.764 -2.3780 -1.2200 -0.2297
16441TIP3    H270815   1.475   5.502   2.619  2.4952  2.7021 -1.0752
16442TIP3   OH270816   1.111   1.608   1.618  0.1692  0.2816  0.4703
16442TIP3    H170817   1.088   1.695   1.586  0.2968 -0.3481 -1.4357
16442TIP3    H270818   1.155   1.566   1.544 -2.6453 -2.5135  0.1995
16443TIP3   OH270819   2.916   2.820  16.024 -0.3678  0.1563 -0.1698
16443TIP3    H170820   2.845   2.775  16.070  0.7738 -0.1044  1.4049
16443TIP3    H270821   2.878   2.903  15.998 -1.4744 -0.2833 -0.0279
16444TIP3   OH270822   4.687   4.251  12.576 -0.4311  0.0626  0.2497
16444TIP3    H170823   4.765   4.288  12.537 -0.2661  1.0221  1.4288
16444TIP3    H270824   4.709   4.240  12.669 -1.3153 -0.7049  0.3916
16445TIP3   OH270825   5.969   2.856  14.441 -0.1859  0.5099 -0.2936
16445TIP3    H170826   5.960   2.946  14.410 -0.0622  1.0272  1.1001
16445TIP3    H270827   5.901   2.807  14.394 -0.7159  1.4652 -0.5398
16446TIP3   OH270828   4.577   1.950  14.852 -0.3493 -0.1730 -0.2265
16446TIP3    H170829   4.523   1.956  14.931 -0.1419 -0.0050 -0.0949
16446TIP3    H270830   4.574   2.038  14.814  0.6814  0.1212  0.3518
16447TIP3   OH270831   3.755   4.926   0.832 -0.0076 -0.3178 -0.1523
16447TIP3    H170832   3.811   4.951   0.905 -0.8878 -0.3952  0.5680
16447TIP3    H270833   3.799   4.850   0.793  0.6432 -0.0652  0.0842
16448TIP3   OH270834   3.940   1.057  12.094  0.3130  0.1662  0.3353
16448TIP3    H170835   4.011   1.031  12.154  1.6836 -0.8843 -1.6314
16448TIP3    H270836   3.937   0.986  12.030 -0.2515  1.8301 -1.5496
16449TIP3   OH270837   2.145   1.130   5.043  0.8362  0.2129 -0.0471
16449TIP3    H170838   2.119   1.090   4.960  0.5045  0.0145  0.1510
16449TIP3    H270839   2.239   1.146   5.033  1.3365 -1.9918  0.3886
16450TIP3   OH270840   0.595   2.743   0.752  0.2778 -0.3298 -0.4685
16450TIP3    H170841   0.684   2.774   0.772  0.3719  1.6161 -3.3218
16450TIP3    H270842   0.539   2.790   0.813  1.0071  0.5329 -0.4377
16451TIP3   OH270843   3.386   1.662   3.901  0.6112 -0.2949  0.6199
16451TIP3    H170844   3.411   1.755   3.911 -0.8331  0.0421  1.3307
16451TIP3    H270845   3.462   1.622   3.859  1.4054  1.1450  0.5970
16452TIP3   OH270846   0.448   4.841   1.948  0.6136  0.0774  0.2167
16452TIP3    H170847   0.528   4.883   1.917  0.4183 -1.5297 -2.7741
16452TIP3    H270848   0.472   4.805   2.034  3.3753 -0.9974 -0.8862
16453TIP3   OH270849   0.172   2.482  11.219  0.2096  0.0419 -0.0319
16453TIP3    H170850   0.161   2.477  11.124  0.7852  2.7135 -0.3224
16453TIP3    H270851   0.251   2.536  11.231  0.3932 -0.5847  1.9676
16454TIP3   OH270852   1.341   3.788   2.268 -0.3731 -0.1593 -0.0711
16454TIP3    H170853   1.338   3.702   2.311 -2.7736  0.0208  0.2655
16454TIP3    H270854   1.296   3.774   2.185  2.3357  0.0146 -1.6770
16455TIP3   OH270855   0.132   1.162  12.313 -0.4672  0.2506  0.7310
16455TIP3    H170856   0.165   1.251  12.323  2.6732 -0.8419  1.3976
16455TIP3    H270857   0.194   1.121  12.252 -1.8283 -1.4866  0.4466
16456TIP3   OH270858   4.570   4.062  14.439 -0.0326  0.0500  0.4041
16456TIP3    H170859   4.577   4.006  14.516  1.6170  0.2688  0.4468
16456TIP3    H270860   4.634   4.026  14.377  1.0935  1.8606  0.4463
16457TIP3   OH270861   1.270   2.730   0.822  0.1891 -0.1921  0.4839
16457TIP3    H170862   1.260   2.636   0.807 -0.5015 -0.2024  0.9677
16457TIP3    H270863   1.183   2.760   0.849  0.1371  0.7954 -0.6957
16458TIP3   OH270864   4.161   5.220   1.940  0.3986  0.4384 -0.1899
16458TIP3    H170865   4.112   5.290   1.897  0.3263 -0.4005 -1.5319
16458TIP3    H270866   4.101   5.146   1.942  0.6909  0.2121  0.6448
16459TIP3   OH270867   5.371   2.732  12.292  0.2940  0.6277  0.4169
16459TIP3    H170868   5.464   2.753  12.282  1.5358 -3.5761  1.0316
16459TIP3    H270869   5.339   2.718  12.203  1.1993 -1.0113  0.3169
16460TIP3   OH270870   4.762   6.418   0.375 -0.5895  0.1183  0.0756
16460TIP3    H170871   4.708   6.455   0.306 -0.5259 -0.8193 -0.4941
16460TIP3    H270872   4.705   6.356   0.420  0.3546 -2.0171 -1.4773
16461TIP3   OH270873   5.573   2.991  13.263 -0.5241  0.2943 -0.1414
16461TIP3    H170874   5.582   3.055  13.192 -0.5549  0.9583  0.4475
16461TIP3    H270875   5.579   2.906  13.219  0.7832  0.6902 -0.7685
16462TIP3   OH270876   0.583   2.582  17.035  0.3551  0.5103 -0.5563
16462TIP3    H170877   0.658   2.527  17.056 -1.2703 -0.9805  1.9635
16462TIP3    H270878   0.559   2.622  17.119 -1.1748  1.6011 -1.4557
16463TIP3   OH270879   6.805   3.038   1.031 -0.9931 -0.0002 -0.1914
16463TIP3    H170880   6.892   3.077   1.033  0.5822 -3.1797  0.0546
16463TIP3    H270881   6.746   3.107   1.062  1.5895  1.8452  0.9412
16464TIP3   OH270882   6.558   6.519  11.448  0.7543  0.6436  0.1626
16464TIP3    H170883   6.607   6.597  11.423 -0.2573  0.8255 -1.3921
16464TIP3    H270884   6.468   6.536  11.419  0.9120 -1.9702 -2.3772
16465TIP3   OH270885   1.421   0.117  11.635 -0.2111 -0.3539  0.4585
16465TIP3    H170886   1.393   0.077  11.553 -1.3956  1.5725 -0.1641
16465TIP3    H270887   1.343   0.161  11.668  0.5289 -0.1667  2.0674
16466TIP3   OH270888   0.676   0.051   3.262 -0.1073 -0.1692 -0.2417
16466TIP3    H170889   0.665  -0.011   3.190  1.2590 -0.1973 -0.4548
16466TIP3    H270890   0.591   0.051   3.307 -0.7061 -0.7961 -1.3290
16467TIP3   OH270891   0.859   1.081   4.969  0.2386 -0.3166  0.8667
16467TIP3    H170892   0.945   1.042   4.954  0.1864 -0.0876 -0.1595
16467TIP3    H270893   0.872   1.145   5.039  1.0913  0.3125  0.1568
16468TIP3   OH270894   6.846   0.314   0.615 -0.2317  0.1505 -0.0854
16468TIP3    H170895   6.855   0.226   0.651  0.9924 -0.4175 -1.6452
16468TIP3    H270896   6.897   0.369   0.674 -0.9620 -0.1641  0.8731
16469TIP3   OH270897   4.182   5.244  11.659  0.3465 -0.5854 -0.0971
16469TIP3    H170898   4.185   5.153  11.690 -0.3282 -0.5218  0.1671
16469TIP3    H270899   4.106   5.282  11.703 -0.2339 -0.3021 -1.3214
16470TIP3   OH270900   0.065   1.791  14.737  0.3591 -0.3548 -0.4242
16470TIP3    H170901   0.053   1.713  14.682  2.4049 -0.3924 -0.9212
16470TIP3    H270902  -0.020   1.834  14.737 -0.3360 -1.6381 -1.6478
16471TIP3   OH270903   1.719   5.256  12.956 -0.2366  0.7807 -1.1706
16471TIP3    H170904   1.783   5.184  12.952 -1.5790 -0.4457 -1.2818
16471TIP3    H270905   1.764   5.329  12.914  0.9929 -0.1272 -1.5144
16472TIP3   OH270906   1.365   2.085  12.134 -0.6482  0.1660  0.4706
16472TIP3    H170907   1.302   2.066  12.204 -0.3403 -1.2965  0.3899
16472TIP3    H270908   1.430   2.015  12.141  0.2904  0.9313 -0.2511
16473TIP3   OH270909   3.893   2.961   1.893 -0.4460 -0.2345 -0.0711
16473TIP3    H170910   3.976   2.930   1.928 -0.3178  0.9246  0.7095
16473TIP3    H270911   3.847   2.998   1.969 -0.2944  2.0703 -1.0216
16474TIP3   OH270912   4.077   6.216   2.482  0.1765  0.3565 -0.3767
16474TIP3    H170913   3.982   6.231   2.488 -0.5824 -2.7888 -2.3814
16474TIP3    H270914   4.099   6.239   2.392  1.0102 -0.2889 -0.3485
16475TIP3   OH270915   6.277   3.435   0.277 -0.3744  0.0711  0.2883
16475TIP3    H170916   6.302   3.347   0.306 -0.4924  0.0613  0.3619
16475TIP3    H270917   6.218   3.420   0.203 -1.8254  0.0334  1.4025
16476TIP3   OH270918   4.458   4.263   4.411  0.0735  0.0920 -0.0814
16476TIP3    H170919   4.491   4.353   4.414  0.0489  0.1667 -1.4283
16476TIP3    H270920   4.459   4.240   4.318 -0.3046 -1.1647  0.2029
16477TIP3   OH270921   2.124   5.392  10.636  0.0663  0.1645 -0.4040
16477TIP3    H170922   2.099   5.303  10.662 -2.0335  0.7281 -0.3493
16477TIP3    H270923   2.161   5.381  10.548  1.8146 -0.9836  0.4045
16478TIP3   OH270924   4.557   5.732  16.057  0.2345 -0.2919  0.1495
16478TIP3    H170925   4.471   5.693  16.043 -1.2731  1.9597  2.3298
16478TIP3    H270926   4.566   5.738  16.152  1.9848  1.1986 -0.0485
16479TIP3   OH270927   2.697   1.457  12.128 -0.0679 -0.4752  0.3618
16479TIP3    H170928   2.703   1.524  12.196  0.2891 -0.7976  0.6593
16479TIP3    H270929   2.614   1.474  12.084  0.0038  0.1369  0.4553
16480TIP3   OH270930   6.775   5.042   2.620 -0.2962 -0.1662  0.1455
16480TIP3    H170931   6.803   4.993   2.543  2.2275  1.8477 -0.3409
16480TIP3    H270932   6.713   4.984   2.664  1.4102 -3.1859 -1.1166
16481TIP3   OH270933   3.643   2.885  15.362 -1.0542 -0.1148  0.3765
16481TIP3    H170934   3.678   2.908  15.276 -0.0716 -0.2798  0.7114
16481TIP3    H270935   3.609   2.968  15.397  0.7198  0.4990  0.7898
16482TIP3   OH270936   1.820   4.006   5.541 -0.1434 -0.0252  0.4525
16482TIP3    H170937   1.871   3.927   5.525 -4.2138 -2.4132 -2.7152
16482TIP3    H270938   1.774   3.989   5.623  0.4970 -0.0562  0.8041
16483TIP3   OH270939   2.938   3.882  15.761  0.0652 -0.1501  0.5617
16483TIP3    H170940   2.871   3.947  15.781  0.9660  0.3048  2.2972
16483TIP3    H270941   2.907   3.801  15.801 -0.9274 -0.7892 -1.3699
16484TIP3   OH270942   2.426   3.014  12.735  0.6407 -0.5969 -0.1472
16484TIP3    H170943   2.417   2.957  12.658 -1.7044  0.2352 -0.5759
16484TIP3    H270944   2.336   3.040  12.755  1.2338 -0.4578  2.6620
16485TIP3   OH270945   6.223   4.327  13.501 -0.4134 -0.0786  0.5059
16485TIP3    H170946   6.196   4.272  13.428 -0.6106  0.4032  0.2102
16485TIP3    H270947   6.142   4.362  13.536 -0.2335  0.8060  0.0650
16486TIP3   OH270948   4.536   2.156   1.598  0.1186 -0.4301 -0.9076
16486TIP3    H170949   4.583   2.186   1.520  1.9663  0.6660  0.5688
16486TIP3    H270950   4.445   2.148   1.568  0.4518  1.6411 -2.7482
16487TIP3   OH270951   4.487   5.355   1.163 -0.1131  0.0072 -0.9063
16487TIP3    H170952   4.527   5.278   1.122  2.5916 -0.5937  2.3701
16487TIP3    H270953   4.485   5.333   1.257 -0.3889  3.4422  0.0158
16488TIP3   OH270954   0.781   3.351  13.473 -0.0648 -0.0051 -0.0929
16488TIP3    H170955   0.876   3.335  13.475 -0.1482 -0.5000 -0.0669
16488TIP3    H270956   0.747   3.300  13.546 -0.5100 -0.8854 -0.9000
16489TIP3   OH270957   4.334   6.314  14.836 -0.1896 -0.4364  0.1271
16489TIP3    H170958   4.307   6.394  14.792  0.8957 -1.3127 -2.2944
16489TIP3    H270959   4.430   6.318  14.835  0.0302 -3.0111 -2.7350
16490TIP3   OH270960   2.043   3.759  15.243  0.0174  0.2617 -0.0240
16490TIP3    H170961   1.976   3.760  15.174  1.7742  1.3356 -1.8089
16490TIP3    H270962   2.084   3.845  15.238  0.8862 -0.0055  1.7116
16491TIP3   OH270963   2.406   4.833  16.342  0.3248  0.4979 -0.4987
16491TIP3    H170964   2.359   4.893  16.284  0.8053  0.6965 -0.6839
16491TIP3    H270965   2.442   4.766  16.284  0.8993  0.7588 -0.4458
16492TIP3   OH270966   0.543   2.175  13.823  0.6498  0.0248 -0.7374
16492TIP3    H170967   0.536   2.242  13.891  0.5052 -0.2642 -0.4631
16492TIP3    H270968   0.455   2.138  13.817  0.8818 -0.6050 -0.4039
16493TIP3   OH270969   4.004   3.102  16.577  0.0057  0.1386  0.2542
16493TIP3    H170970   4.089   3.105  16.620 -1.3498 -1.3298  3.4269
16493TIP3    H270971   3.962   3.185  16.599  0.1997  0.3920 -0.3285
16494TIP3   OH270972   0.964   1.722   4.988 -0.1430 -0.5667  0.0487
16494TIP3    H170973   0.965   1.756   5.077 -1.8999  2.1389 -0.8638
16494TIP3    H270974   0.875   1.735   4.958  0.3696 -1.5595 -2.0804
16495TIP3   OH270975   0.644   0.878   2.906 -0.1886 -0.7100  0.2978
16495TIP3    H170976   0.623   0.850   2.817  3.6477 -2.7509 -0.1459
16495TIP3    H270977   0.718   0.938   2.896 -2.0566  2.1200  1.9901
16496TIP3   OH270978   3.540   4.062  12.209  0.1787 -0.1501  0.8545
16496TIP3    H170979   3.532   4.139  12.153  0.5703 -0.1673  0.7749
16496TIP3    H270980   3.462   4.066  12.266  0.2952  0.4085  0.9816
16497TIP3   OH270981   4.667   4.346  11.973 -0.5004  0.0998 -0.0312
16497TIP3    H170982   4.690   4.272  11.917 -2.5302 -1.5221  1.1235
16497TIP3    H270983   4.689   4.316  12.062 -1.6429  0.7605  0.4900
16498TIP3   OH270984   6.512   1.545  16.857 -0.9215 -0.5933  0.6641
16498TIP3    H170985   6.563   1.464  16.848 -0.8497 -0.5153  0.3300
16498TIP3    H270986   6.484   1.564  16.767 -1.2476 -0.4472  0.8000
16499TIP3   OH270987   4.337   3.810  14.420 -0.5266 -0.1050  0.1319
16499TIP3    H170988   4.425   3.838  14.396 -0.4733 -0.9408 -0.7316
16499TIP3    H270989   4.297   3.782  14.337 -0.8661 -1.6817  0.7839
16500TIP3   OH270990   2.738   3.041  12.614 -0.4373  0.5058  0.7053
16500TIP3    H170991   2.795   2.987  12.559 -2.0468 -1.5089  0.9352
16500TIP3    H270992   2.726   3.122  12.563  1.7994  0.6048  0.2260
16501TIP3   OH270993   4.775   1.423  12.785 -0.3672 -0.2993 -0.8073
16501TIP3    H170994   4.783   1.465  12.699 -0.3551  0.2511 -0.5446
16501TIP3    H270995   4.724   1.344  12.769  0.3114 -0.6170 -1.4565
16502TIP3   OH270996   5.598   5.128  13.939  0.1848 -0.4751 -0.4043
16502TIP3    H170997   5.606   5.117  14.034 -0.5013 -1.5104 -0.4439
16502TIP3    H270998   5.553   5.212  13.928  1.2861  0.2096  0.1315
16503TIP3   OH270999   4.367   6.558  14.697 -0.3411  0.1915 -0.1361
16503TIP3    H171000   4.412   6.640  14.716  0.3408 -0.2480  0.1765
16503TIP3    H271001   4.409   6.526  14.617  0.1435 -0.3835  0.3392
16504TIP3   OH271002   2.561   0.152   5.410  0.0034 -0.1856 -1.0779
16504TIP3    H171003   2.600   0.238   5.422  0.5093 -0.4670 -0.7045
16504TIP3    H271004   2.475   0.159   5.452  0.8095 -0.4419  0.6983
16505TIP3   OH271005   4.852   1.274  11.994  0.7707 -0.0994 -0.3460
16505TIP3    H171006   4.789   1.220  11.947  1.1736 -0.0705 -0.9324
16505TIP3    H271007   4.925   1.215  12.014 -0.3208 -0.7272  2.2832
16506TIP3   OH271008   3.965   0.300  12.853 -0.1294 -0.5907 -0.3506
16506TIP3    H171009   3.901   0.264  12.915 -0.8222  0.8657 -0.1758
16506TIP3    H271010   3.978   0.390  12.883  3.7642 -1.4316  1.0150
16507TIP3   OH271011   3.991   0.071   5.341  0.0475  0.1980  0.5640
16507TIP3    H171012   4.020  -0.006   5.292  1.0388 -0.0618  1.5288
16507TIP3    H271013   4.036   0.145   5.300 -0.2817  0.1760  0.1520
16508TIP3   OH271014   2.924   1.004  10.395  0.4056  0.6632 -0.1552
16508TIP3    H171015   2.899   0.918  10.426  2.4997 -1.2362 -3.1153
16508TIP3    H271016   2.845   1.057  10.402 -0.6925 -1.1187  2.6758
16509TIP3   OH271017   4.465   0.661  12.174  0.4493 -0.6530 -0.0518
16509TIP3    H171018   4.393   0.665  12.111 -0.5967  1.5543  1.1826
16509TIP3    H271019   4.534   0.713  12.134 -0.0850  0.4505  0.4203
16510TIP3   OH271020   4.562   5.216  14.590  0.2505 -0.1577  0.2864
16510TIP3    H171021   4.622   5.230  14.664  0.7801  0.0573 -0.1801
16510TIP3    H271022   4.580   5.288  14.530  0.3009 -0.6956 -0.3622
16511TIP3   OH271023   5.834   4.262   1.660 -0.1676  0.0992  0.4769
16511TIP3    H171024   5.870   4.220   1.582 -1.6431 -0.4470  0.0500
16511TIP3    H271025   5.808   4.189   1.716  0.6276  0.4878  1.3741
16512TIP3   OH271026   5.402   1.537   5.493 -0.2874  0.3809  0.5704
16512TIP3    H171027   5.472   1.599   5.475  0.8577 -1.7851 -3.4808
16512TIP3    H271028   5.323   1.579   5.459  0.0099  0.6785  0.2387
16513TIP3   OH271029   0.271   5.577  16.526 -0.2187  0.3701  0.0617
16513TIP3    H171030   0.304   5.633  16.456  1.0561  0.0666  0.3952
16513TIP3    H271031   0.251   5.638  16.597  0.2099  0.5118  0.0662
16514TIP3   OH271032   1.210   1.716  11.019  0.5046 -0.1126 -0.0569
16514TIP3    H171033   1.234   1.623  11.021 -0.7691 -0.4373  0.9683
16514TIP3    H271034   1.266   1.756  11.085  1.5831  0.0121 -1.0071
16515TIP3   OH271035   5.141   4.981  11.739  0.5770 -0.5464 -0.4574
16515TIP3    H171036   5.125   4.889  11.719  3.3778 -1.0465 -0.8788
16515TIP3    H271037   5.064   5.008  11.788  0.8362 -3.9717  2.2826
16516TIP3   OH271038   6.072   0.191  10.561 -0.0979  0.0551 -0.1046
16516TIP3    H171039   6.064   0.140  10.481 -1.6419 -1.8298  1.1543
16516TIP3    H271040   5.989   0.177  10.607  0.5305  1.4965  1.6009
16517TIP3   OH271041   6.080   2.453  11.302 -0.1673 -0.2521  0.1261
16517TIP3    H171042   6.070   2.427  11.394 -1.9467 -1.4827 -0.3629
16517TIP3    H271043   5.994   2.487  11.278  0.1239 -0.4363 -1.2369
16518TIP3   OH271044   3.498   5.381   1.525  0.2778 -0.1129 -0.1378
16518TIP3    H171045   3.571   5.376   1.465  0.6563 -1.2791  0.3822
16518TIP3    H271046   3.428   5.331   1.482  0.2755 -0.2392  0.0101
16519TIP3   OH271047   0.072   1.768  10.913 -0.5911 -0.0112  0.4241
16519TIP3    H171048   0.042   1.702  10.850  0.1217 -0.2462  0.3225
16519TIP3    H271049   0.048   1.852  10.873 -0.6412 -0.1779  0.1020
16520TIP3   OH271050   4.654   4.065   3.078 -0.4921 -0.3148 -0.5315
16520TIP3    H171051   4.689   4.011   3.148  0.2377  0.5279 -0.2231
16520TIP3    H271052   4.686   4.025   2.998 -2.6747 -2.2699 -0.5491
16521TIP3   OH271053   2.561   2.517   4.974 -0.0802  0.4778 -0.4009
16521TIP3    H171054   2.471   2.519   4.942 -0.2659  0.8749  0.1391
16521TIP3    H271055   2.556   2.465   5.054  0.3189 -0.2010 -0.8057
16522TIP3   OH271056   3.591   3.269   0.105  0.2138 -0.3272  0.2412
16522TIP3    H171057   3.684   3.290   0.117  0.4121 -0.2383 -1.3224
16522TIP3    H271058   3.580   3.183   0.146  1.1724 -0.7013 -0.2671
16523TIP3   OH271059   0.569   1.814   0.934  0.8026 -0.0634 -0.0924
16523TIP3    H171060   0.508   1.797   1.005  0.9726 -0.6556 -0.0814
16523TIP3    H271061   0.522   1.874   0.876  0.5760  0.2339  0.3959
16524TIP3   OH271062   6.823   3.465   1.796 -0.5570 -0.2240 -0.2476
16524TIP3    H171063   6.838   3.404   1.868  0.9171  0.3150 -0.0532
16524TIP3    H271064   6.728   3.478   1.794 -0.8829 -2.3324 -0.1646
16525TIP3   OH271065   0.847   0.764  12.951  0.1116  0.3219 -0.2746
16525TIP3    H171066   0.881   0.676  12.968  1.3593  0.5884 -1.2144
16525TIP3    H271067   0.766   0.751  12.902 -0.2075 -0.3077  0.4091
16526TIP3   OH271068   6.800   4.987   3.471 -0.2755  0.3770 -0.2678
16526TIP3    H171069   6.854   4.984   3.550 -0.2271  1.8830 -0.2306
16526TIP3    H271070   6.763   5.075   3.470 -2.0051 -0.3278 -0.7891
16527TIP3   OH271071   4.057   3.928  16.914  0.2437 -0.0158  0.0701
16527TIP3    H171072   4.105   4.004  16.947  0.1651  0.7039 -1.4150
16527TIP3    H271073   4.042   3.874  16.992  0.2413  1.5124  1.1725
16528TIP3   OH271074   5.754   6.479   3.194 -0.6777 -0.1177  0.0378
16528TIP3    H171075   5.757   6.523   3.280  0.3068  1.5172 -0.7784
16528TIP3    H271076   5.844   6.455   3.177 -0.1312  2.8984 -2.0974
16529TIP3   OH271077   0.124   6.557  16.710  0.0167  0.0572  0.1469
16529TIP3    H171078   0.122   6.484  16.772  0.9694  0.3522  0.5352
16529TIP3    H271079   0.119   6.635  16.765 -1.7969  0.3073 -0.3050
16530TIP3   OH271080   6.552   3.184   2.383  0.3133 -0.1076  0.1484
16530TIP3    H171081   6.513   3.098   2.400  0.5015 -0.3218 -0.4482
16530TIP3    H271082   6.488   3.247   2.415 -0.2702 -0.4608 -0.2979
16531TIP3   OH271083   2.604   5.136   0.310 -0.3920 -0.4019  0.3316
16531TIP3    H171084   2.587   5.150   0.217 -0.5627 -1.5529  0.1711
16531TIP3    H271085   2.538   5.072   0.337 -1.3199  1.0336  1.6257
16532TIP3   OH271086   4.716   1.879  15.869  0.1784  0.2100 -0.1036
16532TIP3    H171087   4.722   1.811  15.801  0.1317 -0.1655  0.2682
16532TIP3    H271088   4.671   1.836  15.942 -1.1067  1.0370 -0.3681
16533TIP3   OH271089   2.448   3.468  14.855  0.1370 -0.4547  0.1226
16533TIP3    H171090   2.432   3.504  14.768 -1.7898 -0.6633  0.3569
16533TIP3    H271091   2.541   3.484  14.870  0.3259  0.3491 -1.6145
16534TIP3   OH271092   2.270   4.170   4.488  0.1543 -0.1491 -0.2127
16534TIP3    H171093   2.357   4.189   4.521  0.9995 -0.9783 -1.8248
16534TIP3    H271094   2.274   4.078   4.461 -1.9351 -0.9304  1.7820
16535TIP3   OH271095   4.491   2.047  16.226  0.0569  0.3804 -0.6516
16535TIP3    H171096   4.509   2.127  16.176  0.3255  0.4164 -0.4976
16535TIP3    H271097   4.463   2.078  16.312 -0.7562  0.3247 -0.8892
16536TIP3   OH271098   3.842   5.648  15.616 -0.2720 -0.2686 -0.3067
16536TIP3    H171099   3.875   5.737  15.624 -0.8966 -0.1567  1.7174
16536TIP3    H271100   3.890   5.610  15.543  1.3894  1.1254  0.0006
16537TIP3   OH271101   0.431   4.185  12.682 -0.3109 -0.3659 -0.1498
16537TIP3    H171102   0.371   4.160  12.612  0.2868 -0.6735 -0.5687
16537TIP3    H271103   0.446   4.105  12.731  1.1408 -0.7552 -1.1357
16538TIP3   OH271104   0.256   5.028   2.418  0.3083 -0.0261  0.1025
16538TIP3    H171105   0.187   5.036   2.353 -0.6476 -1.3604  0.8954
16538TIP3    H271106   0.246   5.105   2.474 -0.0909  0.1298 -0.1827
16539TIP3   OH271107   0.286   5.283  11.215 -0.2669 -0.3893  0.2680
16539TIP3    H171108   0.370   5.305  11.176  0.7021  0.1216  2.4758
16539TIP3    H271109   0.259   5.202  11.172  1.2262 -0.4402 -0.6282
16540TIP3   OH271110   4.394   0.268  11.641 -0.0652 -0.1272  0.0186
16540TIP3    H171111   4.333   0.205  11.603 -1.0942 -0.6257  2.2926
16540TIP3    H271112   4.435   0.221  11.714  0.8033  1.1499  0.4003
16541TIP3   OH271113   5.636   1.163  14.268 -0.0241  0.0635 -0.2022
16541TIP3    H171114   5.597   1.125  14.347  0.8030  1.5322  0.9560
16541TIP3    H271115   5.626   1.095  14.202 -2.2042 -0.5922  0.7138
16542TIP3   OH271116   2.827   2.639   0.462 -0.0238 -0.2708 -0.4630
16542TIP3    H171117   2.737   2.666   0.445 -0.1785 -0.0381  0.6396
16542TIP3    H271118   2.879   2.688   0.399 -0.4632  1.2944  0.3563
16543TIP3   OH271119   2.335   1.441   3.397  0.0139 -0.3349 -0.2672
16543TIP3    H171120   2.322   1.530   3.431 -2.8129  0.0594 -2.0389
16543TIP3    H271121   2.419   1.445   3.351  0.8520  0.8265  1.2507
16544TIP3   OH271122   1.764   4.894  10.717 -0.4300  0.1037  0.0692
16544TIP3    H171123   1.713   4.945  10.781 -0.1865  0.7897 -0.2655
16544TIP3    H271124   1.777   4.955  10.644 -0.8411 -0.7229 -0.7106
16545TIP3   OH271125   6.367   1.083  16.790 -0.1318  0.3244  0.4708
16545TIP3    H171126   6.425   1.015  16.756 -1.9211 -1.3888  0.6809
16545TIP3    H271127   6.299   1.092  16.723 -3.3545 -2.6306  3.0134
16546TIP3   OH271128   3.993   5.760   3.653  0.2979  0.5095  0.3634
16546TIP3    H171129   4.058   5.690   3.649  0.1238  0.3443  0.3986
16546TIP3    H271130   3.921   5.723   3.705 -0.3118  0.2833 -0.6090
16547TIP3   OH271131   5.144   2.050   2.378 -0.2501 -0.0859 -0.0890
16547TIP3    H171132   5.148   2.129   2.431  0.5011 -0.0465 -0.1921
16547TIP3    H271133   5.143   1.978   2.441  2.0841 -0.0945 -0.0059
16548TIP3   OH271134   4.705   4.443  14.861  0.0598 -0.1887  0.1065
16548TIP3    H171135   4.616   4.478  14.874  0.6437  1.9085 -0.9791
16548TIP3    H271136   4.697   4.350  14.880 -2.2519  0.0312  0.5804
16549TIP3   OH271137   2.290   0.726  14.587 -0.1032  0.4292  0.6750
16549TIP3    H171138   2.352   0.794  14.561 -0.0525  0.6297  1.2968
16549TIP3    H271139   2.240   0.765  14.659 -0.8703  0.2220  0.2639
16550TIP3   OH271140   1.355   0.098  15.340 -0.0457 -0.0515  0.0958
16550TIP3    H171141   1.417   0.039  15.296 -1.5780 -0.1909 -2.0286
16550TIP3    H271142   1.406   0.176  15.361  1.1825 -0.7370 -0.2516
16551TIP3   OH271143   0.062   3.132  13.767  0.2941  0.5346 -0.3723
16551TIP3    H171144   0.073   3.143  13.672 -3.2769 -0.3997 -1.0429
16551TIP3    H271145   0.032   3.042  13.777  1.2234  0.4231  1.7540
16552TIP3   OH271146   5.584   1.938  11.808 -0.3982 -0.7865  0.8916
16552TIP3    H171147   5.664   1.900  11.772  0.1974  0.9863  0.2720
16552TIP3    H271148   5.526   1.947  11.733 -1.2218 -2.0318  1.3312
16553TIP3   OH271149   5.655   5.633   5.152  0.1849  0.0184 -0.1207
16553TIP3    H171150   5.684   5.716   5.191  0.3669 -0.2642  0.3504
16553TIP3    H271151   5.565   5.650   5.125 -0.0629  0.1249  0.7351
16554TIP3   OH271152   1.383   6.621  15.590  0.4141 -0.1886  0.5706
16554TIP3    H171153   1.450   6.565  15.629  1.0104  1.3512  1.9060
16554TIP3    H271154   1.428   6.704  15.572 -0.2322 -0.3296 -2.0907
16555TIP3   OH271155   3.339   5.980  12.081 -0.1071  0.2499 -0.1710
16555TIP3    H171156   3.370   6.070  12.070  0.2658  0.0125 -1.1659
16555TIP3    H271157   3.416   5.926  12.065 -0.1584 -0.2456  1.1194
16556TIP3   OH271158   0.527   4.767   5.808  0.4371 -0.0353 -0.2834
16556TIP3    H171159   0.542   4.785   5.901  1.3878  0.9196 -0.5991
16556TIP3    H271160   0.513   4.673   5.803 -5.4034  0.3499  1.5708
16557TIP3   OH271161   5.646   0.740  13.949 -0.8605  0.4322 -0.1298
16557TIP3    H171162   5.676   0.658  13.909 -0.1859  0.1397  0.9155
16557TIP3    H271163   5.700   0.749  14.028 -0.1641  2.4322 -0.7709
16558TIP3   OH271164   1.364   1.479  12.243  0.4298  0.7701  0.2683
16558TIP3    H171165   1.458   1.465  12.239  0.6714  2.2984 -0.3372
16558TIP3    H271166   1.348   1.514  12.331  0.2375 -0.6111  0.7944
16559TIP3   OH271167   0.342   4.816  14.908  0.4329  0.3018 -0.3157
16559TIP3    H171168   0.269   4.878  14.904 -1.0674 -1.4315 -2.1296
16559TIP3    H271169   0.410   4.862  14.958 -1.7248  2.1419  1.1365
16560TIP3   OH271170   3.050   2.335   1.119 -0.5802 -0.0378 -0.2197
16560TIP3    H171171   3.038   2.416   1.070  1.0197  0.0845 -0.4564
16560TIP3    H271172   3.067   2.269   1.052 -2.9918 -0.8521 -0.1178
16561TIP3   OH271173   6.433   1.692  11.892 -0.3829  0.4534 -0.4928
16561TIP3    H171174   6.400   1.739  11.969 -1.6300  0.1926 -0.8455
16561TIP3    H271175   6.528   1.706  11.895 -0.1246 -1.1332  2.1637
16562TIP3   OH271176   3.084   4.827   5.399  0.4107  0.0131 -0.1401
16562TIP3    H171177   3.174   4.857   5.385 -0.2521  2.5913  0.6778
16562TIP3    H271178   3.056   4.871   5.478 -1.2372 -1.6811  0.2990
16563TIP3   OH271179   3.861   5.397   1.516 -0.4958 -0.2628 -0.3207
16563TIP3    H171180   3.849   5.489   1.540  0.2707 -0.5064  1.0859
16563TIP3    H271181   3.900   5.357   1.593  1.2863 -1.2900 -1.6837
16564TIP3   OH271182   1.129   3.785   2.874  0.6175 -0.0474  0.1139
16564TIP3    H171183   1.060   3.734   2.832  0.7394  1.7599 -2.5123
16564TIP3    H271184   1.084   3.861   2.909  1.1118  0.6691 -0.7707
16565TIP3   OH271185   2.464   0.008  10.464  0.2405  0.0372  0.6273
16565TIP3    H171186   2.503  -0.070  10.425  2.7001  1.0172  0.8856
16565TIP3    H271187   2.531   0.040  10.525 -0.3910  2.6646  0.0785
16566TIP3   OH271188   0.915   2.677   1.525  0.0626 -0.2641 -0.3308
16566TIP3    H171189   1.007   2.673   1.499  1.0140  1.8892  2.3254
16566TIP3    H271190   0.903   2.602   1.583 -0.0041 -0.7749 -0.9900
16567TIP3   OH271191   1.565   2.912  14.915 -0.3075  0.5559  0.8529
16567TIP3    H171192   1.576   2.937  14.823  2.7822  0.2845  1.0470
16567TIP3    H271193   1.496   2.969  14.947 -1.0768  1.0393 -1.4891
16568TIP3   OH271194   3.408   5.350   2.429 -0.2677  0.1138 -0.7141
16568TIP3    H171195   3.363   5.416   2.376 -1.8724 -0.9529 -0.7357
16568TIP3    H271196   3.463   5.303   2.367 -0.0994  0.5822 -0.9280
16569TIP3   OH271197   6.208   6.506  14.267 -0.5598  0.0777  0.2261
16569TIP3    H171198   6.283   6.502  14.208 -1.6118 -1.3936 -1.0943
16569TIP3    H271199   6.245   6.533  14.351  1.0012  2.1445 -1.0332
16570TIP3   OH271200   1.468   1.471  11.884 -0.1265 -0.6287  0.2811
16570TIP3    H171201   1.534   1.405  11.905 -1.4620 -2.2944 -0.5229
16570TIP3    H271202   1.438   1.449  11.796 -0.5094  1.1813 -0.0986
16571TIP3   OH271203   2.752   5.238  10.956  0.1821 -0.7104 -0.1233
16571TIP3    H171204   2.823   5.277  10.906  1.0678 -2.0777  0.0081
16571TIP3    H271205   2.679   5.234  10.895  0.0368  1.1628 -0.1171
16572TIP3   OH271206   5.048   4.861   1.188  0.6799  0.2526  0.5659
16572TIP3    H171207   5.050   4.949   1.151 -1.4042  1.1553  2.3941
16572TIP3    H271208   4.970   4.821   1.150 -0.2281  0.4044  2.1889
16573TIP3   OH271209   3.968   0.857   1.803 -0.1775 -0.0893  0.1124
16573TIP3    H171210   3.988   0.855   1.709 -0.4257  1.6468 -0.0209
16573TIP3    H271211   3.904   0.788   1.815  0.4986 -0.9111 -0.8262
16574TIP3   OH271212   5.133   4.956  16.894  0.5674 -0.1547 -0.1772
16574TIP3    H171213   5.210   4.923  16.941  2.3064  1.0908 -1.9893
16574TIP3    H271214   5.139   5.051  16.902 -1.6781 -0.0380  0.9010
16575TIP3   OH271215   4.863   3.466  13.548  0.2254 -0.1240  0.0040
16575TIP3    H171216   4.776   3.454  13.585 -1.9379  2.9281 -3.3834
16575TIP3    H271217   4.907   3.526  13.608 -0.9897  0.2998  0.5020
16576TIP3   OH271218   4.121   3.972   3.384  0.6680 -0.0903  0.2146
16576TIP3    H171219   4.102   4.065   3.372 -0.2757  0.0167  2.2900
16576TIP3    H271220   4.073   3.946   3.463  2.2566 -1.9303  0.6678
16577TIP3   OH271221   0.113   3.929  14.478  0.3948 -0.4414 -0.1913
16577TIP3    H171222   0.031   3.962  14.516  0.0764  0.3869 -1.5145
16577TIP3    H271223   0.116   3.837  14.503 -0.3856 -0.2163  0.8044
16578TIP3   OH271224   2.071   5.193  16.071 -0.5530 -0.4416  0.2505
16578TIP3    H171225   2.126   5.251  16.019 -1.1545  0.4029  0.5425
16578TIP3    H271226   1.993   5.244  16.090 -2.0968 -2.0844 -1.3146
16579TIP3   OH271227   2.673   4.072  10.666  0.5824  0.1501  0.0649
16579TIP3    H171228   2.594   4.018  10.670  0.3362  0.3810 -1.0646
16579TIP3    H271229   2.724   4.035  10.594  0.7205  0.9883 -0.2912
16580TIP3   OH271230   2.022   0.014  12.591  0.0450 -0.6126 -0.3031
16580TIP3    H171231   1.959   0.017  12.663  0.1749 -1.3393 -0.1512
16580TIP3    H271232   2.032  -0.079  12.572  1.4626 -0.5473  0.0202
16581TIP3   OH271233   0.136   4.552   2.502  0.2959  0.1791  0.0380
16581TIP3    H171234   0.080   4.501   2.561 -0.0693 -0.5968 -0.9455
16581TIP3    H271235   0.210   4.495   2.483  0.0329  0.1139 -0.8431
16582TIP3   OH271236   2.553   0.271   0.591 -0.1175 -0.8541  0.1058
16582TIP3    H171237   2.564   0.364   0.611 -1.1188 -0.8731  0.8428
16582TIP3    H271238   2.635   0.231   0.618  0.0184 -0.2910  0.5623
16583TIP3   OH271239   0.769   0.175   4.665 -0.2283 -0.3235 -0.3278
16583TIP3    H171240   0.742   0.219   4.584 -1.5836 -0.6310 -0.0503
16583TIP3    H271241   0.767   0.244   4.731  0.1643 -0.2402 -0.3968
16584TIP3   OH271242   3.150   0.229   0.699 -1.1832  0.0902 -0.2395
16584TIP3    H171243   3.171   0.185   0.616 -1.1384  1.9446 -1.2576
16584TIP3    H271244   3.136   0.320   0.675  0.6549  1.0762  2.0738
16585TIP3   OH271245   2.018   5.380   5.322 -0.3060  0.3296 -0.7868
16585TIP3    H171246   2.063   5.308   5.367  0.2738  2.1543  1.7444
16585TIP3    H271247   2.086   5.424   5.273 -0.1206  0.6825 -0.2223
16586TIP3   OH271248   0.208   5.617   3.288  0.8465  0.5037  0.8900
16586TIP3    H171249   0.299   5.628   3.262  1.0626  0.2223  1.5275
16586TIP3    H271250   0.166   5.699   3.263  1.2112  0.5376  0.3614
16587TIP3   OH271251   2.897   4.764   1.305  0.3518 -0.3153 -0.3611
16587TIP3    H171252   2.963   4.765   1.236 -0.1228  0.2020 -0.8128
16587TIP3    H271253   2.869   4.855   1.314 -0.0786 -0.4805  0.0421
16588TIP3   OH271254   0.496   3.154  16.090 -0.0347 -0.3506 -0.0124
16588TIP3    H171255   0.430   3.212  16.131  1.3101  1.6021 -0.4518
16588TIP3    H271256   0.579   3.197  16.108  0.9375 -1.5874 -1.3799
16589TIP3   OH271257   6.443   3.016  15.844  0.0258  0.2607 -0.0011
16589TIP3    H171258   6.423   3.020  15.751  2.7079 -1.3065 -0.7393
16589TIP3    H271259   6.490   3.097  15.862 -0.6418  0.6437  0.0662
16590TIP3   OH271260   1.729   2.382  14.150 -0.7127  0.0458  0.4222
16590TIP3    H171261   1.821   2.366  14.126 -0.7161 -1.5753  1.3587
16590TIP3    H271262   1.679   2.351  14.074 -0.4961  1.4857 -0.3419
16591TIP3   OH271263   4.409   1.247  14.581  0.5971  0.6959  0.5978
16591TIP3    H171264   4.475   1.307  14.614  1.4532  1.1622 -1.7733
16591TIP3    H271265   4.450   1.161  14.586  0.5100  0.6839  1.1947
16592TIP3   OH271266   1.309   2.344   0.402  0.3480 -0.7617 -0.1691
16592TIP3    H171267   1.350   2.415   0.451  0.0180 -1.6799  1.5234
16592TIP3    H271268   1.351   2.264   0.435 -0.4416 -1.4695 -0.8218
16593TIP3   OH271269   4.594   2.345  12.683 -0.2344 -0.0842 -0.3341
16593TIP3    H171270   4.628   2.434  12.695 -1.0848  0.0184  1.7741
16593TIP3    H271271   4.574   2.340  12.590  1.7631  1.2019 -0.9018
16594TIP3   OH271272   5.371   2.080  12.523 -0.8127  0.1028  0.1466
16594TIP3    H171273   5.357   2.013  12.589 -0.0785  0.3339  0.5560
16594TIP3    H271274   5.448   2.128  12.554  0.9074 -1.1245 -1.9303
16595TIP3   OH271275   3.409   0.159  17.023  0.2188 -0.2014 -0.0909
16595TIP3    H171276   3.501   0.160  17.047 -0.1208  0.5697  1.2370
16595TIP3    H271277   3.390   0.067  17.003  1.6391 -0.1360 -1.9483
16596TIP3   OH271278   3.108   2.427   2.143 -0.4816 -0.0032  0.3033
16596TIP3    H171279   3.106   2.491   2.072  0.1871  1.2083  1.3395
16596TIP3    H271280   3.079   2.345   2.102 -1.2035  0.9029 -1.0938
16597TIP3   OH271281   2.760   4.926   2.116  0.6366 -0.0898 -0.3302
16597TIP3    H171282   2.766   5.014   2.152  1.1225  0.3380 -1.4106
16597TIP3    H271283   2.704   4.879   2.178 -2.4773  1.8654 -1.3977
16598TIP3   OH271284   3.245   4.526  16.827  0.6836  0.6831  0.3768
16598TIP3    H171285   3.205   4.600  16.782 -0.2984 -1.4429 -2.6215
16598TIP3    H271286   3.334   4.522  16.792  0.5185  0.1072  0.0025
16599TIP3   OH271287   0.394   2.203   0.498  0.5244 -0.6762  0.1904
16599TIP3    H171288   0.333   2.131   0.515  0.5902 -0.8128 -0.1487
16599TIP3    H271289   0.343   2.268   0.451  0.0420  0.1877  1.8299
16600TIP3   OH271290   0.074   6.162  14.712  0.4642 -0.5314  0.6412
16600TIP3    H171291   0.003   6.107  14.746 -0.0826  0.8890  1.8629
16600TIP3    H271292   0.030   6.222  14.652  0.9835 -1.0295 -0.2584
16601TIP3   OH271293   3.043   1.133   4.679  0.0974  0.1271  0.5683
16601TIP3    H171294   3.054   1.152   4.586 -0.6463 -0.3066  0.3771
16601TIP3    H271295   2.975   1.065   4.681 -0.8184  1.0416  1.5005
16602TIP3   OH271296   5.955   5.306   5.944 -0.1503 -0.1990 -0.3649
16602TIP3    H171297   6.004   5.350   5.875 -0.6048 -1.1151 -1.2970
16602TIP3    H271298   5.931   5.221   5.907 -0.8338 -0.5175  0.7411
16603TIP3   OH271299   5.652   0.321  14.415 -0.1291  0.0385 -0.9049
16603TIP3    H171300   5.723   0.292  14.472  1.2963  1.0822 -2.0386
16603TIP3    H271301   5.614   0.397  14.460 -0.2766 -0.2943 -0.4688
16604TIP3   OH271302   3.638   5.827   3.932 -0.2962 -0.3891 -1.4133
16604TIP3    H171303   3.546   5.811   3.911 -0.5295 -0.9079 -0.0966
16604TIP3    H271304   3.653   5.777   4.012  0.8353  0.5670 -1.0075
16605TIP3   OH271305   3.079   4.090  14.128 -0.5290  0.1735 -0.0314
16605TIP3    H171306   3.093   3.999  14.100  0.9978  0.1604  0.6511
16605TIP3    H271307   3.071   4.139  14.046 -2.1095 -0.6537 -0.4114
16606TIP3   OH271308   0.966   6.348   0.022  0.2119  0.1317  0.1806
16606TIP3    H171309   0.994   6.426   0.068  0.2223 -0.2055  0.7479
16606TIP3    H271310   0.876   6.334   0.051 -0.8773  1.6126 -2.1449
16607TIP3   OH271311   6.509   2.269   1.622 -0.4410 -0.7372 -0.4343
16607TIP3    H171312   6.464   2.287   1.704 -0.6438  1.8260 -1.0429
16607TIP3    H271313   6.592   2.228   1.648 -0.2589  0.5419  1.0953
16608TIP3   OH271314   1.068   0.945  12.139 -0.1345 -0.1643 -0.0296
16608TIP3    H171315   1.119   0.988  12.071 -1.6648 -1.2164 -1.9184
16608TIP3    H271316   0.989   0.999  12.148  0.1382  0.0853  1.1098
16609TIP3   OH271317   1.327   5.397   0.015 -0.1199 -0.0875  0.0293
16609TIP3    H171318   1.339   5.466   0.080  0.4092 -1.9577  2.0185
16609TIP3    H271319   1.397   5.334   0.033 -0.4109 -1.0348 -1.8831
16610TIP3   OH271320   5.209   2.837  16.234  0.7492 -0.3465  0.3069
16610TIP3    H171321   5.221   2.860  16.326  2.4886 -0.0559  0.0340
16610TIP3    H271322   5.139   2.771  16.235 -1.3150  1.6920  1.5137
16611TIP3   OH271323   1.556   1.328   4.942 -0.0584  0.0665  0.1937
16611TIP3    H171324   1.551   1.322   5.038  0.9503  0.1645  0.2603
16611TIP3    H271325   1.567   1.238   4.913 -0.0324  0.0693  0.1947
16612TIP3   OH271326   4.647   5.955   2.115  0.1060 -0.2555 -0.1764
16612TIP3    H171327   4.661   5.957   2.020  1.8903  0.1782  0.0559
16612TIP3    H271328   4.668   5.866   2.141  0.4680 -0.1411 -0.0763
16613TIP3   OH271329   2.249   0.631   3.970 -0.6352  0.4126 -0.0965
16613TIP3    H171330   2.285   0.542   3.969 -0.7937  0.2841 -2.9795
16613TIP3    H271331   2.325   0.687   3.986 -0.5426 -0.1951  1.8016
16614TIP3   OH271332   0.111   3.159  15.583  0.4082  0.1338 -0.0930
16614TIP3    H171333   0.173   3.181  15.514  1.3997 -3.7442 -0.6699
16614TIP3    H271334   0.158   3.177  15.664  0.9903  0.3402 -0.4649
16615TIP3   OH271335   2.826   4.758  16.676  0.1165  1.4389 -0.6178
16615TIP3    H171336   2.750   4.730  16.727 -0.3701  0.9579 -1.5888
16615TIP3    H271337   2.864   4.829  16.728 -2.4186  3.4112 -1.2498
16616TIP3   OH271338   1.172   2.176   2.741  0.1194  0.3898 -0.4084
16616TIP3    H171339   1.241   2.209   2.683  1.5473 -1.7993 -0.0461
16616TIP3    H271340   1.178   2.081   2.734 -2.0970  0.1101  0.5852
16617TIP3   OH271341   0.158   2.656  10.401  0.1591 -0.0719  0.0461
16617TIP3    H171342   0.195   2.728  10.452  1.5069 -0.3593 -0.4602
16617TIP3    H271343   0.133   2.591  10.467  1.4790 -0.2628  0.4014
16618TIP3   OH271344   1.923   5.481   4.377  0.3281  0.4357  0.1509
16618TIP3    H171345   1.983   5.493   4.450 -0.7218  3.1214  0.6809
16618TIP3    H271346   1.943   5.554   4.318  1.7911 -2.1391 -2.8249
16619TIP3   OH271347   3.098   6.397  14.555  0.3643 -0.2769 -0.8710
16619TIP3    H171348   3.164   6.461  14.528  2.9924 -2.4363 -0.0872
16619TIP3    H271349   3.102   6.329  14.488 -0.0576 -1.0905 -0.0968
16620TIP3   OH271350   4.536   1.149  13.383 -0.8007  0.4524 -0.2572
16620TIP3    H171351   4.621   1.171  13.423 -0.5752 -1.6584  0.5303
16620TIP3    H271352   4.519   1.222  13.323  0.7481  1.7711  0.8027
16621TIP3   OH271353   0.200   0.989  14.287 -0.0716 -0.3985  0.1935
16621TIP3    H171354   0.288   1.002  14.252 -0.4928 -1.4798 -1.3891
16621TIP3    H271355   0.141   1.027  14.222 -0.8040  0.7383  1.4531
16622TIP3   OH271356   5.026   0.746  13.138 -0.2166 -0.3020  0.0378
16622TIP3    H171357   4.990   0.811  13.199 -0.1327 -1.6111  1.5334
16622TIP3    H271358   4.982   0.764  13.055  0.8678  2.6054 -0.0309
16623TIP3   OH271359   0.157   4.111   0.291  0.1211  0.1108  0.4646
16623TIP3    H171360   0.213   4.189   0.298 -2.0079  1.7260  0.4015
16623TIP3    H271361   0.139   4.103   0.198  0.0534 -0.2666  0.5095
16624TIP3   OH271362   5.994   5.117  15.463 -0.2557 -0.2027 -0.3709
16624TIP3    H171363   6.029   5.032  15.491 -0.6846 -0.4030 -0.4367
16624TIP3    H271364   6.027   5.129  15.374 -0.3972 -0.4163 -0.4533
16625TIP3   OH271365   6.773   2.663  14.353  0.0671 -0.5807 -0.6291
16625TIP3    H171366   6.840   2.685  14.288 -0.0913 -0.3855 -0.7314
16625TIP3    H271367   6.760   2.745  14.402  1.0209 -1.0311  0.4301
16626TIP3   OH271368   6.545   5.985  11.056 -0.2024 -0.8236 -0.4930
16626TIP3    H171369   6.580   5.969  11.143  0.6455 -0.4284 -0.7472
16626TIP3    H271370   6.607   6.047  11.016 -0.0163 -1.7468 -1.7112
16627TIP3   OH271371   0.869   2.128  11.063  0.3595 -0.2274  0.0827
16627TIP3    H171372   0.891   2.117  10.970 -1.1985 -1.8323 -0.1600
16627TIP3    H271373   0.947   2.167  11.102  0.6234  1.6663 -2.1062
16628TIP3   OH271374   2.353   0.706   3.647  0.0503  0.4979 -0.9073
16628TIP3    H171375   2.293   0.665   3.709  0.1788  1.5371 -0.0749
16628TIP3    H271376   2.306   0.783   3.616  1.9830  3.1376  2.0666
16629TIP3   OH271377   4.362   3.463   2.908  0.7623 -0.1967  0.3709
16629TIP3    H171378   4.291   3.405   2.935  1.3901  0.3990  3.7469
16629TIP3    H271379   4.409   3.414   2.841 -1.6527 -1.4006 -0.5645
16630TIP3   OH271380   4.834   1.386  13.747 -0.1945 -0.4134 -0.5178
16630TIP3    H171381   4.770   1.331  13.792 -1.2282  0.8529 -0.3780
16630TIP3    H271382   4.784   1.428  13.676  0.7492 -0.2410 -1.0995
16631TIP3   OH271383   3.150   3.868   0.854  0.5527  0.4605 -0.1698
16631TIP3    H171384   3.080   3.919   0.895  1.8670  3.3228 -1.1480
16631TIP3    H271385   3.108   3.822   0.782 -0.8033 -0.3603  1.0930
16632TIP3   OH271386   3.025   4.592  10.696  0.7321 -0.3401  0.5604
16632TIP3    H171387   3.085   4.664  10.674  0.7346 -0.2237  0.9373
16632TIP3    H271388   2.959   4.594  10.627 -1.3444  2.3440  2.3991
16633TIP3   OH271389   6.157   2.437   1.847  0.1174  0.3691 -0.5390
16633TIP3    H171390   6.170   2.438   1.942 -1.2194  0.7887 -0.3506
16633TIP3    H271391   6.178   2.526   1.819 -0.1961  0.4445 -0.5354
16634TIP3   OH271392   2.734   6.526   0.735 -0.1968  0.1856  0.0857
16634TIP3    H171393   2.765   6.436   0.741 -0.8818 -0.0804 -0.2497
16634TIP3    H271394   2.801   6.577   0.779  0.4893 -0.4214 -0.2264
16635TIP3   OH271395   0.372   5.593  15.288  0.3307 -0.0581 -0.3684
16635TIP3    H171396   0.385   5.627  15.200  0.9354  1.6079  0.3217
16635TIP3    H271397   0.280   5.565  15.290 -0.0032  0.9074 -1.2100
16636TIP3   OH271398   2.887   2.349  16.859  0.2147  0.1494 -0.1113
16636TIP3    H171399   2.828   2.277  16.837  0.1051  0.3723 -0.5354
16636TIP3    H271400   2.857   2.423  16.807  0.7206  0.3319 -0.1555
16637TIP3   OH271401   6.217   6.508  12.696  0.0621  0.3017 -0.0354
16637TIP3    H171402   6.255   6.591  12.666  1.5166 -0.2741  0.1157
16637TIP3    H271403   6.216   6.515  12.791 -0.0101  0.2207 -0.0295
16638TIP3   OH271404   4.300   5.377   4.901  0.3794 -0.0764 -0.2287
16638TIP3    H171405   4.269   5.287   4.904  1.5222 -0.4749  0.3329
16638TIP3    H271406   4.352   5.382   4.821 -0.8697  0.5128 -1.0308
16639TIP3   OH271407   4.030   5.389   4.662  0.6734  0.0633 -0.1292
16639TIP3    H171408   4.001   5.417   4.749 -1.1955 -1.6746 -0.1101
16639TIP3    H271409   4.058   5.298   4.674 -0.4442 -0.4981 -1.4698
16640TIP3   OH271410   1.345   6.623  16.666 -0.4424 -0.2554 -0.6458
16640TIP3    H171411   1.423   6.576  16.636 -0.4578  0.3067 -1.5780
16640TIP3    H271412   1.364   6.715  16.647  0.6409  0.5404  3.3441
16641TIP3   OH271413   6.454   0.082   5.394  0.0663  0.2153  0.1288
16641TIP3    H171414   6.360   0.087   5.406  0.0622  0.7050 -0.0868
16641TIP3    H271415   6.491   0.130   5.468  0.1409  0.2822  0.0483
16642TIP3   OH271416   1.590   5.620  10.882 -0.3165 -0.4006 -0.4526
16642TIP3    H171417   1.508   5.572  10.888 -0.5195  0.0867  1.6951
16642TIP3    H271418   1.613   5.639  10.973  1.4611  0.6763 -1.0723
16643TIP3   OH271419   0.154   5.801  14.669  0.4543  0.4282  0.3578
16643TIP3    H171420   0.225   5.738  14.684 -0.3486 -0.7089 -0.4228
16643TIP3    H271421   0.167   5.869  14.735  1.4289 -0.5009  1.1471
16644TIP3   OH271422   0.503   2.514  16.399  0.3139  0.1473 -0.0055
16644TIP3    H171423   0.526   2.421  16.391 -2.1046 -0.6215  1.0915
16644TIP3    H271424   0.578   2.553  16.446  1.5642 -1.1246 -0.8617
16645TIP3   OH271425   5.082   2.351  13.698 -0.2575 -0.1607 -0.3072
16645TIP3    H171426   5.115   2.339  13.609  0.7349  1.2394 -0.1748
16645TIP3    H271427   5.138   2.295  13.752  1.2555  1.3019 -0.2349
16646TIP3   OH271428   2.752   6.147   4.423  0.2018  0.1196 -0.0471
16646TIP3    H171429   2.706   6.108   4.497  0.0339 -0.0282 -0.2307
16646TIP3    H271430   2.799   6.222   4.461 -1.0480  0.9371 -0.0411
16647TIP3   OH271431   6.063   6.590   0.595 -0.6127  0.0070  0.0633
16647TIP3    H171432   6.104   6.580   0.509  0.0137  1.0039  0.2197
16647TIP3    H271433   6.079   6.682   0.618 -1.2546 -0.1048  0.9983
16648TIP3   OH271434   4.966   1.266  12.517  0.1499 -0.2415 -0.9369
16648TIP3    H171435   4.965   1.172  12.531  0.5727 -0.1972 -0.5610
16648TIP3    H271436   4.919   1.279  12.435  0.0134 -0.7705 -0.9457
16649TIP3   OH271437   0.731   0.729   0.673 -0.2322 -0.2477  0.6159
16649TIP3    H171438   0.807   0.675   0.698 -1.4698 -1.4321  1.9781
16649TIP3    H271439   0.700   0.766   0.756 -2.0351 -1.0201  0.3277
16650TIP3   OH271440   4.219   0.553  16.942 -0.2953  0.1801 -0.4295
16650TIP3    H171441   4.287   0.611  16.978 -1.1464  1.1431 -0.3199
16650TIP3    H271442   4.265   0.499  16.877  1.0362 -0.7758  1.2255
16651TIP3   OH271443   6.455   5.464   3.151 -0.1609 -0.2100  0.0552
16651TIP3    H171444   6.515   5.391   3.162  0.2829 -0.1937 -1.8967
16651TIP3    H271445   6.491   5.534   3.206 -0.4171 -1.3020  1.6908
16652TIP3   OH271446   3.338   6.689  11.649 -0.2769 -0.2995  0.4545
16652TIP3    H171447   3.316   6.596  11.656 -0.8011 -0.2188 -0.0809
16652TIP3    H271448   3.351   6.704  11.556 -1.1869  0.3820  0.4233
16653TIP3   OH271449   1.351   3.524   1.497 -0.2749  0.0614  0.4020
16653TIP3    H171450   1.415   3.468   1.540 -0.1990 -0.1908 -0.0319
16653TIP3    H271451   1.276   3.526   1.556  0.2970  0.7144  1.1236
16654TIP3   OH271452   0.190   0.517   5.567 -0.5079 -0.1885 -0.2688
16654TIP3    H171453   0.190   0.484   5.478  0.9317  0.1291 -0.4110
16654TIP3    H271454   0.230   0.604   5.560  0.0192 -0.3350  0.7286
16655TIP3   OH271455   1.622   3.208  14.852 -0.2933 -0.8618 -0.0242
16655TIP3    H171456   1.577   3.213  14.768 -1.2808 -1.3644  0.4605
16655TIP3    H271457   1.671   3.290  14.857  1.9475 -1.9160 -2.2623
16656TIP3   OH271458   0.661   5.791   4.472 -0.0205 -0.1178 -0.4456
16656TIP3    H171459   0.623   5.775   4.385 -0.5301  0.0529 -0.2574
16656TIP3    H271460   0.755   5.778   4.459  0.2933  2.5135 -1.6831
16657TIP3   OH271461   6.741   4.359  15.762 -0.2717 -0.1176  0.6237
16657TIP3    H171462   6.788   4.405  15.692 -1.8538 -0.3381 -0.6292
16657TIP3    H271463   6.740   4.421  15.835 -1.3509  1.4350 -0.6441
16658TIP3   OH271464   3.738   2.776  11.749  0.0937 -0.1867 -0.1318
16658TIP3    H171465   3.801   2.832  11.703  0.0979  0.0521  0.1621
16658TIP3    H271466   3.745   2.801  11.841 -1.4072  0.8527 -0.2543
16659TIP3   OH271467   2.469   0.101  14.558  0.3380 -0.5324 -0.2187
16659TIP3    H171468   2.524   0.153  14.499 -0.7153  0.8141 -0.0738
16659TIP3    H271469   2.423   0.041  14.500  0.4106 -0.2259 -0.6036
16660TIP3   OH271470   2.017   4.247  12.585 -0.8002  0.2637  0.2436
16660TIP3    H171471   1.999   4.224  12.493  0.4415  0.4479 -0.0671
16660TIP3    H271472   2.033   4.341  12.583 -0.2552  0.1822  0.5523
16661TIP3   OH271473   2.202   4.363  15.849  0.0433  0.3166 -0.4115
16661TIP3    H171474   2.139   4.434  15.837 -0.7411 -0.4642 -1.1065
16661TIP3    H271475   2.285   4.407  15.866 -0.3479  1.4041 -1.1779
16662TIP3   OH271476   2.344   6.308  12.748  0.2016 -0.2001  0.3816
16662TIP3    H171477   2.329   6.393  12.791  3.0594  0.9316 -0.5869
16662TIP3    H271478   2.386   6.255  12.816 -2.1592 -1.1512  1.1843
16663TIP3   OH271479   0.685   1.313   2.652  0.2841 -0.0216 -0.1077
16663TIP3    H171480   0.596   1.346   2.665 -0.5744 -1.7928 -1.2213
16663TIP3    H271481   0.720   1.302   2.740  0.3378  2.9587  0.3511
16664TIP3   OH271482   5.193   3.947  14.922  0.1675  0.0126 -0.8168
16664TIP3    H171483   5.136   3.926  14.848 -0.5717 -1.2532  0.0618
16664TIP3    H271484   5.187   3.870  14.979  0.1729  1.2287  0.8932
16665TIP3   OH271485   5.554   0.397  16.620  0.0970  0.1306  0.3252
16665TIP3    H171486   5.532   0.321  16.674 -1.3450 -1.0233 -1.7515
16665TIP3    H271487   5.649   0.399  16.618  0.1686 -0.7863  1.5239
16666TIP3   OH271488   3.771   0.938   5.682 -0.8080 -0.3522 -0.3445
16666TIP3    H171489   3.857   0.928   5.642 -0.3946  0.0797  0.4241
16666TIP3    H271490   3.768   1.028   5.712 -1.7760 -0.1770 -0.9086
16667TIP3   OH271491   0.606   4.112   4.924  0.1905 -0.2474  0.3842
16667TIP3    H171492   0.629   4.090   5.015  2.2593  0.8606  0.1970
16667TIP3    H271493   0.674   4.173   4.897 -1.2222  0.6083 -1.4586
16668TIP3   OH271494   3.478   3.649  14.958 -0.0082 -0.3856 -0.4876
16668TIP3    H171495   3.406   3.711  14.968  0.4561  0.3211 -1.3097
16668TIP3    H271496   3.459   3.579  15.020  0.2840  1.3684  1.6930
16669TIP3   OH271497   5.405   0.953   5.108 -0.1932  0.3379 -0.5081
16669TIP3    H171498   5.380   0.970   5.017  1.4657  3.8850 -0.4827
16669TIP3    H271499   5.374   1.030   5.156  0.3898 -0.6846  1.6393
16670TIP3   OH271500   2.886   6.032   5.416 -0.3631  0.0324  0.0571
16670TIP3    H171501   2.826   6.060   5.348 -1.8032 -0.4774  1.0754
16670TIP3    H271502   2.852   5.947   5.445  0.4571  0.0429  1.1181
16671TIP3   OH271503   2.099   2.018   3.584  0.4982  0.3895 -0.5771
16671TIP3    H171504   2.120   2.027   3.491 -0.4652  0.6729 -0.7743
16671TIP3    H271505   2.006   2.038   3.590  1.1724  3.8682  0.9131
16672TIP3   OH271506   1.044   2.600  14.815 -0.0215 -0.6399  0.0984
16672TIP3    H171507   1.038   2.530  14.751 -0.6152 -0.9618  0.5032
16672TIP3    H271508   1.137   2.622  14.819 -0.1742  0.7727 -2.3508
16673TIP3   OH271509   0.482   6.440  11.957 -0.1578 -0.6496 -0.2155
16673TIP3    H171510   0.388   6.426  11.971 -0.1246 -0.1209  0.5441
16673TIP3    H271511   0.507   6.505  12.022  0.9809 -1.6397  0.3834
16674TIP3   OH271512   1.676   6.558  12.081  0.0844  0.0552 -0.7968
16674TIP3    H171513   1.657   6.641  12.124  1.9154  0.5522 -0.8711
16674TIP3    H271514   1.597   6.506  12.093  0.1167  0.5675  2.1738
16675TIP3   OH271515   5.923   0.125   2.758  0.2872 -0.4467  0.6287
16675TIP3    H171516   5.962   0.075   2.830 -1.4149 -0.0828  1.8682
16675TIP3    H271517   5.837   0.153   2.792  0.3783  1.6880 -0.7043
16676TIP3   OH271518   3.305   0.714   0.561  0.0026  0.5507 -0.2350
16676TIP3    H171519   3.277   0.787   0.507  1.4877 -0.4814 -2.5408
16676TIP3    H271520   3.359   0.753   0.629 -0.4776  1.7153 -0.5028
16677TIP3   OH271521   0.891   4.732  10.250 -0.4833  0.3792  0.2823
16677TIP3    H171522   0.860   4.751  10.162 -3.2047 -2.3541  0.5140
16677TIP3    H271523   0.917   4.640  10.248  1.5482  0.8429  1.8271
16678TIP3   OH271524   2.117   6.286  13.448 -0.2205 -0.2700 -0.1729
16678TIP3    H171525   2.113   6.343  13.524 -0.3438 -0.5351  0.0223
16678TIP3    H271526   2.043   6.313  13.394 -0.5368 -0.5343  0.1261
16679TIP3   OH271527   0.748   6.425   4.897 -0.1786  0.3384 -0.5116
16679TIP3    H171528   0.788   6.490   4.840  2.1934  0.6581  1.3741
16679TIP3    H271529   0.820   6.366   4.921 -1.1813 -0.0726  1.7247
16680TIP3   OH271530   6.211   0.487   3.658  0.0105  0.4194 -0.4143
16680TIP3    H171531   6.260   0.437   3.723 -0.7912 -2.6733 -2.0025
16680TIP3    H271532   6.190   0.569   3.702  0.5049 -1.0163  2.7864
16681TIP3   OH271533   4.643   4.753   2.769 -0.5152  0.2008 -0.6905
16681TIP3    H171534   4.644   4.770   2.863  0.0351 -0.1023 -0.6377
16681TIP3    H271535   4.584   4.819   2.733  0.7422  1.5568 -0.3550
16682TIP3   OH271536   1.160   3.704   2.564 -0.2294  0.4348 -0.4679
16682TIP3    H171537   1.224   3.644   2.604 -2.1702 -1.7241 -0.3733
16682TIP3    H271538   1.101   3.727   2.635 -0.9249  0.4637 -1.0468
16683TIP3   OH271539   6.633   4.231  12.165  0.0360 -0.7783 -0.2063
16683TIP3    H171540   6.721   4.223  12.128 -0.1262 -1.7904 -0.4154
16683TIP3    H271541   6.576   4.244  12.089  0.1809  1.8931  0.0580
16684TIP3   OH271542   5.009   3.587  15.206  0.7703 -0.0990  0.0006
16684TIP3    H171543   5.084   3.570  15.265  0.0611 -0.0431  0.9436
16684TIP3    H271544   5.009   3.513  15.146  2.1827  0.3962 -0.6664
16685TIP3   OH271545   3.558   5.769   1.526  0.2125  0.1029  0.3929
16685TIP3    H171546   3.595   5.847   1.485 -1.5814 -0.4172 -2.5791
16685TIP3    H271547   3.633   5.709   1.534  0.9246  0.7248 -1.0744
16686TIP3   OH271548   4.467   3.067   6.288 -0.3837  0.1565 -0.1719
16686TIP3    H171549   4.430   2.980   6.303 -1.1217  0.5103  0.1564
16686TIP3    H271550   4.392   3.120   6.261  0.3948  0.2264 -2.3750
16687TIP3   OH271551   3.800   4.457   0.546 -0.5781  0.6547 -0.1480
16687TIP3    H171552   3.893   4.479   0.537  0.1319 -2.0645 -0.6719
16687TIP3    H271553   3.763   4.474   0.459 -0.1818  0.3106 -0.3907
16688TIP3   OH271554   1.039   3.323   3.571  0.2093  0.7575 -0.5490
16688TIP3    H171555   1.035   3.294   3.480 -0.3514  1.1278 -0.6484
16688TIP3    H271556   0.947   3.330   3.598  0.1950  3.9926 -1.0368
16689TIP3   OH271557   5.811   2.037  11.561  0.2090  0.6280 -0.4421
16689TIP3    H171558   5.734   2.094  11.567 -0.6017 -0.1212 -2.8141
16689TIP3    H271559   5.782   1.954  11.598  0.2912  0.7093 -0.1900
16690TIP3   OH271560   5.053   5.595  16.357 -0.4578 -0.6446  0.1091
16690TIP3    H171561   5.058   5.557  16.270  1.8060  1.7452 -0.9423
16690TIP3    H271562   5.018   5.683  16.343 -0.4544 -0.3732  1.6549
16691TIP3   OH271563   2.768   2.363   1.708  0.2111  0.0268  0.5588
16691TIP3    H171564   2.673   2.368   1.710  0.2353  3.3047 -0.6121
16691TIP3    H271565   2.797   2.443   1.752  2.3896 -0.4672  0.1335
16692TIP3   OH271566   0.505   2.519  15.167 -0.1601 -0.2331 -0.0933
16692TIP3    H171567   0.470   2.603  15.138 -1.8335 -0.4260  1.1853
16692TIP3    H271568   0.567   2.493  15.098 -1.4738  0.8532 -1.7615
16693TIP3   OH271569   2.856   0.584  16.056  0.1936  0.1452  0.0446
16693TIP3    H171570   2.884   0.500  16.020  0.3691 -0.1115  0.7470
16693TIP3    H271571   2.916   0.648  16.019  0.6231 -0.1639  0.1992
16694TIP3   OH271572   4.458   6.064   1.699  0.0036  0.6077  1.0559
16694TIP3    H171573   4.507   6.135   1.741  0.5201 -0.2972  2.0501
16694TIP3    H271574   4.369   6.073   1.733  0.1533  0.5658  1.4631
16695TIP3   OH271575   2.258   2.194  12.994  0.3016 -0.2776  0.0356
16695TIP3    H171576   2.229   2.140  12.920  2.9993  0.0987 -1.4547
16695TIP3    H271577   2.222   2.281  12.975  0.1399 -0.4220 -0.3323
16696TIP3   OH271578   4.943   1.699  12.776 -0.0913 -0.2030 -0.3924
16696TIP3    H171579   4.996   1.777  12.791 -0.8746  0.2889 -0.1316
16696TIP3    H271580   4.980   1.633  12.835 -0.0867  0.2807  0.1524
16697TIP3   OH271581   0.557   2.123  10.157  0.7124 -0.0963 -0.5973
16697TIP3    H171582   0.652   2.123  10.153  0.7193 -1.2759 -0.8186
16697TIP3    H271583   0.532   2.034  10.131 -0.3913 -0.1964  0.7326
16698TIP3   OH271584   5.935   6.693   0.888  0.0378 -0.4777 -0.1830
16698TIP3    H171585   5.908   6.604   0.868  1.0274 -1.1350  1.2332
16698TIP3    H271586   6.027   6.685   0.913  0.0715  0.9026  0.2050
16699TIP3   OH271587   2.779   2.736   1.043  0.0297  0.0710  0.0899
16699TIP3    H171588   2.743   2.741   0.954  1.3520 -2.0829 -0.6426
16699TIP3    H271589   2.873   2.746   1.032  0.0800  1.6781  1.5305
16700TIP3   OH271590   6.552   6.689   6.337 -0.2318  0.5911  0.1142
16700TIP3    H171591   6.569   6.598   6.313  1.2050  0.8459  0.0808
16700TIP3    H271592   6.458   6.692   6.357 -0.9592 -0.2518 -2.7181
16701TIP3   OH271593   0.205   4.131  14.080  0.4087  0.0702  0.3934
16701TIP3    H171594   0.117   4.103  14.103  0.7352 -1.4964 -0.1228
16701TIP3    H271595   0.211   4.221  14.112 -1.7630  0.6367 -0.6115
16702TIP3   OH271596   0.954   4.636   0.372 -0.1234  0.2413 -0.1893
16702TIP3    H171597   1.028   4.599   0.419 -0.2091  0.1823 -0.1006
16702TIP3    H271598   0.985   4.722   0.343 -0.7052  1.1510  1.6845
16703TIP3   OH271599   1.836   2.731  16.537 -0.0331 -0.4370 -0.2431
16703TIP3    H171600   1.747   2.724  16.570 -0.5556  0.1546 -1.4806
16703TIP3    H271601   1.880   2.653  16.570 -1.3718 -1.4269 -0.7139
16704TIP3   OH271602   2.570   1.597  15.842 -0.3528 -0.2841  0.0603
16704TIP3    H171603   2.610   1.683  15.834 -1.6837  0.4242  0.6500
16704TIP3    H271604   2.560   1.567  15.751 -1.5745  1.0362 -0.2904
16705TIP3   OH271605   2.372   6.205  13.566  0.5345  0.5002 -0.7514
16705TIP3    H171606   2.332   6.133  13.616  2.3955 -0.0281  0.0598
16705TIP3    H271607   2.299   6.243  13.517 -1.0598 -0.0190  1.1008
16706TIP3   OH271608   5.611   5.562  15.220  0.0963  0.1731 -0.0473
16706TIP3    H171609   5.697   5.566  15.178 -0.0543 -0.1924 -0.4073
16706TIP3    H271610   5.574   5.649  15.208  1.4102  1.1340  2.3045
16707TIP3   OH271611   6.816   4.660   4.134  0.5980 -0.0665  0.9154
16707TIP3    H171612   6.784   4.628   4.219 -0.5429  1.7070  1.1932
16707TIP3    H271613   6.737   4.674   4.082  1.0486  1.9313  0.7027
16708TIP3   OH271614   5.969   3.959   3.057  1.2063  0.2817 -0.2206
16708TIP3    H171615   5.952   3.880   3.004  0.9588 -0.5169  1.0100
16708TIP3    H271616   6.048   3.997   3.018  0.0933  0.6748 -2.2293
16709TIP3   OH271617   1.556   3.958   2.354  0.8367  0.0326  0.6150
16709TIP3    H171618   1.479   3.928   2.307  0.9977  1.0921 -0.3887
16709TIP3    H271619   1.526   3.971   2.444  0.3011 -1.1962  0.6365
16710TIP3   OH271620   2.699   2.705  12.961 -0.3685  0.1763  0.1364
16710TIP3    H171621   2.630   2.709  13.026 -0.7493 -1.5552 -0.1050
16710TIP3    H271622   2.772   2.662  13.005 -0.4581 -0.5690 -0.4142
16711TIP3   OH271623   0.467   6.187   2.500 -0.5113 -0.3607  0.4048
16711TIP3    H171624   0.477   6.226   2.587  1.0468 -1.1080  0.5955
16711TIP3    H271625   0.540   6.126   2.493 -0.6670 -0.3891 -1.3986
16712TIP3   OH271626   0.428   2.116  13.346  0.3302  1.0429  0.4915
16712TIP3    H171627   0.494   2.065  13.299  1.1112  0.6189  2.0011
16712TIP3    H271628   0.451   2.208  13.327 -0.1394  0.8987 -0.9501
16713TIP3   OH271629   4.507   4.710  12.607  0.0074 -0.2115 -0.3675
16713TIP3    H171630   4.591   4.670  12.631  1.0343  1.1665 -1.5093
16713TIP3    H271631   4.471   4.741  12.690  0.6328 -0.8112  0.1433
16714TIP3   OH271632   6.576   5.816   4.575 -0.1110 -0.0930 -0.2537
16714TIP3    H171633   6.596   5.754   4.645  4.6328  0.3096 -0.9492
16714TIP3    H271634   6.560   5.899   4.620  0.6455 -0.3270  0.4726
16715TIP3   OH271635   0.078   0.808   4.690  0.2321 -0.4138  0.4699
16715TIP3    H171636  -0.004   0.817   4.739  0.1925  0.1757  0.2976
16715TIP3    H271637   0.052   0.782   4.602  0.3092 -1.5803  0.7716
16716TIP3   OH271638   4.835   0.857   3.070  0.0836  0.4050 -0.6874
16716TIP3    H171639   4.835   0.949   3.042  0.2267  0.4534 -0.5328
16716TIP3    H271640   4.872   0.809   2.996 -1.8473  0.2068 -1.5953
16717TIP3   OH271641   0.313   4.692  10.722 -0.8894 -0.1152  0.0943
16717TIP3    H171642   0.396   4.715  10.763 -0.8526 -0.2743  0.1083
16717TIP3    H271643   0.316   4.733  10.635 -0.7351 -0.2479  0.0381
16718TIP3   OH271644   0.548   1.123  16.664  0.8055 -0.4192  0.3731
16718TIP3    H171645   0.616   1.190  16.659 -0.5285  0.9729  0.2457
16718TIP3    H271646   0.469   1.170  16.691 -0.2807 -1.8677 -0.1243
16719TIP3   OH271647   1.922   1.483  14.256 -0.2250  0.6043  0.3403
16719TIP3    H171648   1.829   1.480  14.276 -0.6921 -4.4166 -1.2136
16719TIP3    H271649   1.960   1.410  14.307  2.0959  0.1638 -1.8176
16720TIP3   OH271650   6.525   3.718   2.401 -0.5156 -0.1346 -0.3750
16720TIP3    H171651   6.584   3.782   2.441 -0.8003  0.2251 -0.5294
16720TIP3    H271652   6.571   3.634   2.410  0.0603  0.1542 -0.5732
16721TIP3   OH271653   3.674   5.162  16.618 -0.1350 -0.5993  0.2083
16721TIP3    H171654   3.710   5.194  16.701  1.0806 -0.7470 -0.2437
16721TIP3    H271655   3.579   5.163  16.631 -0.0097  0.5362  1.1661
16722TIP3   OH271656   2.087   6.640  12.458 -0.1155  0.4453  0.0821
16722TIP3    H171657   2.181   6.626  12.447 -0.2363 -0.4941  0.1661
16722TIP3    H271658   2.054   6.658  12.370 -0.1221 -0.9709 -0.2215
16723TIP3   OH271659   3.762   5.306  14.259  0.5776 -0.2837  0.1887
16723TIP3    H171660   3.817   5.282  14.185  2.1184  3.0707  0.0820
16723TIP3    H271661   3.822   5.344  14.323 -1.3423  2.0570  0.7537
16724TIP3   OH271662   4.290   0.340   5.820  0.0173 -0.0157  0.8704
16724TIP3    H171663   4.210   0.335   5.871 -1.0551  0.4037 -0.7131
16724TIP3    H271664   4.265   0.312   5.732  0.6278  3.7083 -0.6795
16725TIP3   OH271665   6.840   5.389  15.718 -0.0123  0.3199 -0.0361
16725TIP3    H171666   6.909   5.366  15.781  1.0473  0.0012 -1.2693
16725TIP3    H271667   6.759   5.363  15.761  0.3390  2.9072  2.5071
16726TIP3   OH271668   4.190   5.524   0.342  0.3082  0.3497 -0.1287
16726TIP3    H171669   4.130   5.518   0.416  0.0546  0.1262 -0.3454
16726TIP3    H271670   4.155   5.461   0.278  0.5641  0.4854 -0.4065
16727TIP3   OH271671   0.660   6.085  14.317 -0.3111  0.1613  0.5258
16727TIP3    H171672   0.608   6.012  14.350  1.2451 -0.5367  1.5698
16727TIP3    H271673   0.696   6.054  14.234 -2.4795  1.1132 -0.8575
16728TIP3   OH271674   1.979   0.307  13.747  0.6240  0.2561 -0.3790
16728TIP3    H171675   1.909   0.289  13.683  1.5957 -1.1340 -1.0908
16728TIP3    H271676   2.047   0.351  13.696  1.0361 -0.0461 -0.0908
16729TIP3   OH271677   0.840   0.236   1.795  0.1747 -0.2495 -0.2378
16729TIP3    H171678   0.860   0.195   1.879  0.2626  0.9382  0.3278
16729TIP3    H271679   0.761   0.191   1.765  0.5461 -1.1730  0.1243
16730TIP3   OH271680   4.606   5.094   5.459  0.5623  0.0927  0.4412
16730TIP3    H171681   4.649   5.138   5.532  1.1111  0.3713 -0.0455
16730TIP3    H271682   4.630   5.002   5.468  2.7081  0.4658 -0.7813
16731TIP3   OH271683   3.592   0.080   5.409 -0.4505 -0.9252  0.1606
16731TIP3    H171684   3.633   0.094   5.323 -0.0855  3.6637  0.8287
16731TIP3    H271685   3.530   0.152   5.418  0.8457 -0.0734  4.3997
16732TIP3   OH271686   2.697   2.422   2.411  0.0549  0.1577  0.0364
16732TIP3    H171687   2.645   2.453   2.486 -0.3001  0.3186 -0.2737
16732TIP3    H271688   2.783   2.462   2.424  0.3939 -0.8494  1.0499
16733TIP3   OH271689   4.269   1.597  10.807 -0.0761 -0.0620  0.4875
16733TIP3    H171690   4.265   1.522  10.866  1.6759  0.9243  1.9878
16733TIP3    H271691   4.268   1.559  10.719  0.7980 -1.8545  1.2056
16734TIP3   OH271692   6.673   5.197   4.512 -0.1766  0.4648 -0.4873
16734TIP3    H171693   6.768   5.207   4.505  0.1982 -2.2446 -0.4012
16734TIP3    H271694   6.642   5.208   4.422  0.1600  1.6639 -0.4715
16735TIP3   OH271695   4.326   2.749   4.086 -0.8349 -1.0071  0.1882
16735TIP3    H171696   4.412   2.742   4.127 -1.6163 -1.2790  1.8498
16735TIP3    H271697   4.302   2.841   4.099 -1.7580 -1.4367  1.8472
16736TIP3   OH271698   0.445   6.269  14.335  0.0648 -0.2748 -0.0621
16736TIP3    H171699   0.467   6.339  14.396  1.9742 -0.5894 -0.3346
16736TIP3    H271700   0.528   6.225  14.318 -0.4095 -0.3003 -2.7739
16737TIP3   OH271701   1.132   4.656  13.800  0.3132 -0.2675 -0.2495
16737TIP3    H171702   1.141   4.748  13.773 -1.3234  0.6964  2.0933
16737TIP3    H271703   1.082   4.615  13.730 -2.4200  1.7121  0.3643
16738TIP3   OH271704   0.977   6.169   1.997  0.0169 -0.4768  0.0168
16738TIP3    H171705   0.996   6.172   2.090 -0.5840 -2.3558  0.2380
16738TIP3    H271706   0.881   6.173   1.992  0.0690  0.2138 -0.5589
16739TIP3   OH271707   6.458   4.455  13.444  0.2374  0.4850 -0.5845
16739TIP3    H171708   6.379   4.419  13.484  0.4062 -0.3379 -0.9763
16739TIP3    H271709   6.434   4.469  13.353  0.8150 -0.6438 -0.9215
16740TIP3   OH271710   1.992   3.450   3.801  0.1764  0.0179 -0.4900
16740TIP3    H171711   2.049   3.453   3.878  0.4083 -0.0624 -0.6568
16740TIP3    H271712   2.025   3.519   3.744  0.4386 -0.3752 -0.8156
16741TIP3   OH271713   2.864   5.336   5.106 -0.4097 -0.3160 -0.6653
16741TIP3    H171714   2.842   5.420   5.065  1.2004 -1.1166 -3.4368
16741TIP3    H271715   2.944   5.308   5.062  0.6654 -2.0708  2.1177
16742TIP3   OH271716   3.931   2.342  16.920  0.0139  0.4476  0.4996
16742TIP3    H171717   3.896   2.417  16.968 -1.8889 -0.0707  0.0179
16742TIP3    H271718   3.962   2.282  16.989 -0.7452  0.6181  1.0019
16743TIP3   OH271719   2.041   0.655  13.327 -0.4707 -0.5418  0.0645
16743TIP3    H171720   2.077   0.742  13.348  0.9541 -1.2583  0.6974
16743TIP3    H271721   2.040   0.652  13.232 -1.7768  0.6478 -0.0037
16744TIP3   OH271722   0.676   0.929  16.525 -0.1651  0.0463 -0.1236
16744TIP3    H171723   0.705   0.962  16.440  1.2878  0.4002  0.4910
16744TIP3    H271724   0.632   1.004  16.565  1.7042  0.8221  0.5983
16745TIP3   OH271725   5.914   5.082  12.614  0.5035  0.7599 -0.1621
16745TIP3    H171726   6.004   5.112  12.629  0.2009  0.4931  3.1203
16745TIP3    H271727   5.860   5.153  12.649 -0.3890 -0.6871  1.5705
16746TIP3   OH271728   6.357   4.222  13.731 -0.2039 -0.1725 -0.3651
16746TIP3    H171729   6.348   4.278  13.654 -2.1505 -1.4089 -1.0839
16746TIP3    H271730   6.426   4.159  13.708  0.9407  0.9348 -0.1113
16747TIP3   OH271731   4.262   3.707   6.452 -0.0197 -0.0335  0.0695
16747TIP3    H171732   4.277   3.622   6.493 -1.5279 -0.4157 -0.0997
16747TIP3    H271733   4.193   3.690   6.387 -0.7399  1.4189  0.4153
16748TIP3   OH271734   4.523   1.306   3.850  0.2153  0.4777 -0.7812
16748TIP3    H171735   4.558   1.316   3.939 -1.1794 -1.3586  0.0337
16748TIP3    H271736   4.596   1.332   3.794  2.6733 -2.2159  0.8489
16749TIP3   OH271737   1.074   2.835  10.356  0.0728 -0.1349  0.1920
16749TIP3    H171738   1.100   2.925  10.334  1.4296 -0.8749 -1.5134
16749TIP3    H271739   1.152   2.798  10.397 -0.1730 -0.7825  0.0834
16750TIP3   OH271740   1.819   1.375   2.263 -0.3795 -0.8069 -0.2474
16750TIP3    H171741   1.811   1.451   2.321 -0.7367 -0.0454 -1.2653
16750TIP3    H271742   1.729   1.350   2.242 -0.3109 -2.3615  1.1109
16751TIP3   OH271743   6.415   6.116  16.500  0.6676  0.0652 -0.3003
16751TIP3    H171744   6.414   6.040  16.558 -0.5313  0.4977  0.2573
16751TIP3    H271745   6.323   6.133  16.479  1.0359  0.0910 -2.1250
16752TIP3   OH271746   0.440   4.465  13.035 -0.2425  0.2051  0.0073
16752TIP3    H171747   0.376   4.431  12.973 -0.1253  1.1987 -0.6813
16752TIP3    H271748   0.389   4.494  13.110 -0.4936  0.0473 -0.1026
16753TIP3   OH271749   0.204   0.160  16.845 -0.1917 -0.2601  0.5809
16753TIP3    H171750   0.254   0.115  16.777  0.4215 -0.3978  1.1116
16753TIP3    H271751   0.265   0.168  16.918 -0.7055  0.2725  0.9630
16754TIP3   OH271752   0.112   6.343  11.342  0.0515  0.1154  0.4315
16754TIP3    H171753   0.093   6.396  11.264  0.2856 -0.0745  0.2407
16754TIP3    H271754   0.181   6.392  11.388 -0.8561  0.7870  1.1079
16755TIP3   OH271755   5.904   3.652  16.878  0.0112 -0.3699 -0.2083
16755TIP3    H171756   5.809   3.659  16.884  0.0574  1.2329 -0.8600
16755TIP3    H271757   5.923   3.673  16.786  1.0173 -0.2672  0.0133
16756TIP3   OH271758   5.057   4.350  16.473 -0.2573 -0.0343 -0.0853
16756TIP3    H171759   5.045   4.331  16.566 -0.0667 -1.3253 -0.3014
16756TIP3    H271760   4.981   4.404  16.449 -1.7196 -1.8373  0.2639
16757TIP3   OH271761   0.995   1.843   0.031  0.0723  0.0229  0.7279
16757TIP3    H171762   0.936   1.769   0.020 -0.4535  0.4896  0.3666
16757TIP3    H271763   1.010   1.877  -0.057  1.3125 -0.4077  0.7516
16758TIP3   OH271764   1.882   0.462  10.241 -0.2403 -0.1027  0.5252
16758TIP3    H171765   1.842   0.377  10.262  0.4701 -0.5855 -0.0369
16758TIP3    H271766   1.969   0.440  10.209  0.3322  0.9141  1.3408
16759TIP3   OH271767   1.842   2.600  13.593 -0.8653 -0.2991 -0.1820
16759TIP3    H171768   1.758   2.625  13.554 -1.0471 -0.2067  0.2629
16759TIP3    H271769   1.836   2.629  13.684  0.0252  0.6073 -0.3836
16760TIP3   OH271770   2.538   5.109   5.901  0.2809 -0.4900  0.6054
16760TIP3    H171771   2.544   5.049   5.975 -0.1225 -0.7907  0.4069
16760TIP3    H271772   2.472   5.173   5.928 -0.3476 -0.9720  0.2725
16761TIP3   OH271773   5.743   4.347  13.796 -0.1495  0.4237 -1.1654
16761TIP3    H171774   5.668   4.303  13.836  1.5451 -1.0802  0.5783
16761TIP3    H271775   5.712   4.435  13.777 -1.7893  0.5209  1.4282
16762TIP3   OH271776   3.059   4.999  10.804  0.3014  0.2448 -0.2551
16762TIP3    H171777   3.086   5.030  10.718  2.9495 -0.0693  0.3924
16762TIP3    H271778   3.047   4.904  10.792 -0.6650  0.3941 -0.5577
16763TIP3   OH271779   1.476   3.444  14.104  0.3899 -0.0063 -0.0416
16763TIP3    H171780   1.419   3.512  14.069 -2.1759 -2.2100 -0.4331
16763TIP3    H271781   1.565   3.474  14.084 -0.6789  2.6165 -1.2018
16764TIP3   OH271782   6.687   6.605  14.433  0.2569  0.3402 -0.5907
16764TIP3    H171783   6.636   6.656  14.496 -0.1297  1.5046 -1.7984
16764TIP3    H271784   6.769   6.653  14.423  0.7964 -0.4540 -0.1546
16765TIP3   OH271785   3.826   2.429  16.672  0.0957 -0.0367  0.0526
16765TIP3    H171786   3.864   2.426  16.759  0.9443 -0.3751 -0.3174
16765TIP3    H271787   3.860   2.351  16.628 -0.4979  0.0136 -0.5087
16766TIP3   OH271788   6.147   3.362   4.900 -0.9092 -0.1946 -0.4433
16766TIP3    H171789   6.156   3.430   4.966  0.0497 -0.5014 -0.2424
16766TIP3    H271790   6.237   3.336   4.879 -1.2613 -1.8893  0.0050
16767TIP3   OH271791   5.684   4.924  10.664  0.0719 -0.6594 -0.7547
16767TIP3    H171792   5.704   4.911  10.756 -0.0397 -2.4799 -0.9489
16767TIP3    H271793   5.730   5.004  10.640  0.1950 -0.2274  0.8444
16768TIP3   OH271794   6.263   2.737  15.138 -0.2821  0.2959 -0.3145
16768TIP3    H171795   6.240   2.644  15.146 -2.2165  0.8890  2.7991
16768TIP3    H271796   6.205   2.770  15.069  0.0956 -0.6547 -1.1246
16769TIP3   OH271797   3.329   5.882  10.361  0.2369 -0.0967 -0.7577
16769TIP3    H171798   3.328   5.934  10.441 -1.0076  0.0135 -0.8227
16769TIP3    H271799   3.236   5.868  10.340  0.4970 -2.6818 -0.5220
16770TIP3   OH271800   4.155   5.932   3.843 -0.0602  0.6236  0.0461
16770TIP3    H171801   4.074   5.890   3.816  0.0331  0.0982  0.5625
16770TIP3    H271802   4.223   5.886   3.793  0.0085  0.3940  0.3479
16771TIP3   OH271803   0.451   3.373  11.391  0.2729  0.1163 -0.5009
16771TIP3    H171804   0.533   3.421  11.383 -0.6465  1.7482 -0.7504
16771TIP3    H271805   0.444   3.323  11.310  0.7541  0.4108 -0.7312
16772TIP3   OH271806   5.169   5.946  16.521  0.0805 -0.1465  0.1526
16772TIP3    H171807   5.247   5.917  16.473  0.2729 -1.1831  1.0649
16772TIP3    H271808   5.096   5.922  16.464  0.2614 -1.9632  0.6300
16773TIP3   OH271809   1.968   0.519   1.531  0.6196  0.3483  0.5300
16773TIP3    H171810   1.967   0.437   1.481  1.4631  0.5370  0.1878
16773TIP3    H271811   2.033   0.573   1.486 -1.3669  1.9990 -0.5214
16774TIP3   OH271812   6.798   2.311  16.222 -0.3997 -0.4727 -0.7158
16774TIP3    H171813   6.838   2.225  16.235  0.0290 -0.3645 -1.2597
16774TIP3    H271814   6.707   2.300  16.249 -0.0253 -0.7389  0.4981
16775TIP3   OH271815   4.789   4.177  11.307 -0.1346 -0.2388  0.0775
16775TIP3    H171816   4.828   4.114  11.367  1.1627 -0.0437 -0.5369
16775TIP3    H271817   4.838   4.258  11.320  0.4715 -0.3052 -1.5039
16776TIP3   OH271818   5.875   2.199  16.299  0.1340 -0.2655 -0.3041
16776TIP3    H171819   5.965   2.198  16.332  0.0537 -1.7671 -0.0730
16776TIP3    H271820   5.876   2.140  16.224 -0.6827 -0.3827 -0.2329
16777TIP3   OH271821   2.736   0.603  15.132 -0.3265 -0.3122 -0.0767
16777TIP3    H171822   2.719   0.509  15.124 -1.0277 -0.2075  0.1567
16777TIP3    H271823   2.811   0.619  15.074  0.9898 -1.3410  1.2565
16778TIP3   OH271824   1.427   0.007  11.950  0.3173 -0.5767 -0.4544
16778TIP3    H171825   1.478   0.020  11.870  0.5482  0.3479 -0.1727
16778TIP3    H271826   1.336   0.017  11.923  0.3356 -1.2953 -0.7884
16779TIP3   OH271827   0.444   4.863  16.556  0.9549 -0.1445 -0.0766
16779TIP3    H171828   0.528   4.881  16.512  2.6021 -2.3997  1.8596
16779TIP3    H271829   0.448   4.914  16.637  0.3274 -0.0299 -0.1194
16780TIP3   OH271830   2.417   5.593   2.351 -0.1180  0.3433 -0.6639
16780TIP3    H171831   2.429   5.503   2.379 -1.2185  0.7801  1.3544
16780TIP3    H271832   2.348   5.589   2.285  0.0100 -0.3015 -0.7648
16781TIP3   OH271833   6.460   4.249  17.067 -0.2433 -0.7458  0.1924
16781TIP3    H171834   6.516   4.326  17.071 -0.7824 -0.2208 -1.4904
16781TIP3    H271835   6.444   4.235  16.973 -3.4373 -0.4534  0.5756
16782TIP3   OH271836   6.526   1.039   3.249 -0.1267  0.6615 -0.5114
16782TIP3    H171837   6.454   1.065   3.307 -0.4322  0.3753 -0.7586
16782TIP3    H271838   6.539   0.946   3.267  0.1723  0.7096 -0.4783
16783TIP3   OH271839   1.144   1.737   5.587  0.0211 -0.2177  0.5670
16783TIP3    H171840   1.093   1.818   5.584 -1.8565 -1.3685 -0.6331
16783TIP3    H271841   1.232   1.765   5.612 -0.9305  1.9851  1.7392
16784TIP3   OH271842   4.423   0.842  12.872 -0.4693 -0.7737  0.3954
16784TIP3    H171843   4.385   0.791  12.801 -0.3524  0.0805 -0.2993
16784TIP3    H271844   4.475   0.778  12.922 -0.2981 -1.3319 -0.4700
16785TIP3   OH271845   2.610   6.789   0.425 -0.7755  0.1701  0.8950
16785TIP3    H171846   2.586   6.849   0.354 -1.2865  0.7972  1.5774
16785TIP3    H271847   2.688   6.743   0.393 -1.8615 -0.6689 -0.6840
16786TIP3   OH271848   6.200   4.073  12.659  0.2121 -0.0781 -0.2794
16786TIP3    H171849   6.118   4.111  12.626  0.5587  0.0697 -0.9845
16786TIP3    H271850   6.180   4.050  12.750 -0.7878 -0.5454 -0.5956
16787TIP3   OH271851   1.127   2.578   3.896  0.1520  1.1670 -0.3789
16787TIP3    H171852   1.108   2.484   3.892 -0.2709  1.2194  0.2615
16787TIP3    H271853   1.110   2.609   3.807  0.9820  0.5193 -0.7790
16788TIP3   OH271854   0.666   1.319  17.083 -0.1280  0.4595 -0.2086
16788TIP3    H171855   0.737   1.266  17.119 -0.5089 -1.4784 -2.0745
16788TIP3    H271856   0.674   1.308  16.988 -1.5176  2.1154 -0.5701
16789TIP3   OH271857   3.589   4.689  16.104 -0.2890  0.1067 -0.2770
16789TIP3    H171858   3.623   4.680  16.015  0.5713  0.5690 -0.0085
16789TIP3    H271859   3.625   4.614  16.151  1.0256  0.9895  0.1938
16790TIP3   OH271860   0.896   5.334  15.868  0.6200  0.4980 -0.0800
16790TIP3    H171861   0.934   5.273  15.931 -0.0963  1.1202  0.9803
16790TIP3    H271862   0.802   5.322  15.876  0.4257  2.1995  0.6683
16791TIP3   OH271863   3.017   0.838  16.329  0.3535  0.2370 -0.3889
16791TIP3    H171864   3.014   0.883  16.245 -1.2855 -0.2897 -0.6400
16791TIP3    H271865   2.937   0.786  16.332  0.3534  0.2693  1.5236
16792TIP3   OH271866   5.226   3.115  14.209 -0.1846 -0.0815 -1.2216
16792TIP3    H171867   5.192   3.156  14.289 -0.5837 -2.1677 -0.2715
16792TIP3    H271868   5.293   3.177  14.178  0.8985  0.2245  1.4380
16793TIP3   OH271869   1.207   1.164  14.270  0.1045 -0.3611 -0.3043
16793TIP3    H171870   1.202   1.253  14.235  1.1938 -0.4607 -0.7633
16793TIP3    H271871   1.163   1.169  14.354 -0.4838  0.4428 -0.6480
16794TIP3   OH271872   1.833   6.230  15.224 -0.2707 -0.3886  0.1487
16794TIP3    H171873   1.885   6.173  15.167 -0.5634 -0.8476  0.3295
16794TIP3    H271874   1.892   6.251  15.296  0.4866  1.1390 -0.8793
16795TIP3   OH271875   1.282   2.233   4.755  0.2775  0.1680  0.1827
16795TIP3    H171876   1.215   2.292   4.719 -1.1787  0.7668  3.4758
16795TIP3    H271877   1.321   2.192   4.678 -2.1179  1.6870 -2.0432
16796TIP3   OH271878   3.954   2.616   2.001 -0.5393  0.7318 -0.0639
16796TIP3    H171879   3.995   2.678   2.061  1.2887 -1.0964  0.7067
16796TIP3    H271880   4.008   2.621   1.922  2.0027 -2.3696  1.2869
16797TIP3   OH271881   3.266   4.406   2.372  0.3817 -0.1771  0.0037
16797TIP3    H171882   3.351   4.450   2.375  0.6318 -0.5291 -1.3410
16797TIP3    H271883   3.276   4.331   2.430 -0.0720  1.4834  2.3998
16798TIP3   OH271884   5.983   1.174   5.846  0.0744  0.4334  0.3189
16798TIP3    H171885   6.035   1.161   5.926  0.4610 -2.2820 -0.2557
16798TIP3    H271886   5.908   1.116   5.858 -0.3663  0.7438 -0.8846
16799TIP3   OH271887   1.997   4.782  13.786  0.7728 -0.5296 -0.3404
16799TIP3    H171888   1.940   4.790  13.709 -0.1291 -0.8181  0.2786
16799TIP3    H271889   2.006   4.688  13.800 -2.0214 -0.5711  1.9780
16800TIP3   OH271890   3.341   6.113   3.029 -0.3496 -0.4042 -0.2851
16800TIP3    H171891   3.318   6.064   3.108  2.1789 -1.7157 -0.2829
16800TIP3    H271892   3.263   6.106   2.973 -2.1317  0.4101  1.9275
16801TIP3   OH271893   5.510   5.915   2.927 -0.0356  0.0545 -0.0452
16801TIP3    H171894   5.543   5.960   3.006  1.3867  0.0242 -0.5841
16801TIP3    H271895   5.428   5.875   2.955  0.9721 -0.8886  1.7519
16802TIP3   OH271896   3.007   0.175   2.117  0.6145 -0.6511  0.5994
16802TIP3    H171897   3.092   0.188   2.074  0.9076 -0.9372  1.0825
16802TIP3    H271898   3.028   0.169   2.210 -0.2124  2.0165  1.0432
16803TIP3   OH271899   6.404   2.863  14.872  0.2618 -0.1671 -0.1065
16803TIP3    H171900   6.363   2.777  14.861 -2.5328  0.3609  3.9301
16803TIP3    H271901   6.466   2.850  14.944  0.4287  1.0288 -0.0208
16804TIP3   OH271902   3.375   3.874  16.392 -0.0564 -0.4681  0.3268
16804TIP3    H171903   3.432   3.891  16.317 -0.9811  1.2419 -0.0213
16804TIP3    H271904   3.425   3.904  16.467  0.1835 -0.5785  0.2137
16805TIP3   OH271905   5.052   6.810  12.368 -0.4860  0.1484  0.4570
16805TIP3    H171906   5.001   6.878  12.325 -0.7392 -0.8204 -0.8060
16805TIP3    H271907   5.025   6.815  12.460 -2.6696 -0.1610 -0.1226
16806TIP3   OH271908   5.613   4.266  14.621 -0.1403 -0.6968  0.2370
16806TIP3    H171909   5.613   4.230  14.532 -2.2604  0.6801 -0.4067
16806TIP3    H271910   5.524   4.301  14.632  0.8788  1.5928  1.8861
16807TIP3   OH271911   5.039   0.271  17.097  0.1069 -0.5603  0.6447
16807TIP3    H171912   4.951   0.237  17.078  0.1736  0.3863 -1.6786
16807TIP3    H271913   5.026   0.325  17.175 -1.3003 -0.7784  0.6022
16808TIP3   OH271914   6.493   1.455  10.608 -0.9628  0.3328 -0.2985
16808TIP3    H171915   6.555   1.416  10.670 -1.2440 -0.2762 -0.3908
16808TIP3    H271916   6.534   1.446  10.523 -0.1835  1.9505 -0.1375
16809TIP3   OH271917   5.559   5.593  16.092 -0.1920  0.1991 -0.5360
16809TIP3    H171918   5.493   5.533  16.126 -0.9478  1.6706  0.7342
16809TIP3    H271919   5.557   5.580  15.997  0.7252 -2.7843 -0.2669
16810TIP3   OH271920   3.367   2.847   0.795  0.2474  0.0333  0.2179
16810TIP3    H171921   3.462   2.842   0.795  0.2596  0.2029 -0.5284
16810TIP3    H271922   3.338   2.765   0.836  0.6888 -0.6019 -0.7128
16811TIP3   OH271923   0.787   2.723  11.027  0.1052  0.3913  0.3542
16811TIP3    H171924   0.857   2.664  10.998 -0.0238 -0.0320  0.8878
16811TIP3    H271925   0.707   2.684  10.994  0.1940  1.4888 -1.2538
16812TIP3   OH271926   5.114   5.697   2.858  0.2863 -0.1287 -0.6879
16812TIP3    H171927   5.148   5.753   2.788  0.0861 -0.0059 -0.6896
16812TIP3    H271928   5.079   5.620   2.812 -0.5861  0.3192 -0.8017
16813TIP3   OH271929   3.021   1.277  17.023 -1.0722 -1.1233  0.3137
16813TIP3    H171930   3.092   1.331  17.057  0.7227 -1.3065 -2.7821
16813TIP3    H271931   3.040   1.189  17.054 -0.6970 -0.9497  0.5738
16814TIP3   OH271932   5.678   0.305  11.823  0.2069  0.1378 -0.5479
16814TIP3    H171933   5.621   0.278  11.895  0.8548  0.4569  0.0998
16814TIP3    H271934   5.699   0.397  11.841  0.2756  0.2602 -1.2116
16815TIP3   OH271935   4.663   4.029  15.210  0.2487 -0.1426 -0.0992
16815TIP3    H171936   4.664   3.968  15.137 -0.5322 -1.4312  0.9062
16815TIP3    H271937   4.725   3.992  15.273 -0.4361 -0.0596  0.6370
16816TIP3   OH271938   0.025   2.726   2.826  0.2171  0.0939  0.1815
16816TIP3    H171939   0.063   2.665   2.889 -0.2087 -0.4577 -0.0852
16816TIP3    H271940   0.097   2.746   2.766  0.8807  1.3173  1.3231
16817TIP3   OH271941   4.608   5.318  12.664  0.6908  0.1049  0.7633
16817TIP3    H171942   4.537   5.362  12.618  0.2188 -1.2417  0.1368
16817TIP3    H271943   4.679   5.383  12.668  1.3287 -0.0960 -3.1946
16818TIP3   OH271944   1.714   6.567  10.780 -0.1308  0.2228  0.3618
16818TIP3    H171945   1.795   6.619  10.782 -0.2667  0.4043  1.8682
16818TIP3    H271946   1.645   6.629  10.799 -0.3581 -0.3772  1.5727
16819TIP3   OH271947   5.388   5.926   5.747  0.1670 -0.6743 -0.1206
16819TIP3    H171948   5.468   5.882   5.773  0.9853  0.5977 -0.3911
16819TIP3    H271949   5.353   5.962   5.829  0.0980 -0.8573 -0.0684
16820TIP3   OH271950   1.943   4.922  16.302 -0.0739 -0.1398 -0.2811
16820TIP3    H171951   1.929   4.927  16.396 -0.4021  0.5163 -0.3612
16820TIP3    H271952   2.003   4.848  16.291 -0.3739 -0.4972  0.4011
16821TIP3   OH271953   5.799   4.309  14.863  0.1044  0.1860  0.3062
16821TIP3    H171954   5.757   4.275  14.783  1.5315 -1.1018  0.0661
16821TIP3    H271955   5.807   4.232  14.920  0.6273  0.7519  1.0079
16822TIP3   OH271956   1.822   5.655   3.155  0.1527  0.1424  0.1750
16822TIP3    H171957   1.898   5.686   3.106  0.3077 -0.7560 -0.1650
16822TIP3    H271958   1.783   5.588   3.098 -1.4407  1.2493 -0.1015
16823TIP3   OH271959   3.397   3.270  15.398  0.1587  0.0289  0.1901
16823TIP3    H171960   3.402   3.179  15.371  0.9348 -0.0182  0.4527
16823TIP3    H271961   3.429   3.271  15.488  0.0555  0.5432  0.2294
16824TIP3   OH271962   5.412   6.117  13.519 -0.5073  0.2241  0.5796
16824TIP3    H171963   5.481   6.101  13.583 -0.5888 -0.1090  0.5830
16824TIP3    H271964   5.428   6.053  13.450 -0.7285  0.2393  0.5136
16825TIP3   OH271965   3.944   5.851  12.234 -0.1324 -0.2813 -0.0152
16825TIP3    H171966   3.995   5.932  12.240 -1.8375  0.8392  0.0725
16825TIP3    H271967   3.972   5.811  12.152 -1.1734  1.8206 -1.4734
16826TIP3   OH271968   2.034   0.233  15.706  0.0528  0.2214 -0.1571
16826TIP3    H171969   2.083   0.289  15.646  1.8117 -0.8419  0.2169
16826TIP3    H271970   2.092   0.158  15.722 -2.3411 -1.9672 -0.9767
16827TIP3   OH271971   4.181   1.126   3.107 -0.1268  0.2311  0.4313
16827TIP3    H171972   4.214   1.131   3.197 -0.8419  1.1617  0.6616
16827TIP3    H271973   4.260   1.124   3.053  0.3323 -1.4355  1.1016
16828TIP3   OH271974   5.408   5.750   4.823  0.2515  0.2491  0.0632
16828TIP3    H171975   5.414   5.681   4.757  1.3934 -0.2423  0.6645
16828TIP3    H271976   5.456   5.824   4.785 -1.7781  1.1073 -1.0004
16829TIP3   OH271977   6.234   2.943  16.087  0.0038  0.4017 -0.0812
16829TIP3    H171978   6.167   2.988  16.035  0.1750 -0.0699 -0.7149
16829TIP3    H271979   6.302   3.009  16.100 -0.3049  0.6986  0.0433
16830TIP3   OH271980   5.288   1.760   0.153 -0.2245  0.1321  0.2797
16830TIP3    H171981   5.196   1.739   0.142  0.0232 -2.5191  2.2442
16830TIP3    H271982   5.333   1.711   0.085 -0.1053 -0.6089  0.8831
16831TIP3   OH271983   0.098   5.127  13.278  0.0988 -0.5632  0.4672
16831TIP3    H171984   0.171   5.159  13.332  1.0687 -1.1930 -0.4224
16831TIP3    H271985   0.078   5.199  13.219 -0.6102 -0.0672  1.2930
16832TIP3   OH271986   0.181   1.727   2.708  0.4133 -0.1522  0.3375
16832TIP3    H171987   0.238   1.687   2.773  0.0597  0.0653  0.7855
16832TIP3    H271988   0.195   1.675   2.629  0.1345 -1.0107  0.8417
16833TIP3   OH271989   0.456   1.582  14.999  0.3398  0.3645 -0.2560
16833TIP3    H171990   0.425   1.514  15.059  0.4056  0.5358 -0.0287
16833TIP3    H271991   0.448   1.664  15.049 -2.0740  0.8689 -1.3191
16834TIP3   OH271992   1.538   6.465  14.005  0.0773 -0.5328 -0.4572
16834TIP3    H171993   1.612   6.511  13.963  0.1818 -1.4167 -1.2729
16834TIP3    H271994   1.461   6.494  13.956  0.1345 -1.1517 -0.9265
16835TIP3   OH271995   2.090   6.677   0.995  0.2074  0.3299  0.2171
16835TIP3    H171996   2.025   6.651   0.930  0.0323  1.3818 -0.0393
16835TIP3    H271997   2.042   6.675   1.078  0.2950 -0.5014  0.2605
16836TIP3   OH271998   2.277   2.021  12.159 -0.6689 -0.3952  0.4212
16836TIP3    H171999   2.219   2.000  12.087 -0.3690  3.2056 -1.1065
16836TIP3    H272000   2.355   1.967  12.144 -1.0532 -0.5126 -1.3290
16837TIP3   OH272001   5.178   1.791   1.688  0.3118  0.6728  0.2845
16837TIP3    H172002   5.141   1.850   1.754  0.3271 -0.0036  0.9185
16837TIP3    H272003   5.272   1.792   1.705  0.4975  1.6373 -0.6971
16838TIP3   OH272004   2.637   4.049  16.889  0.6031  0.0691  0.1659
16838TIP3    H172005   2.603   4.038  16.800  1.9564 -0.4437 -0.3079
16838TIP3    H272006   2.691   3.972  16.904  1.1512  0.6163  1.0850
16839TIP3   OH272007   0.435   2.907   3.419 -0.1685 -0.1216  0.1399
16839TIP3    H172008   0.430   2.977   3.485 -3.4676  0.3419 -0.4178
16839TIP3    H272009   0.344   2.884   3.402  0.7369 -3.7764 -0.6173
16840TIP3   OH272010   0.012   0.888  16.104 -0.3189  0.0233 -0.3510
16840TIP3    H172011  -0.064   0.907  16.047 -0.5383 -2.9844 -1.2379
16840TIP3    H272012  -0.021   0.824  16.166  1.3345 -0.8539 -0.3436
16841TIP3   OH272013   0.549   4.553  15.891 -0.1895  0.1224  0.0121
16841TIP3    H172014   0.575   4.479  15.837  0.0795  0.1524  0.0982
16841TIP3    H272015   0.507   4.614  15.830 -0.8668 -0.3176  0.0328
16842TIP3   OH272016   3.407   1.087  12.755 -0.1664 -0.0896 -0.0105
16842TIP3    H172017   3.333   1.129  12.799  1.3185  0.1908  2.3817
16842TIP3    H272018   3.459   1.160  12.720  0.3733 -0.1201  0.7080
16843TIP3   OH272019   3.298   1.939  16.702 -0.2508 -0.6637  0.0739
16843TIP3    H172020   3.231   1.873  16.722  0.7321 -1.3648  1.2324
16843TIP3    H272021   3.284   1.960  16.610 -2.8096  0.1027  0.5541
16844TIP3   OH272022   5.869   3.988   3.516 -0.0832  0.1510  0.7263
16844TIP3    H172023   5.964   3.977   3.505  0.0033 -0.2008  1.7654
16844TIP3    H272024   5.860   4.051   3.588 -0.6457  0.8377  0.0737
16845TIP3   OH272025   1.236   5.951  11.740 -0.1371 -1.1839 -0.0529
16845TIP3    H172026   1.151   5.926  11.777  0.0741 -0.8713  0.6573
16845TIP3    H272027   1.286   5.985  11.815 -0.3552  1.1911 -0.8898
16846TIP3   OH272028   5.169   3.284  17.063  0.5769 -0.2579 -0.3313
16846TIP3    H172029   5.197   3.223  17.132 -1.3561 -1.6476 -0.6964
16846TIP3    H272030   5.184   3.235  16.982  1.5714  0.8464 -0.8355
16847TIP3   OH272031   6.207   2.867  12.804  0.0688  0.0621 -0.1871
16847TIP3    H172032   6.187   2.955  12.836  1.8884  0.2037  0.7118
16847TIP3    H272033   6.240   2.882  12.715  0.3848  0.3139 -0.0340
16848TIP3   OH272034   3.605   2.181   4.748 -0.8587  0.0454  0.3692
16848TIP3    H172035   3.699   2.181   4.765 -0.6420 -1.5180 -0.5625
16848TIP3    H272036   3.567   2.231   4.820  0.6574  0.4888  0.9023
16849TIP3   OH272037   5.824   0.239  16.459 -0.0243  0.5358 -0.0417
16849TIP3    H172038   5.821   0.171  16.527  0.0395  1.1751  0.6168
16849TIP3    H272039   5.868   0.313  16.501 -0.3536  1.0884 -0.6474
16850TIP3   OH272040   6.344   4.064   0.816 -0.8196  0.4171  0.4095
16850TIP3    H172041   6.408   4.048   0.747 -0.9453  0.4363  0.2872
16850TIP3    H272042   6.367   4.001   0.885  0.1137  1.2800  0.9049
16851TIP3   OH272043   1.647   4.539   5.449  0.1227  0.3041 -0.8995
16851TIP3    H172044   1.728   4.555   5.497  0.3684  1.0831 -1.5480
16851TIP3    H272045   1.676   4.521   5.359 -0.4366  0.9835 -1.2245
16852TIP3   OH272046   4.132   1.934   4.692 -0.2316  0.2786 -0.3243
16852TIP3    H172047   4.181   1.973   4.764 -0.1826  0.4687 -0.4582
16852TIP3    H272048   4.190   1.866   4.658 -0.3296  0.0673 -0.0705
16853TIP3   OH272049   1.434   2.005  14.510 -0.2852 -0.4000 -0.6396
16853TIP3    H172050   1.346   2.032  14.535  0.5947  1.4721  0.8108
16853TIP3    H272051   1.449   2.046  14.425 -1.0119 -1.2791 -1.2078
16854TIP3   OH272052   2.560   6.061   5.507 -0.3198 -0.4878 -0.3643
16854TIP3    H172053   2.567   5.977   5.461  1.2014 -0.2637 -0.5819
16854TIP3    H272054   2.611   6.048   5.588 -3.3472 -1.0498  1.6461
16855TIP3   OH272055   4.007   2.779   6.104 -0.2200  0.1368 -0.1204
16855TIP3    H172056   3.934   2.719   6.098  0.6454 -0.8697 -1.0388
16855TIP3    H272057   4.007   2.809   6.195 -0.7278 -1.1737  0.3328
16856TIP3   OH272058   2.406   0.529   1.046  0.0132  0.0723  0.3274
16856TIP3    H172059   2.357   0.571   0.975 -0.3354 -1.7977 -0.6169
16856TIP3    H272060   2.372   0.569   1.126 -1.6864  0.2016 -0.4219
16857TIP3   OH272061   3.966   4.630  14.550  0.2362 -0.1823  0.2071
16857TIP3    H172062   4.033   4.565  14.574  0.5192 -0.5154 -1.3687
16857TIP3    H272063   4.013   4.714  14.550  0.6533 -0.4021 -0.7870
16858TIP3   OH272064   1.375   0.076  10.710  0.1554  0.3705 -0.2672
16858TIP3    H172065   1.438   0.077  10.638  1.1455  3.3224  0.5000
16858TIP3    H272066   1.404   0.146  10.768 -1.7486 -0.5982  2.0389
16859TIP3   OH272067   5.999   3.195   1.537  0.3222 -0.4476 -0.0173
16859TIP3    H172068   5.910   3.203   1.503  0.9690 -1.7823 -2.1940
16859TIP3    H272069   6.046   3.270   1.500  0.3757 -0.3522  0.2398
16860TIP3   OH272070   4.459   1.161   6.255 -0.5377 -0.3112 -0.1046
16860TIP3    H172071   4.477   1.067   6.258  2.3964  0.1911  1.7368
16860TIP3    H272072   4.528   1.197   6.200  0.1113  1.0139  1.5006
16861TIP3   OH272073   3.149   4.595  13.147 -0.4364 -0.2723 -0.1952
16861TIP3    H172074   3.186   4.636  13.069  0.1833 -1.2158 -0.4177
16861TIP3    H272075   3.220   4.542  13.183 -1.0698 -0.8011  0.3199
16862TIP3   OH272076   1.405   1.753  15.025 -0.5647  0.4397 -0.2264
16862TIP3    H172077   1.364   1.670  15.050  1.3084 -0.6137 -0.5240
16862TIP3    H272078   1.432   1.792  15.108 -0.9466  0.5048 -0.1267
16863TIP3   OH272079   5.335   1.480   1.331 -0.3103 -0.0671 -0.8462
16863TIP3    H172080   5.339   1.572   1.357 -0.3083 -0.4119  0.4449
16863TIP3    H272081   5.426   1.455   1.314 -0.2186 -0.0609 -0.3589
16864TIP3   OH272082   5.995   2.356   5.356  0.0737 -0.4774 -0.1182
16864TIP3    H172083   5.917   2.307   5.382 -0.1529 -0.5837 -0.9686
16864TIP3    H272084   5.983   2.442   5.396  0.4341 -1.0613  1.3219
16865TIP3   OH272085   4.606   3.837   6.526 -0.2377  0.0791 -0.3408
16865TIP3    H172086   4.670   3.888   6.476  0.3724  1.3612  1.6109
16865TIP3    H272087   4.613   3.748   6.491  0.9062  0.6892 -1.7683
16866TIP3   OH272088   3.609   1.139  13.314  0.5808 -0.0258 -0.5660
16866TIP3    H172089   3.582   1.230  13.296  0.4667  0.3332  1.2099
16866TIP3    H272090   3.680   1.123  13.253 -1.6148  0.0257 -3.3574
16867TIP3   OH272091   6.560   5.298  15.812  0.0129  0.9577  0.0848
16867TIP3    H172092   6.611   5.231  15.767 -1.2866  0.9953 -1.4993
16867TIP3    H272093   6.550   5.368  15.748 -0.7642  1.5984  0.8827
16868TIP3   OH272094   2.414   3.759   5.722  0.4223  0.1868  0.1457
16868TIP3    H172095   2.351   3.825   5.751 -1.5346 -1.7412  0.6395
16868TIP3    H272096   2.441   3.716   5.804  2.3426  0.8722 -0.0773
16869TIP3   OH272097   1.385   0.753  11.073  0.1755  0.7404 -0.5262
16869TIP3    H172098   1.462   0.785  11.121  0.7687 -0.2053 -0.8332
16869TIP3    H272099   1.376   0.814  10.999  0.2954  1.1754 -0.1887
16870TIP3   OH272100   3.556   6.014  12.840  0.8237 -0.3468 -0.1369
16870TIP3    H172101   3.501   5.959  12.896 -0.3055  0.5692 -0.3034
16870TIP3    H272102   3.551   5.973  12.754  0.2709 -0.2019 -0.1815
16871TIP3   OH272103   5.318   0.233   0.021  0.3759  0.3710  0.5614
16871TIP3    H172104   5.310   0.318   0.066  1.0969  1.7633 -1.7510
16871TIP3    H272105   5.230   0.216  -0.013  0.7976  1.7262 -1.4016
16872TIP3   OH272106   2.930   1.597  16.401 -0.2873 -0.4749 -0.4754
16872TIP3    H172107   2.919   1.534  16.473  0.9332 -0.9733 -0.7128
16872TIP3    H272108   2.843   1.602  16.361 -0.9017 -0.4359  0.8244
16873TIP3   OH272109   1.228   5.098  13.448  0.6771  0.0182  0.2015
16873TIP3    H172110   1.187   5.144  13.374  0.0704  0.1051  0.5771
16873TIP3    H272111   1.240   5.167  13.514 -1.2005 -0.4992  1.1737
16874TIP3   OH272112   0.927   6.356  16.773  0.4229  0.1269 -0.2421
16874TIP3    H172113   0.915   6.451  16.782  2.2411  0.5031 -1.1987
16874TIP3    H272114   0.839   6.320  16.777 -0.1993  1.7028  1.6353
16875TIP3   OH272115   0.335   4.955   4.833 -0.1328 -0.5825 -0.1185
16875TIP3    H172116   0.398   4.959   4.761  2.9018  0.9256  2.3905
16875TIP3    H272117   0.265   5.015   4.807  2.5860  2.7365 -0.4856
16876TIP3   OH272118   2.242   6.535   4.477 -0.5700 -0.0559  0.0487
16876TIP3    H172119   2.260   6.531   4.571  1.0360 -1.9035 -0.2678
16876TIP3    H272120   2.254   6.627   4.455 -0.6521  0.3543  1.5884
16877TIP3   OH272121   5.189   1.464  16.843 -0.2430 -0.2650 -0.2737
16877TIP3    H172122   5.125   1.397  16.819  0.6199 -1.1002 -0.3595
16877TIP3    H272123   5.153   1.546  16.810 -1.4978 -0.6257  0.1405
16878TIP3   OH272124   6.597   0.928  16.704  0.0463  0.3767 -0.3247
16878TIP3    H172125   6.601   0.836  16.731  0.0372 -0.0981 -1.8586
16878TIP3    H272126   6.635   0.929  16.616 -1.2342  1.6037 -0.8958
16879TIP3   OH272127   3.294   4.201  13.082 -0.0680  0.1078 -0.0423
16879TIP3    H172128   3.317   4.293  13.065 -3.3626  0.5817 -3.0289
16879TIP3    H272129   3.209   4.205  13.127  0.9607 -1.5717  2.2788
16880TIP3   OH272130   5.345   4.750  13.630  0.1013 -0.2638 -0.7399
16880TIP3    H172131   5.437   4.730  13.648  0.6142  0.5671 -2.2840
16880TIP3    H272132   5.345   4.843  13.607 -0.7638 -0.7279 -2.8191
16881TIP3   OH272133   3.237   3.352  16.966  0.1941  0.0579 -0.3544
16881TIP3    H172134   3.325   3.331  16.997 -0.4553 -0.9194  0.9340
16881TIP3    H272135   3.248   3.430  16.912  1.7543  0.2871  0.2570
16882TIP3   OH272136   1.806   3.507   2.027 -0.3713 -0.3447  0.5078
16882TIP3    H172137   1.806   3.577   2.092  0.5473  0.1041  0.0417
16882TIP3    H272138   1.779   3.429   2.075  1.0417 -0.1845  1.6093
16883TIP3   OH272139   3.477   6.173  15.019 -0.6548  0.0310  0.1877
16883TIP3    H172140   3.446   6.083  15.006 -1.0602  0.0172  1.0991
16883TIP3    H272141   3.418   6.227  14.967 -0.2281 -0.2539 -0.5943
16884TIP3   OH272142   2.016   3.714   3.218  0.0787  0.2891 -0.4662
16884TIP3    H172143   2.002   3.647   3.284 -3.5905  2.6173  1.3967
16884TIP3    H272144   2.088   3.766   3.251  2.0361 -1.7262 -1.2621
16885TIP3   OH272145   0.380   2.175   1.114  0.2383 -0.3984  0.1772
16885TIP3    H172146   0.461   2.124   1.121  0.7809  0.4807  0.4636
16885TIP3    H272147   0.318   2.116   1.072  1.0897 -1.0191 -0.2311
16886TIP3   OH272148   0.330   1.893  14.691  0.0204 -0.5061  0.1464
16886TIP3    H172149   0.243   1.880  14.730  1.1930  0.4496  3.4776
16886TIP3    H272150   0.314   1.947  14.613 -2.5067 -2.0368 -0.5098
16887TIP3   OH272151   5.565   0.350  12.694 -0.2458  0.1748  0.7582
16887TIP3    H172152   5.511   0.371  12.618 -0.9419 -0.3239  1.1021
16887TIP3    H272153   5.618   0.428  12.708  1.3307 -0.4052 -1.4085
16888TIP3   OH272154   3.944   2.448   5.869 -0.2312 -0.3582 -0.4840
16888TIP3    H172155   3.952   2.500   5.949  1.7410 -1.2529 -0.0286
16888TIP3    H272156   3.923   2.360   5.899  0.8902 -0.7869 -0.8685
16889TIP3   OH272157   2.877   4.457   4.480  0.2544  0.4944  0.1802
16889TIP3    H172158   2.807   4.417   4.427  1.8258 -2.3210  0.0033
16889TIP3    H272159   2.950   4.468   4.419  1.4000 -0.8811  1.2164
16890TIP3   OH272160   0.402   1.543  11.007 -0.2659 -0.0323  0.2762
16890TIP3    H172161   0.452   1.612  11.051  0.2441  0.5322 -1.1381
16890TIP3    H272162   0.320   1.538  11.056  1.0533 -0.8455  2.5386
16891TIP3   OH272163   6.451   2.812  14.470 -0.3068  0.3385  0.3347
16891TIP3    H172164   6.492   2.845  14.550 -2.3557  4.9104 -0.2374
16891TIP3    H272165   6.375   2.763  14.501  0.5474 -0.5074  1.1692
16892TIP3   OH272166   3.183   3.231  12.130 -0.3705 -0.0144  0.5706
16892TIP3    H172167   3.126   3.157  12.108 -0.6500  0.4619 -0.3682
16892TIP3    H272168   3.267   3.211  12.089 -0.5684  0.3670 -0.0376
16893TIP3   OH272169   0.538   3.417   4.155 -0.0139 -0.1917  0.0494
16893TIP3    H172170   0.513   3.329   4.128 -3.8891  0.6489  0.3459
16893TIP3    H272171   0.526   3.418   4.250 -0.7551  0.8248 -0.0367
16894TIP3   OH272172   4.465   5.445  16.173  0.4567 -0.3644 -0.3097
16894TIP3    H172173   4.402   5.377  16.197 -1.4876  1.2378 -0.5530
16894TIP3    H272174   4.522   5.453  16.249  0.1793 -1.6520  0.0588
16895TIP3   OH272175   0.748   0.666  15.111 -0.0853 -0.2704  0.7050
16895TIP3    H172176   0.820   0.643  15.169  0.2066 -1.2692 -0.0333
16895TIP3    H272177   0.776   0.747  15.068  0.8333 -0.9233  0.0423
16896TIP3   OH272178   6.453   5.913  11.555  0.1187  0.5041  0.6561
16896TIP3    H172179   6.469   6.003  11.528  1.3227  0.1743  0.1925
16896TIP3    H272180   6.358   5.907  11.564  0.0117  1.7805  0.5960
16897TIP3   OH272181   3.920   3.897   4.455 -0.0031  0.3575 -0.4380
16897TIP3    H172182   4.001   3.850   4.474 -0.9263 -0.0006  3.4340
16897TIP3    H272183   3.945   3.990   4.460  0.3738  0.2526 -0.3239
16898TIP3   OH272184   3.172   1.410   0.769  0.2156 -0.1215  0.0835
16898TIP3    H172185   3.267   1.396   0.761  0.2859  0.1036  0.5121
16898TIP3    H272186   3.163   1.475   0.839 -0.0826  2.3313 -2.0852
16899TIP3   OH272187   1.005   4.322   1.697 -0.2056  0.1441 -0.1396
16899TIP3    H172188   1.003   4.274   1.614 -1.5681  1.3166 -0.8382
16899TIP3    H272189   1.019   4.255   1.763 -3.1116 -1.4374 -0.9490
16900TIP3   OH272190   6.547   3.746  15.813 -0.2130  0.0400  0.1056
16900TIP3    H172191   6.528   3.701  15.730  0.3625 -1.9431  0.9855
16900TIP3    H272192   6.605   3.818  15.788 -0.0104 -0.5461 -1.2108
16901TIP3   OH272193   4.644   3.655  12.543 -0.4632  0.3294 -0.2494
16901TIP3    H172194   4.628   3.566  12.511 -0.5499 -0.0116  0.7041
16901TIP3    H272195   4.700   3.695  12.476 -0.2706 -0.5050 -0.5984
16902TIP3   OH272196   6.170   2.546  14.283  0.4549  0.5930 -0.4979
16902TIP3    H172197   6.216   2.492  14.219  1.0773  0.8022 -0.2372
16902TIP3    H272198   6.132   2.617  14.232  1.0308  0.8114 -0.6294
16903TIP3   OH272199   0.163   1.444  13.276  0.5339 -0.7178 -0.5225
16903TIP3    H172200   0.232   1.401  13.226  0.0712 -0.4123 -1.4637
16903TIP3    H272201   0.099   1.471  13.209  0.5057  0.8571  0.0911
16904TIP3   OH272202   6.155   5.776   1.545  0.2014 -0.3994 -0.8007
16904TIP3    H172203   6.146   5.682   1.529 -0.1534 -0.7846  1.3964
16904TIP3    H272204   6.216   5.783   1.618 -2.7385  0.7787  1.7801
16905TIP3   OH272205   3.446   5.312  11.989  0.7560 -0.4250  0.4842
16905TIP3    H172206   3.531   5.352  12.008  0.7136 -0.6519  1.1719
16905TIP3    H272207   3.388   5.345  12.058  0.0812  0.3372 -0.4129
16906TIP3   OH272208   4.589   2.330   3.067 -0.1483  0.3066  0.3519
16906TIP3    H172209   4.513   2.279   3.040 -0.1399  1.0715 -1.2643
16906TIP3    H272210   4.575   2.417   3.028  0.5338  1.1128  1.8041
16907TIP3   OH272211   0.271   3.585   4.912  0.2204 -0.7582  0.2569
16907TIP3    H172212   0.182   3.610   4.937 -0.1955 -1.0344 -0.8523
16907TIP3    H272213   0.306   3.662   4.868  0.9943 -0.2247  1.7509
16908TIP3   OH272214   1.134   3.350  11.194  0.2717  0.6463  0.0679
16908TIP3    H172215   1.106   3.441  11.180  0.6929  0.7554 -0.0881
16908TIP3    H272216   1.225   3.357  11.223  0.1977  0.2885  0.3948
16909TIP3   OH272217   1.001   1.268  15.656  0.3485 -0.5031  0.0288
16909TIP3    H172218   1.052   1.198  15.698  0.7231 -0.9670 -1.1489
16909TIP3    H272219   1.058   1.300  15.587 -0.5690 -0.3341 -0.6669
16910TIP3   OH272220   6.722   6.430  16.959  0.0714  0.0463 -0.5864
16910TIP3    H172221   6.640   6.391  16.929 -1.2725  0.7549  1.8942
16910TIP3    H272222   6.724   6.517  16.920 -0.9134  0.4233  0.1750
16911TIP3   OH272223   2.317   5.867  14.582 -0.0400  0.2302 -0.3065
16911TIP3    H172224   2.362   5.932  14.636  0.8142 -0.3889 -0.2569
16911TIP3    H272225   2.345   5.887  14.493  1.5161 -1.0398 -0.1420
16912TIP3   OH272226   0.818   1.296  12.019  0.2016  0.2343 -0.0423
16912TIP3    H172227   0.790   1.222  12.072 -0.1350  0.3565 -0.0444
16912TIP3    H272228   0.771   1.371  12.056  0.4140  0.4173 -0.1437
16913TIP3   OH272229   6.272   0.328   3.859 -0.3722  0.3457  0.1056
16913TIP3    H172230   6.196   0.270   3.866  0.4215 -1.0286 -1.7464
16913TIP3    H272231   6.255   0.398   3.922 -1.6087 -1.6325  2.1431
16914TIP3   OH272232   0.318   1.836   1.116 -0.1178 -0.0871  0.0825
16914TIP3    H172233   0.237   1.870   1.079  0.9594  1.3055 -1.0936
16914TIP3    H272234   0.307   1.849   1.211 -0.5341  1.8494 -0.1784
16915TIP3   OH272235   0.153   6.543   0.473 -0.5860  0.5279 -0.2949
16915TIP3    H172236   0.216   6.471   0.467  0.6389  1.2840  2.3601
16915TIP3    H272237   0.200   6.619   0.437 -1.3345  0.3650 -1.6805
16916TIP3   OH272238   1.273   6.760   4.695 -0.1643  0.4994 -0.0242
16916TIP3    H172239   1.242   6.705   4.767  0.2408  0.8381  0.4127
16916TIP3    H272240   1.197   6.769   4.638 -0.5022  0.2625  0.3791
16917TIP3   OH272241   6.010   0.012   5.844 -0.0276  0.4122  0.3227
16917TIP3    H172242   6.056  -0.040   5.909  0.2917  1.0952  0.6598
16917TIP3    H272243   6.056   0.097   5.845  1.6024 -0.3062 -2.5272
16918TIP3   OH272244   2.927   5.342   5.450 -0.1912 -0.2324  0.3356
16918TIP3    H172245   3.022   5.334   5.459 -0.4158 -2.2163  1.5265
16918TIP3    H272246   2.910   5.327   5.357  0.7328  1.6088 -0.1789
16919TIP3   OH272247   3.791   6.045  16.953  0.0344 -0.5885  0.8463
16919TIP3    H172248   3.818   6.061  16.863 -1.5359  0.5669  0.5352
16919TIP3    H272249   3.844   5.971  16.981  1.3865 -0.2449 -0.6306
16920TIP3   OH272250   1.805   2.827   2.348  0.0431 -0.6142 -0.3586
16920TIP3    H172251   1.755   2.859   2.273 -1.7322 -2.0515  0.1258
16920TIP3    H272252   1.816   2.733   2.332 -1.2683 -1.1788  1.5491
16921TIP3   OH272253   6.590   4.464   3.701  0.4723  0.0723 -0.0159
16921TIP3    H172254   6.595   4.370   3.685  0.3248  0.2949 -1.5767
16921TIP3    H272255   6.642   4.503   3.631 -0.1199  1.1840  0.1416
16922TIP3   OH272256   3.774   4.804  12.133  0.3687  0.2012 -0.1960
16922TIP3    H172257   3.715   4.879  12.141 -1.0315 -0.9173  0.4045
16922TIP3    H272258   3.861   4.842  12.119 -0.2928  1.9211  0.2281
16923TIP3   OH272259   2.846   4.502  14.229 -0.6897 -0.3017 -0.4175
16923TIP3    H172260   2.903   4.516  14.154 -0.0100 -0.1683  0.1092
16923TIP3    H272261   2.758   4.495  14.192 -0.4251  0.2479 -1.1768
16924TIP3   OH272262   4.693   4.347  16.875 -0.4442 -0.2790 -0.6892
16924TIP3    H172263   4.742   4.400  16.812 -0.1793 -0.6096 -0.7653
16924TIP3    H272264   4.607   4.336  16.835 -0.5075  0.1022 -0.6658
16925TIP3   OH272265   5.207   1.099  16.975 -0.8407  0.0743  0.0509
16925TIP3    H172266   5.145   1.157  16.931 -1.3656  1.1295  2.0487
16925TIP3    H272267   5.252   1.156  17.038  1.4463 -0.8909 -0.6026
16926TIP3   OH272268   1.587   2.305   0.775 -0.2811 -0.3297 -0.4008
16926TIP3    H172269   1.611   2.321   0.683 -0.7672  2.4576 -0.1414
16926TIP3    H272270   1.650   2.356   0.826 -1.8819  0.7370  0.6175
16927TIP3   OH272271   2.037   2.341  11.824 -0.5681 -0.3287  0.2732
16927TIP3    H172272   2.110   2.312  11.769 -0.6567  0.9806 -0.6046
16927TIP3    H272273   2.037   2.437  11.814 -1.9977 -0.2556  0.7857
16928TIP3   OH272274   5.789   3.809  12.981  0.3629 -0.2448  0.2085
16928TIP3    H172275   5.783   3.727  13.032  0.5346 -1.3413 -1.4510
16928TIP3    H272276   5.703   3.817  12.939  0.1238  0.8038  0.8766
16929TIP3   OH272277   4.736   1.985  15.474 -0.1773  0.1239 -0.5703
16929TIP3    H172278   4.701   2.062  15.520 -0.1308 -0.9859  1.4481
16929TIP3    H272279   4.829   2.006  15.460 -0.2797  0.6386 -0.5045
16930TIP3   OH272280   2.679   5.386   2.928 -0.2595  0.6323 -0.0079
16930TIP3    H172281   2.627   5.426   2.858 -1.3354 -0.2912  0.2255
16930TIP3    H272282   2.618   5.380   3.002  0.0146 -0.9185  0.1285
16931TIP3   OH272283   4.902   4.427   0.171  0.2551 -0.8115  0.1890
16931TIP3    H172284   4.826   4.428   0.112  0.9687 -0.4125 -0.7531
16931TIP3    H272285   4.911   4.519   0.199  1.0311 -0.6512 -0.5629
16932TIP3   OH272286   1.265   3.599  10.251  0.0082  0.1496  0.2477
16932TIP3    H172287   1.284   3.568  10.339 -1.2548  0.8563  0.7950
16932TIP3    H272288   1.171   3.589  10.241 -0.2213  2.1725 -0.1546
16933TIP3   OH272289   0.177   6.715  10.697  0.2394  0.1098  0.2104
16933TIP3    H172290   0.147   6.753  10.779  0.1597  2.3707 -0.7999
16933TIP3    H272291   0.107   6.656  10.670  0.2571 -0.6462  1.7090
16934TIP3   OH272292   6.347   3.383   2.464 -0.3134 -0.6598 -0.0033
16934TIP3    H172293   6.309   3.371   2.377 -0.1741 -2.3421  0.1392
16934TIP3    H272294   6.272   3.401   2.521 -0.3427  1.1406 -0.5428
16935TIP3   OH272295   6.236   2.695   1.757 -0.6554 -0.1503  0.6103
16935TIP3    H172296   6.290   2.764   1.796 -1.3664  1.8177 -1.6631
16935TIP3    H272297   6.154   2.738   1.735 -1.0156 -1.6418 -1.2003
16936TIP3   OH272298   0.930   3.682   2.720  0.3225  0.2925 -0.0240
16936TIP3    H172299   0.896   3.598   2.687  1.5281 -0.6978  1.1044
16936TIP3    H272300   0.854   3.740   2.719 -1.0141 -1.3335  0.8089
16937TIP3   OH272301   4.920   5.039   4.887  0.1172  0.0081 -0.2517
16937TIP3    H172302   4.973   4.978   4.835 -1.6299  0.0812 -2.2653
16937TIP3    H272303   4.957   5.034   4.975  1.4376 -2.2809 -0.8482
16938TIP3   OH272304   2.665   2.462   2.142 -0.3587  0.4858 -0.0760
16938TIP3    H172305   2.678   2.461   2.236 -0.6836 -2.3688  0.0108
16938TIP3    H272306   2.751   2.444   2.105 -0.4430  0.5063 -0.2863
16939TIP3   OH272307   5.108   4.298   0.043  0.3212  0.0503 -0.2619
16939TIP3    H172308   5.045   4.260  -0.018 -0.0247  1.8590 -1.1236
16939TIP3    H272309   5.061   4.373   0.082  1.9803  1.6495 -1.1808
16940TIP3   OH272310   6.648   1.475  14.535  0.0154  0.8170  0.5235
16940TIP3    H172311   6.699   1.490  14.614  0.4130  0.9623  0.2458
16940TIP3    H272312   6.714   1.456  14.467 -0.3498  0.1614  0.3469
16941TIP3   OH272313   2.987   5.007   3.471  0.1952  0.2274 -0.0420
16941TIP3    H172314   2.924   4.974   3.535  1.0630 -1.1518  0.1531
16941TIP3    H272315   2.942   5.078   3.427 -1.6095 -0.9143 -0.1269
16942TIP3   OH272316   2.249   1.502  14.381  0.0649  0.0392  0.8069
16942TIP3    H172317   2.175   1.551  14.417 -0.0135  0.5363 -0.0053
16942TIP3    H272318   2.274   1.550  14.302 -0.8527 -1.9353 -0.7917
16943TIP3   OH272319   3.861   1.178   2.119  0.0423  0.2347  0.3967
16943TIP3    H172320   3.806   1.212   2.048  0.4453  0.2328  0.0793
16943TIP3    H272321   3.815   1.202   2.199 -0.7702 -0.3528  0.1237
16944TIP3   OH272322   5.079   3.459  12.136 -0.0541  0.7548 -0.3473
16944TIP3    H172323   5.002   3.469  12.080 -0.7100 -0.1615  0.3757
16944TIP3    H272324   5.048   3.411  12.212  1.2195  0.4597  0.0086
16945TIP3   OH272325   0.442   1.763  14.120 -0.7901 -0.1208  0.1316
16945TIP3    H172326   0.432   1.702  14.047 -1.0422 -0.3872  0.3841
16945TIP3    H272327   0.365   1.747  14.176 -1.9300  1.8069 -0.7890
16946TIP3   OH272328   4.565   4.671  16.607 -0.5313 -0.1159 -0.4114
16946TIP3    H172329   4.545   4.577  16.609  0.6476 -0.4350 -1.8223
16946TIP3    H272330   4.588   4.693  16.697  1.7065 -1.7992 -0.4904
16947TIP3   OH272331   0.173   3.174   3.545 -0.1721 -0.4391  1.1494
16947TIP3    H172332   0.100   3.160   3.485  0.3012  0.1338  0.4250
16947TIP3    H272333   0.243   3.207   3.490  1.0970 -2.2662  1.5727
16948TIP3   OH272334   1.651   1.775   3.850 -0.2890  0.0143  0.2734
16948TIP3    H172335   1.578   1.788   3.790 -0.3256  0.2607  0.3680
16948TIP3    H272336   1.622   1.816   3.932  0.0257  0.2740  0.2592
16949TIP3   OH272337   2.172   3.653   5.477  0.1325 -0.7517  0.2817
16949TIP3    H172338   2.180   3.611   5.563 -1.3420 -3.0592 -0.6104
16949TIP3    H272339   2.257   3.636   5.435  0.4187 -0.6848  0.8161
16950TIP3   OH272340   5.298   0.072   4.290 -0.2943  0.0711 -0.3853
16950TIP3    H172341   5.264   0.083   4.201 -3.1400  0.7782  0.6912
16950TIP3    H272342   5.275   0.154   4.335  1.6695  0.0086  0.8710
16951TIP3   OH272343   1.046   5.001  14.550  0.7181  0.1839 -0.9463
16951TIP3    H172344   1.072   4.909  14.549 -0.4990 -0.2241  0.3508
16951TIP3    H272345   1.121   5.047  14.586  0.9583 -0.4610 -0.6040
16952TIP3   OH272346   6.522   3.212   2.079 -0.8405  0.6175  0.0630
16952TIP3    H172347   6.429   3.192   2.087 -0.7797 -0.5944 -1.6173
16952TIP3    H272348   6.561   3.180   2.160 -1.7268  0.0590  0.2867
16953TIP3   OH272349   3.535   4.293  11.317  0.1123  0.7387 -0.9272
16953TIP3    H172350   3.488   4.354  11.260 -1.5518 -1.7031 -2.3475
16953TIP3    H272351   3.584   4.237  11.256 -0.0421 -0.6486  0.1795
16954TIP3   OH272352   3.045   3.404   3.495 -0.4932 -0.7972 -0.1240
16954TIP3    H172353   3.069   3.312   3.506 -1.6551 -0.9734  1.2633
16954TIP3    H272354   3.110   3.452   3.547 -1.3915 -1.0663  1.3196
16955TIP3   OH272355   6.778   2.811   4.864 -0.1671 -0.5649  0.3927
16955TIP3    H172356   6.814   2.817   4.952 -0.3045 -4.1591  0.8412
16955TIP3    H272357   6.841   2.858   4.809  0.7194  0.4388  2.1914
16956TIP3   OH272358   3.184   1.888   0.803  0.3054 -0.6126 -0.0132
16956TIP3    H172359   3.127   1.912   0.730  2.2157 -0.5305 -1.5615
16956TIP3    H272360   3.171   1.793   0.813 -1.6146 -0.2962  1.0988
16957TIP3   OH272361   1.425   2.799   3.196  0.0956 -0.0192 -0.3302
16957TIP3    H172362   1.496   2.760   3.145  1.6680 -1.4362  2.7086
16957TIP3    H272363   1.347   2.785   3.142  1.4879 -2.1363 -1.9943
16958TIP3   OH272364   3.859   6.262   3.890 -0.1144  0.1697  0.2953
16958TIP3    H172365   3.834   6.173   3.866  0.6348 -0.3227  1.2138
16958TIP3    H272366   3.814   6.318   3.828  0.8208 -0.9430 -1.4679
16959TIP3   OH272367   2.800   1.916  16.806  0.5729  0.1524  0.1519
16959TIP3    H172368   2.786   1.879  16.719 -0.5571 -1.7388  1.0697
16959TIP3    H272369   2.713   1.945  16.834  0.9752  1.0096  0.5569
16960TIP3   OH272370   2.282   0.664   2.742  0.1100  0.3195 -0.7290
16960TIP3    H172371   2.268   0.745   2.693  0.7939  0.9822  0.1500
16960TIP3    H272372   2.211   0.662   2.806  0.2772  0.3812 -0.5419
16961TIP3   OH272373   2.859   0.025   2.918 -0.2823 -0.3674  0.1421
16961TIP3    H172374   2.843   0.064   3.004 -0.9665  1.0175 -0.5754
16961TIP3    H272375   2.953   0.034   2.905 -0.0179 -1.4553  1.1226
16962TIP3   OH272376   0.216   4.030   2.853 -0.1863  0.1077 -0.4570
16962TIP3    H172377   0.124   4.005   2.862 -0.4161  0.7536 -0.9634
16962TIP3    H272378   0.254   3.961   2.799 -0.4750  0.0639 -0.6089
16963TIP3   OH272379   6.590   5.449   0.290  0.4723 -0.0265 -0.5143
16963TIP3    H172380   6.622   5.377   0.236  1.7029 -1.6084  2.1359
16963TIP3    H272381   6.668   5.492   0.324 -0.1268 -1.0488  2.4046
16964TIP3   OH272382   6.576   4.297   0.346  0.4468 -0.1044 -0.1189
16964TIP3    H172383   6.648   4.239   0.371  0.2595 -0.8871 -1.3033
16964TIP3    H272384   6.614   4.352   0.277  0.1305 -0.0011 -0.2089
16965TIP3   OH272385   4.663   5.191  15.411 -0.3177 -0.0053 -0.0329
16965TIP3    H172386   4.618   5.273  15.434  0.8530  1.2507 -1.9032
16965TIP3    H272387   4.717   5.172  15.488 -0.9940  0.6729  0.6426
16966TIP3   OH272388   0.654   4.741   2.506  0.0830  0.1546 -0.2215
16966TIP3    H172389   0.567   4.749   2.544 -0.5063 -0.3467 -1.4100
16966TIP3    H272390   0.655   4.653   2.467  1.5447 -0.3149  0.7839
16967TIP3   OH272391   5.715   6.195  11.879 -0.4060 -0.1082 -0.3342
16967TIP3    H172392   5.738   6.274  11.830  0.6718 -0.6386 -0.7240
16967TIP3    H272393   5.792   6.176  11.932 -1.1673 -0.1455  0.8043
16968TIP3   OH272394   5.852   3.895  15.300 -0.2582 -0.5410  0.3567
16968TIP3    H172395   5.759   3.912  15.314 -0.2974 -0.3179 -0.1327
16968TIP3    H272396   5.853   3.824  15.235 -0.0902 -1.4768  1.3529
16969TIP3   OH272397   0.026   5.440  11.261 -0.5202  0.3565 -0.1996
16969TIP3    H172398   0.054   5.491  11.337 -0.3026 -0.4295  0.2545
16969TIP3    H272399   0.108   5.404  11.226 -0.8868 -1.7314  0.9689
16970TIP3   OH272400   6.779   2.320  10.399 -0.0006  0.0761  0.0879
16970TIP3    H172401   6.830   2.283  10.471 -1.6607  1.3980  2.0631
16970TIP3    H272402   6.720   2.249  10.374  1.2637 -0.7264 -0.7041
16971TIP3   OH272403   1.592   4.097  10.506  0.0479  0.0288  1.0152
16971TIP3    H172404   1.587   4.109  10.411  0.5316  3.2269  1.2663
16971TIP3    H272405   1.531   4.027  10.525 -1.2908  0.4036 -1.5104
16972TIP3   OH272406   2.727   3.935  16.188  0.3511 -0.0957 -0.5206
16972TIP3    H172407   2.676   3.897  16.116 -1.0442  0.7372 -0.0136
16972TIP3    H272408   2.715   4.029  16.178  0.0043  0.0276  0.8867
16973TIP3   OH272409   5.447   5.300   4.673  0.3115  0.9239  0.5099
16973TIP3    H172410   5.523   5.331   4.624  0.9834 -0.4069  0.6798
16973TIP3    H272411   5.482   5.235   4.734 -0.8395  0.9224  1.1915
16974TIP3   OH272412   1.025   0.510   6.425 -0.2661 -0.8498  0.8254
16974TIP3    H172413   0.961   0.578   6.447 -0.9923 -1.4645  0.6521
16974TIP3    H272414   0.985   0.462   6.353 -0.7951 -2.8543  2.3588
16975TIP3   OH272415   0.696   6.466   3.440  0.3263 -0.2797 -0.2292
16975TIP3    H172416   0.703   6.372   3.459 -2.8083 -0.3515  1.2153
16975TIP3    H272417   0.675   6.471   3.347  0.2188 -1.0267 -0.2493
16976TIP3   OH272418   0.692   3.998   3.486  0.1210  0.6587 -0.4631
16976TIP3    H172419   0.717   4.044   3.405  0.5949  1.9609  0.3865
16976TIP3    H272420   0.746   4.038   3.554 -0.2603 -0.4187  0.5171
16977TIP3   OH272421   4.305   5.321  15.572  0.0564 -0.5654 -0.6874
16977TIP3    H172422   4.222   5.319  15.524  0.8539 -1.6868 -2.1028
16977TIP3    H272423   4.312   5.233  15.610  0.2962 -0.2692 -0.0432
16978TIP3   OH272424   4.950   0.235   0.512 -0.4813  0.3358  0.4950
16978TIP3    H172425   4.881   0.216   0.447  0.3621  0.8173 -0.5780
16978TIP3    H272426   4.903   0.271   0.587 -1.4140  0.7217 -0.2456
16979TIP3   OH272427   6.635   6.603   5.742 -0.3458  0.7818 -0.1383
16979TIP3    H172428   6.595   6.578   5.825 -1.2254 -1.0740 -1.0357
16979TIP3    H272429   6.582   6.676   5.710 -2.6131 -1.0387 -0.8671
16980TIP3   OH272430   2.822   0.221  13.099  0.1275 -0.5553  0.9049
16980TIP3    H172431   2.891   0.282  13.072  1.0581 -1.3733  1.3701
16980TIP3    H272432   2.845   0.197  13.189 -1.2757 -0.1553  1.3837
16981TIP3   OH272433   5.403   3.778  14.434 -0.0528  0.4210 -0.8707
16981TIP3    H172434   5.427   3.857  14.483  1.4918  0.1696 -1.1730
16981TIP3    H272435   5.481   3.723  14.437 -1.1463 -1.2001 -0.5113
16982TIP3   OH272436   1.969   3.692   4.357  0.2931  0.3233 -0.0280
16982TIP3    H172437   1.999   3.758   4.295  1.7065  0.3068  0.5866
16982TIP3    H272438   1.968   3.737   4.442  0.8553 -0.3104  0.3257
16983TIP3   OH272439   3.165   0.710  11.588  0.3221  0.0915  0.3528
16983TIP3    H172440   3.197   0.673  11.670 -0.4396  0.3741  0.7856
16983TIP3    H272441   3.071   0.693  11.588  0.6424 -2.3035 -1.7096
16984TIP3   OH272442   3.395   3.357  15.885 -0.0107  0.2332  0.3933
16984TIP3    H172443   3.303   3.333  15.894 -0.8138  1.6109 -2.5898
16984TIP3    H272444   3.399   3.449  15.913 -0.0960  0.8802 -1.5705
16985TIP3   OH272445   0.074   1.255  11.965  0.3139  0.1697 -0.3316
16985TIP3    H172446   0.169   1.246  11.969  0.5290  1.9555 -0.4546
16985TIP3    H272447   0.056   1.270  11.872 -0.1145 -0.3078 -0.3289
16986TIP3   OH272448   0.448   1.432   3.693 -0.0897  0.0498 -0.1422
16986TIP3    H172449   0.468   1.346   3.730 -0.7418  0.0414  0.1853
16986TIP3    H272450   0.425   1.413   3.602  0.5583 -0.0314 -0.2948
16987TIP3   OH272451   0.348   0.647  13.781  0.8876  0.0575  0.0057
16987TIP3    H172452   0.321   0.697  13.704  1.3455 -0.9930 -0.8713
16987TIP3    H272453   0.319   0.700  13.855  0.4765  1.1247 -0.8793
16988TIP3   OH272454   4.978   6.627  14.193 -0.2063 -0.2032 -0.0089
16988TIP3    H172455   4.988   6.583  14.108  0.6233 -2.4523  1.1718
16988TIP3    H272456   4.888   6.609  14.219 -0.2596 -0.0910 -0.1179
16989TIP3   OH272457   2.261   2.250  13.938 -0.3105 -0.8126 -0.0012
16989TIP3    H172458   2.306   2.194  13.876 -0.5846 -2.2779  1.0590
16989TIP3    H272459   2.185   2.198  13.967 -0.1820 -0.2016  1.5402
16990TIP3   OH272460   5.959   5.750  15.994  0.1401  0.1154  0.9632
16990TIP3    H172461   6.050   5.747  16.025 -0.3318 -1.7369  2.3713
16990TIP3    H272462   5.960   5.698  15.913  0.2056 -0.5389  1.3801
16991TIP3   OH272463   1.185   0.340  14.151  0.0012  0.4807 -0.2839
16991TIP3    H172464   1.178   0.267  14.213 -0.5962  0.3880 -0.4597
16991TIP3    H272465   1.260   0.317  14.096 -0.5339 -0.2797 -0.7060
16992TIP3   OH272466   1.707   1.008   1.407  0.1923  0.6012 -0.0674
16992TIP3    H172467   1.775   0.949   1.439  0.3092  0.8198  0.0947
16992TIP3    H272468   1.753   1.089   1.388  0.3256  0.1150 -1.9482
16993TIP3   OH272469   4.137   0.138   4.633 -0.0286  0.1402 -0.0233
16993TIP3    H172470   4.053   0.120   4.591 -0.8650  1.5180  0.9858
16993TIP3    H272471   4.131   0.097   4.719  0.2900  0.3128  0.0839
16994TIP3   OH272472   3.547   0.688   5.792  0.7716  0.4804  0.6191
16994TIP3    H172473   3.638   0.698   5.765  0.3147  0.5048 -1.0956
16994TIP3    H272474   3.501   0.668   5.710 -1.1185  2.7690  1.0251
16995TIP3   OH272475   2.094   6.136   2.934  0.4189 -0.6063 -0.0546
16995TIP3    H172476   2.013   6.093   2.962 -2.1843  3.8319  0.2951
16995TIP3    H272477   2.091   6.133   2.839 -0.2608 -0.3725 -0.0463
16996TIP3   OH272478   6.650   4.193   1.762 -0.3870 -0.3497  0.4460
16996TIP3    H172479   6.670   4.264   1.823  0.1326 -0.6100  0.5899
16996TIP3    H272480   6.599   4.234   1.693 -2.2472 -0.3295  1.7792
16997TIP3   OH272481   3.470   0.207  12.123 -0.4722  0.6962  0.0736
16997TIP3    H172482   3.477   0.118  12.088  1.9443  1.2183 -0.9533
16997TIP3    H272483   3.518   0.205  12.205 -0.0903  1.1320 -0.1360
16998TIP3   OH272484   1.446   5.054   3.044 -0.5304 -0.2410  0.3076
16998TIP3    H172485   1.424   5.072   3.135  0.3229 -0.7630  0.6292
16998TIP3    H272486   1.503   4.977   3.047 -0.4225 -0.2228 -0.6585
16999TIP3   OH272487   4.894   3.716   4.686  0.3450 -0.0402  0.1878
16999TIP3    H172488   4.922   3.743   4.773  1.6458  0.5281 -0.3831
16999TIP3    H272489   4.915   3.791   4.630  0.2080 -0.6777 -0.7308
17000TIP3   OH272490   4.556   5.625  15.704  0.2715 -0.0766  0.0849
17000TIP3    H172491   4.638   5.644  15.659  1.5914 -1.9782  1.5517
17000TIP3    H272492   4.524   5.710  15.733  0.8857  0.8684 -1.8592
17001TIP3   OH272493   4.099   6.749   3.097  0.0769 -0.0938  0.2355
17001TIP3    H172494   4.120   6.808   3.169  1.4088  1.2282 -1.1535
17001TIP3    H272495   4.092   6.663   3.137  1.2119  0.5326  1.8748
17002TIP3   OH272496   1.951   4.741   0.713 -0.5289  0.1172 -0.1791
17002TIP3    H172497   1.950   4.646   0.703 -1.6363  0.2423 -1.6550
17002TIP3    H272498   2.006   4.757   0.790 -0.2256 -1.6964  0.0214
17003TIP3   OH272499   2.255   2.471   4.022  0.2929 -0.4155  0.8017
17003TIP3    H172500   2.176   2.478   3.969  1.1322 -1.8416 -0.7272
17003TIP3    H272501   2.243   2.390   4.072  0.5487 -0.3493  0.9705
17004TIP3   OH272502   2.579   1.063  11.043 -0.2634 -0.4683  0.1711
17004TIP3    H172503   2.661   1.105  11.017  1.3173 -3.1752  0.3743
17004TIP3    H272504   2.557   1.104  11.127  0.5726  0.6627 -0.1370
17005TIP3   OH272505   4.495   4.863   1.372  0.2592 -0.3385  0.3319
17005TIP3    H172506   4.469   4.948   1.409  0.0618 -0.9971  1.7929
17005TIP3    H272507   4.587   4.874   1.350 -0.0809  0.6338 -0.6924
17006TIP3   OH272508   3.695   1.884   4.926 -0.6010 -0.0156  0.0201
17006TIP3    H172509   3.757   1.947   4.964  0.6647 -1.3744  0.3185
17006TIP3    H272510   3.729   1.869   4.838 -1.0665 -0.0573 -0.1501
17007TIP3   OH272511   4.520   1.693  16.936  0.0951  0.1234 -0.0646
17007TIP3    H172512   4.460   1.767  16.945  0.0194 -0.0386  0.8773
17007TIP3    H272513   4.511   1.666  16.845 -0.2858  0.9261 -0.2754
17008TIP3   OH272514   5.045   1.251  16.734 -0.1907  0.1360  0.2909
17008TIP3    H172515   5.083   1.224  16.650  0.1294  1.0991  0.1130
17008TIP3    H272516   4.954   1.271  16.714  0.1643  1.4771 -0.0916
17009TIP3   OH272517   3.249   0.864   0.165 -0.0357  0.0199 -0.2032
17009TIP3    H172518   3.281   0.893   0.251 -0.0882 -0.1666 -0.1202
17009TIP3    H272519   3.275   0.772   0.159  0.4450  0.1807 -0.6183
17010TIP3   OH272520   2.317   6.389   5.905  0.1777 -0.7159  0.5741
17010TIP3    H172521   2.295   6.310   5.954 -1.9144 -0.8199 -0.4246
17010TIP3    H272522   2.240   6.445   5.916  0.0706 -0.3368 -1.7213
17011TIP3   OH272523   4.061   0.444  13.263  0.0480 -0.1586  0.0194
17011TIP3    H172524   4.010   0.445  13.183  0.1641 -0.7271 -0.0689
17011TIP3    H272525   4.149   0.416  13.235 -0.0443 -0.8512  0.4127
17012TIP3   OH272526   0.215   2.394  12.921 -0.0168  0.6506  0.2514
17012TIP3    H172527   0.297   2.356  12.952  0.1533 -0.6622 -1.6361
17012TIP3    H272528   0.193   2.461  12.986  2.0129  0.3490  1.3188
17013TIP3   OH272529   3.246   0.569   1.385  0.3651  0.5236  0.5907
17013TIP3    H172530   3.285   0.482   1.397 -1.0112 -0.3717 -0.9302
17013TIP3    H272531   3.186   0.579   1.459  1.3961  0.7003  1.4111
17014TIP3   OH272532   2.247   5.946   2.581  0.4473 -0.3255  0.4692
17014TIP3    H172533   2.157   5.979   2.588 -0.0077 -1.1966 -0.7537
17014TIP3    H272534   2.283   5.992   2.505  0.9125 -0.2332  0.7460
17015TIP3   OH272535   3.153   5.501  11.054 -0.0481 -0.2617  0.2057
17015TIP3    H172536   3.235   5.465  11.021 -0.3999  0.8153 -2.0776
17015TIP3    H272537   3.089   5.432  11.038 -0.2123  0.2342 -1.5496
17016TIP3   OH272538   1.454   4.982   2.055  0.3341  0.2722  1.0632
17016TIP3    H172539   1.482   4.891   2.057  1.4866  0.3714 -2.6673
17016TIP3    H272540   1.441   5.002   1.962  0.7697  4.0770  1.6313
17017TIP3   OH272541   6.120   2.950   2.026  0.1787 -0.1177 -0.5285
17017TIP3    H172542   6.095   2.857   2.019 -0.4123 -0.0174  0.0796
17017TIP3    H272543   6.039   2.997   2.008  0.8100  0.3369 -2.3278
17018TIP3   OH272544   5.615   1.898   4.105  0.3770 -0.9461 -0.7614
17018TIP3    H172545   5.660   1.827   4.058  0.7677 -2.4057  1.6806
17018TIP3    H272546   5.569   1.855   4.176 -2.2345  0.9185 -1.1752
17019TIP3   OH272547   3.275   5.653  13.942 -0.4471  0.3032  0.5292
17019TIP3    H172548   3.190   5.697  13.950 -0.7126  0.1781 -1.2539
17019TIP3    H272549   3.288   5.643  13.848  2.1066  1.3906  0.6865
17020TIP3   OH272550   3.331   5.128   4.145  0.3260  0.0169 -0.0356
17020TIP3    H172551   3.380   5.053   4.179 -0.6937 -0.3427  0.6903
17020TIP3    H272552   3.249   5.091   4.113 -0.1806  0.8075  0.3158
17021TIP3   OH272553   1.139   5.930   0.152  0.6211 -0.5499 -0.7105
17021TIP3    H172554   1.146   5.875   0.230  0.9474  1.4859  0.7858
17021TIP3    H272555   1.224   5.972   0.145  0.1818  0.2536 -1.4157
17022TIP3   OH272556   0.335   0.269  15.144  0.3267 -0.0815  0.3902
17022TIP3    H172557   0.312   0.322  15.068  0.0047 -0.8447 -0.0596
17022TIP3    H272558   0.426   0.244  15.129  0.5032  0.4009  0.6418
17023TIP3   OH272559   4.588   4.865   0.959 -0.4604 -0.3460  0.3808
17023TIP3    H172560   4.681   4.844   0.968 -0.2271  0.7741  0.7199
17023TIP3    H272561   4.543   4.788   0.994  0.3063 -1.4400 -0.9441
17024TIP3   OH272562   0.417   1.566   5.267  0.0812 -0.2171 -0.3349
17024TIP3    H172563   0.508   1.538   5.274 -0.1454 -0.9419 -0.2154
17024TIP3    H272564   0.420   1.661   5.277  0.8053 -0.2533 -0.1791
17025TIP3   OH272565   2.179   0.612   3.422  0.1703  0.2057  0.5559
17025TIP3    H172566   2.254   0.653   3.467 -0.1292  0.8295  0.4992
17025TIP3    H272567   2.115   0.683   3.414  0.2720  0.1418 -1.0026
17026TIP3   OH272568   5.277   2.429   4.302  0.2275 -0.0662  0.6112
17026TIP3    H172569   5.224   2.479   4.240 -1.6091 -1.0104  1.3488
17026TIP3    H272570   5.309   2.355   4.250 -1.0326 -0.6764  0.6577
17027TIP3   OH272571   0.894   0.912   5.394  0.0446 -0.5396  0.3848
17027TIP3    H172572   0.850   0.893   5.312 -1.7412  1.5837  0.7422
17027TIP3    H272573   0.840   0.870   5.461 -0.0155 -0.0377  0.6552
17028TIP3   OH272574   6.072   1.729   3.788 -0.4083  0.2358  0.1412
17028TIP3    H172575   6.093   1.694   3.701  0.4290  1.3633 -0.1329
17028TIP3    H272576   6.154   1.769   3.818  0.2207 -2.5809  2.7234
17029TIP3   OH272577   0.913   5.970   6.556 -0.2378  0.3561  0.9247
17029TIP3    H172578   0.915   5.983   6.461 -2.4117  0.7984  0.8753
17029TIP3    H272579   0.904   5.876   6.567  1.7237  0.1212  0.7854
17030TIP3   OH272580   0.747   0.227  14.785  0.3490  0.1121 -0.3592
17030TIP3    H172581   0.818   0.259  14.841 -1.9038  1.3329  1.9622
17030TIP3    H272582   0.735   0.136  14.811  0.4605  0.1727 -0.0943
17031TIP3   OH272583   6.335   2.369  15.579 -0.6355  0.0042 -0.3193
17031TIP3    H172584   6.370   2.448  15.538 -0.3546 -0.9757 -2.0743
17031TIP3    H272585   6.401   2.343  15.643  1.9414 -1.6359 -3.3521
17032TIP3   OH272586   1.447   6.070  12.361  0.0146 -0.2675 -1.1890
17032TIP3    H172587   1.533   6.057  12.321  1.2908 -0.3817  1.4103
17032TIP3    H272588   1.406   5.984  12.358 -0.2057 -0.1483 -2.7146
17033TIP3   OH272589   3.207   3.908  11.927 -0.0878 -0.0547 -0.3188
17033TIP3    H172590   3.231   3.995  11.895 -0.6608  0.2993  0.1968
17033TIP3    H272591   3.291   3.867  11.948  0.2678 -0.1271 -1.8010
17034TIP3   OH272592   0.512   6.518  16.305  0.6583  0.2846 -0.0102
17034TIP3    H172593   0.593   6.490  16.347  0.6301 -0.6938 -0.5860
17034TIP3    H272594   0.450   6.447  16.321  0.6186 -0.0591 -1.6075
17035TIP3   OH272595   2.198   5.679  13.567 -0.1419 -0.1424  0.4127
17035TIP3    H172596   2.189   5.671  13.472  0.2378  4.7955 -0.3283
17035TIP3    H272597   2.283   5.640  13.587  1.9207  2.4921 -2.2256
17036TIP3   OH272598   6.425   5.430  13.799  0.5432 -0.0510 -0.3307
17036TIP3    H172599   6.482   5.476  13.860  1.6546 -0.8545 -0.7365
17036TIP3    H272600   6.449   5.338  13.808 -1.1552 -0.5027 -0.0397
17037TIP3   OH272601   5.657   1.743  11.448 -0.1158  0.1740  0.5307
17037TIP3    H172602   5.626   1.696  11.526 -1.1969  1.1788  0.7349
17037TIP3    H272603   5.582   1.743  11.389  1.0764 -1.7288 -1.1163
17038TIP3   OH272604   1.388   5.583  14.418  0.5017  0.1786 -0.0666
17038TIP3    H172605   1.358   5.543  14.336 -0.8579  0.3393  0.3270
17038TIP3    H272606   1.349   5.529  14.487 -0.3359  1.4229  0.4709
17039TIP3   OH272607   5.861   0.167  11.326 -0.3149 -0.2595 -0.6615
17039TIP3    H172608   5.952   0.148  11.303 -0.0886 -1.0341  0.7888
17039TIP3    H272609   5.855   0.150  11.420 -1.9022  0.0287 -0.6735
17040TIP3   OH272610   3.108   0.241   5.646  0.2740  0.2646 -0.3329
17040TIP3    H172611   3.124   0.173   5.580 -1.4847 -0.9774  0.4313
17040TIP3    H272612   3.013   0.243   5.656  0.3603  1.9747  0.6035
17041TIP3   OH272613   3.045   5.324  16.312 -0.4578 -0.3750  0.3645
17041TIP3    H172614   2.954   5.297  16.323 -0.6547 -0.9133 -2.0703
17041TIP3    H272615   3.055   5.337  16.218  1.9536 -0.1833  0.5922
17042TIP3   OH272616   3.589   3.992   0.765 -0.5494  0.2713 -0.2658
17042TIP3    H172617   3.507   4.033   0.794 -0.1582  0.0544  1.2142
17042TIP3    H272618   3.643   4.065   0.735 -0.3297  0.7440  1.1761
17043TIP3   OH272619   1.956   3.187  15.830  0.4105  0.4601 -0.1798
17043TIP3    H172620   1.932   3.097  15.807 -1.6199  1.0138 -0.4095
17043TIP3    H272621   1.905   3.241  15.770 -0.7222  1.8308  1.9202
17044TIP3   OH272622   2.476   2.878  17.071 -0.3835  0.3373 -0.6694
17044TIP3    H172623   2.511   2.792  17.049 -1.2483 -0.1266 -0.2961
17044TIP3    H272624   2.394   2.859  17.118 -0.0567  1.3415  0.3541
17045TIP3   OH272625   0.273   5.316  14.193  0.5379 -0.2256  0.0456
17045TIP3    H172626   0.287   5.352  14.280  1.2162  0.0058 -0.1556
17045TIP3    H272627   0.228   5.385  14.145  1.2010  0.0860 -0.1294
17046TIP3   OH272628   6.512   1.121   0.092  0.1238 -0.0848 -0.1961
17046TIP3    H172629   6.565   1.071   0.030 -0.9164  0.0541 -1.2261
17046TIP3    H272630   6.461   1.055   0.140 -0.2073 -0.1074 -0.5739
17047TIP3   OH272631   6.655   4.774  10.808 -0.0372  0.3706 -0.6225
17047TIP3    H172632   6.615   4.786  10.721 -0.2984  0.9007 -0.4326
17047TIP3    H272633   6.638   4.856  10.854  1.9555  0.9253 -0.7882
17048TIP3   OH272634   4.765   4.575   5.832  0.6349 -0.1371  0.3528
17048TIP3    H172635   4.673   4.577   5.805  1.0587  1.0285 -1.1080
17048TIP3    H272636   4.798   4.492   5.796  0.4841  0.0735 -0.2815
17049TIP3   OH272637   5.558   0.928  10.549  0.0115 -0.3488 -0.2899
17049TIP3    H172638   5.582   1.003  10.495  1.6499 -0.7485 -0.1532
17049TIP3    H272639   5.543   0.965  10.636  0.1647 -0.0912 -0.3707
17050TIP3   OH272640   3.992   5.233  15.074  0.3830 -0.1222  0.0978
17050TIP3    H172641   3.913   5.197  15.114  0.1810  1.1113  0.8345
17050TIP3    H272642   4.062   5.212  15.135  1.2998 -3.9623 -1.9271
17051TIP3   OH272643   6.082   6.064  13.534 -0.1535 -0.4603  0.0221
17051TIP3    H172644   6.101   5.995  13.597  0.8955 -0.9776 -0.8362
17051TIP3    H272645   6.036   6.131  13.586  1.0017 -0.6978  1.4320
17052TIP3   OH272646   5.740   5.129  15.168 -0.1539 -0.3775  0.4698
17052TIP3    H172647   5.666   5.177  15.207 -0.0627  0.7127 -0.6270
17052TIP3    H272648   5.816   5.184  15.186  0.0966 -0.5521 -0.0410
17053TIP3   OH272649   2.111   5.866   4.484  0.4447  0.2419  0.5444
17053TIP3    H172650   2.052   5.840   4.413  1.8506 -0.0776 -0.5512
17053TIP3    H272651   2.187   5.902   4.440  0.8187  1.2560  1.9434
17054TIP3   OH272652   1.451   2.358   5.654 -0.2492  0.2513 -0.2480
17054TIP3    H172653   1.361   2.352   5.688  0.3156  1.7533  1.7279
17054TIP3    H272654   1.494   2.279   5.688 -0.9700 -0.9550 -1.9589
17055TIP3   OH272655   6.338   0.453   5.277  0.1505 -0.3011  0.1291
17055TIP3    H172656   6.371   0.537   5.309 -0.5942  0.1109 -0.1505
17055TIP3    H272657   6.363   0.450   5.185  0.8846 -0.7584  0.3373
17056TIP3   OH272658   5.033   0.135   4.627  0.1304  0.0905 -0.1296
17056TIP3    H172659   5.024   0.173   4.540  0.6061 -0.3818 -0.3924
17056TIP3    H272660   5.013   0.042   4.615  0.0524  0.0504  0.2913
17057TIP3   OH272661   1.954   4.285  11.187 -0.0267  0.1483 -0.4070
17057TIP3    H172662   1.924   4.205  11.230  1.1175  0.5323  1.2211
17057TIP3    H272663   1.960   4.263  11.095  0.3352 -1.6583  0.0224
17058TIP3   OH272664   4.801   2.113  15.096 -0.4283  0.1447 -0.4135
17058TIP3    H172665   4.782   2.043  15.158  0.5696 -0.0417 -0.3063
17058TIP3    H272666   4.815   2.069  15.013  0.1423  0.2132 -0.3589
17059TIP3   OH272667   5.333   0.000  14.449  0.5959 -0.4022 -0.1857
17059TIP3    H172668   5.244   0.000  14.415  0.1880 -0.0586  0.8668
17059TIP3    H272669   5.351  -0.092  14.468 -0.2014 -0.2809  1.2785
17060TIP3   OH272670   3.550   3.060   2.163  0.1682 -0.5284  0.2988
17060TIP3    H172671   3.499   3.023   2.090  0.3378 -2.5046  1.1062
17060TIP3    H272672   3.615   3.116   2.122 -0.3000 -0.9208 -1.0195
17061TIP3   OH272673   3.992   4.936   2.965  0.1555 -0.0598  0.5489
17061TIP3    H172674   4.005   4.870   3.032 -2.2681 -1.5287 -0.3020
17061TIP3    H272675   3.920   4.990   2.998 -0.0451  0.1272 -0.1699
17062TIP3   OH272676   1.429   6.444  12.150 -0.1993  0.1817 -0.1839
17062TIP3    H172677   1.386   6.381  12.092 -1.6575  0.1000  0.9170
17062TIP3    H272678   1.364   6.514  12.161  0.4869  0.7291  0.4572
17063TIP3   OH272679   5.468   1.727   2.799 -0.4493  0.1686 -0.0432
17063TIP3    H172680   5.393   1.722   2.738 -1.5173  1.3098  1.1262
17063TIP3    H272681   5.470   1.640   2.840 -0.9781  0.0502 -0.2562
17064TIP3   OH272682   0.646   1.334  12.602  0.3528  0.5605 -0.3438
17064TIP3    H172683   0.554   1.331  12.575 -0.0457  1.7650  0.7823
17064TIP3    H272684   0.644   1.376  12.688  1.9317  0.2589 -0.1377
17065TIP3   OH272685   1.989   4.721  11.982 -0.2065  0.5263 -0.0335
17065TIP3    H172686   1.893   4.722  11.986 -0.1919  0.5303  0.3690
17065TIP3    H272687   2.010   4.647  11.925 -0.3898 -1.4894  2.3418
17066TIP3   OH272688   1.021   5.492   3.802 -0.5203 -0.0336 -0.1858
17066TIP3    H172689   1.034   5.580   3.767  1.1333 -0.5622 -0.9703
17066TIP3    H272690   1.077   5.488   3.879  1.5760 -1.2269 -1.6728
17067TIP3   OH272691   1.628   3.038   4.955  0.2530 -0.3249  0.2264
17067TIP3    H172692   1.656   3.057   4.865 -1.3958  1.8214  0.0741
17067TIP3    H272693   1.589   2.951   4.950  0.5629 -0.4191 -1.0469
17068TIP3   OH272694   5.915   3.375  15.496  0.6433 -0.2840  0.3514
17068TIP3    H172695   5.896   3.403  15.406  0.7527 -0.8494  0.1454
17068TIP3    H272696   5.931   3.281  15.488  0.7656 -0.3141  0.9492
17069TIP3   OH272697   5.201   4.141  14.445 -0.2093  0.0436 -0.2710
17069TIP3    H172698   5.210   4.224  14.399 -1.0873  0.1196 -0.3194
17069TIP3    H272699   5.225   4.075  14.380  1.8439  0.2973  0.1674
17070TIP3   OH272700   0.727   6.220   0.765 -0.3757  0.1367 -0.0107
17070TIP3    H172701   0.812   6.211   0.807 -0.2028  0.4046 -0.2962
17070TIP3    H272702   0.721   6.144   0.707 -2.5995 -2.9882  3.7891
17071TIP3   OH272703   3.966   1.186  12.411 -0.4795 -0.4749  0.1990
17071TIP3    H172704   3.976   1.104  12.364 -0.8888 -0.9721  0.9486
17071TIP3    H272705   3.971   1.162  12.503  1.4907  0.6315  0.4363
17072TIP3   OH272706   2.915   3.252  15.564  0.7320  0.4160  0.8001
17072TIP3    H172707   2.948   3.181  15.508  1.6547  0.1901  1.6111
17072TIP3    H272708   2.918   3.330  15.508  1.8721  0.2391  0.5869
17073TIP3   OH272709   5.086   5.141   1.549 -0.6672  0.0105 -0.5451
17073TIP3    H172710   5.098   5.213   1.488  0.7702 -0.7991 -1.2576
17073TIP3    H272711   5.155   5.153   1.615 -0.3414 -0.7734 -0.7366
17074TIP3   OH272712   4.774   1.956   2.820  0.3250  0.4277 -0.1647
17074TIP3    H172713   4.797   2.021   2.887 -0.9936  0.7428  0.0152
17074TIP3    H272714   4.840   1.888   2.829  0.3783  0.6259  1.2351
17075TIP3   OH272715   3.333   6.201  13.646 -0.8287 -0.9003  0.1764
17075TIP3    H172716   3.365   6.120  13.686 -0.2049 -1.1827 -0.8458
17075TIP3    H272717   3.285   6.172  13.568  0.2233 -0.2581 -0.7375
17076TIP3   OH272718   2.936   5.665  10.435 -0.2025  0.3972 -0.2955
17076TIP3    H172719   2.876   5.659  10.509 -1.3721  0.6827 -1.1878
17076TIP3    H272720   2.984   5.747  10.450 -0.6370  0.6025 -0.0016
17077TIP3   OH272721   5.707   1.676   1.088 -0.4355  0.3862  0.3558
17077TIP3    H172722   5.719   1.763   1.050 -0.5906 -0.0009 -0.6157
17077TIP3    H272723   5.793   1.634   1.079 -0.6696  0.0263 -0.2938
17078TIP3   OH272724   1.323   4.461   2.406 -0.1156  0.0206 -0.4590
17078TIP3    H172725   1.303   4.386   2.348 -1.1591  0.1057 -0.2314
17078TIP3    H272726   1.306   4.428   2.494  2.5389 -0.4583 -0.0455
17079TIP3   OH272727   1.884   0.727  15.229  0.7468  0.2693 -0.5884
17079TIP3    H172728   1.854   0.651  15.179 -0.1092  0.0163  0.2643
17079TIP3    H272729   1.803   0.770  15.258  1.2095  0.3983  0.5723
17080TIP3   OH272730   3.338   3.956   5.828  0.3392  0.1449  0.1511
17080TIP3    H172731   3.333   3.983   5.920 -1.4805  0.6665 -0.0569
17080TIP3    H272732   3.275   3.884   5.821 -0.0445  0.5502 -0.8027
17081TIP3   OH272733   4.966   3.874   3.019 -0.4728  0.0263 -0.4419
17081TIP3    H172734   4.947   3.835   3.104  0.3364 -1.0570 -0.7312
17081TIP3    H272735   4.979   3.967   3.038  0.2268 -0.2822  0.7087
17082TIP3   OH272736   2.343   4.840   4.690  0.2862  0.2180 -0.3879
17082TIP3    H172737   2.433   4.807   4.692  0.4737  0.7456  0.3516
17082TIP3    H272738   2.289   4.761   4.681  0.6300 -0.6092  3.2435
17083TIP3   OH272739   4.301   1.265   2.799  0.3059  0.2289 -0.2397
17083TIP3    H172740   4.342   1.338   2.846 -0.8924  0.2726  0.8069
17083TIP3    H272741   4.332   1.187   2.845  1.0832  0.1075 -0.9571
17084TIP3   OH272742   2.471   3.009   5.919 -0.0423  0.1578 -0.0237
17084TIP3    H172743   2.512   2.930   5.954  0.7615  1.1700  1.4359
17084TIP3    H272744   2.411   3.037   5.988 -0.5878  0.6382 -0.6733
17085TIP3   OH272745   1.342   5.888  14.813 -0.2818 -0.1303  0.4915
17085TIP3    H172746   1.317   5.976  14.786  1.6332  0.2767 -0.1761
17085TIP3    H272747   1.276   5.831  14.773 -2.5926  1.0388  2.4056
17086TIP3   OH272748   6.223   4.503   1.584  0.5724  0.2492  0.7298
17086TIP3    H172749   6.155   4.461   1.637 -0.6249  2.2981  0.8963
17086TIP3    H272750   6.180   4.522   1.500  2.2570 -2.3684 -0.9132
17087TIP3   OH272751   0.066   3.248  10.827 -0.4599  0.3897  0.5072
17087TIP3    H172752   0.097   3.337  10.808  1.5162 -0.2878  0.3632
17087TIP3    H272753   0.114   3.223  10.906  1.4319 -1.6497 -1.1640
17088TIP3   OH272754   3.278   1.622  13.691 -0.7366 -0.5388 -0.5643
17088TIP3    H172755   3.252   1.598  13.603  1.2946 -1.9627 -0.8451
17088TIP3    H272756   3.252   1.547  13.745  0.1797 -0.7400 -0.3858
17089TIP3   OH272757   3.445   6.258   0.088  0.8234 -0.1757  0.2410
17089TIP3    H172758   3.526   6.291   0.126  1.3045  0.2381 -1.0783
17089TIP3    H272759   3.469   6.177   0.044  0.0451 -1.2548  1.7381
17090TIP3   OH272760   0.309   1.171   2.443  0.0594  0.5666 -0.3414
17090TIP3    H172761   0.293   1.208   2.530  1.3975  0.8008 -0.1658
17090TIP3    H272762   0.240   1.107   2.431 -1.6461  2.2932 -0.1711
17091TIP3   OH272763   5.943   3.919   2.541 -0.2428  0.5413  0.3339
17091TIP3    H172764   5.972   3.985   2.604  0.1107  0.7132 -0.0053
17091TIP3    H272765   5.950   3.963   2.456  0.8897 -0.2424  0.0148
17092TIP3   OH272766   5.682   4.040   6.034 -0.4517  0.8088  0.3002
17092TIP3    H172767   5.700   3.946   6.031  1.3670  1.0417  1.8998
17092TIP3    H272768   5.746   4.075   6.096 -0.5598  3.2496 -0.8517
17093TIP3   OH272769   1.556   4.879  15.958  0.0884 -0.1448  0.2063
17093TIP3    H172770   1.603   4.834  16.029  0.5219 -0.0867 -0.0404
17093TIP3    H272771   1.605   4.960  15.944 -2.3606  1.9820  2.7138
17094TIP3   OH272772   0.251   6.632   2.437  0.8858  0.0637 -0.0147
17094TIP3    H172773   0.240   6.712   2.488 -0.5586  0.2813 -0.5983
17094TIP3    H272774   0.167   6.586   2.446  1.6320 -1.3206  0.1828
17095TIP3   OH272775   6.615   2.378  12.300  0.0622  0.4027  0.5916
17095TIP3    H172776   6.523   2.394  12.317 -0.3170  0.3294 -1.1521
17095TIP3    H272777   6.657   2.463  12.312 -0.4298  0.6871  0.3379
17096TIP3   OH272778   2.508   5.674  13.688  0.6419 -0.4520  0.1236
17096TIP3    H172779   2.500   5.770  13.684  0.2499 -0.5219 -1.1691
17096TIP3    H272780   2.549   5.650  13.605  1.2566 -1.3798  0.6706
17097TIP3   OH272781   4.385   4.052   0.966 -0.0788  0.4543  0.0061
17097TIP3    H172782   4.330   4.127   0.988  0.9535  1.7301 -1.5421
17097TIP3    H272783   4.441   4.039   1.042  1.4152  2.8770 -0.5770
17098TIP3   OH272784   6.027   3.205  12.006  0.3748  0.1864 -0.0509
17098TIP3    H172785   6.088   3.203  11.932  2.7348  1.4870  1.7267
17098TIP3    H272786   6.080   3.181  12.082 -1.6252  0.2619  1.4512
17099TIP3   OH272787   2.330   3.888  14.803 -0.0361 -0.1421  0.3880
17099TIP3    H172788   2.331   3.908  14.896 -0.1122  0.4778  0.2644
17099TIP3    H272789   2.242   3.911  14.774  0.7003  2.0365 -0.3058
17100TIP3   OH272790   4.454   1.001  10.679  0.4454 -0.5213 -0.1367
17100TIP3    H172791   4.463   1.092  10.649 -1.5737 -0.3426 -0.3376
17100TIP3    H272792   4.468   0.949  10.600 -0.0260 -0.3010 -0.3683
17101TIP3   OH272793   2.840   1.152   1.760 -0.0063 -0.0171 -0.4612
17101TIP3    H172794   2.912   1.200   1.801 -0.6248 -0.2228  0.9302
17101TIP3    H272795   2.761   1.196   1.791 -0.5547 -1.3287  0.0663
17102TIP3   OH272796   1.490   3.833   2.639  0.0878 -0.4823  0.0856
17102TIP3    H172797   1.417   3.860   2.584  0.4110 -0.9565 -0.5872
17102TIP3    H272798   1.465   3.861   2.727 -0.3500  0.4578 -0.3211
17103TIP3   OH272799   3.485   0.294   0.469 -0.0677  0.0596 -0.1527
17103TIP3    H172800   3.439   0.233   0.411  0.5046 -1.3951  0.8659
17103TIP3    H272801   3.485   0.250   0.555  2.1891  0.5103  0.1510
17104TIP3   OH272802   4.090   5.234   3.225  0.1548  0.2291  0.1458
17104TIP3    H172803   4.144   5.157   3.206  0.3980  0.6455 -0.9187
17104TIP3    H272804   4.003   5.212   3.192  0.4522  0.7547 -1.0358
17105TIP3   OH272805   5.587   3.740  11.199 -0.5438  0.0995 -0.0718
17105TIP3    H172806   5.681   3.758  11.193 -0.4471 -0.2707  0.2796
17105TIP3    H272807   5.569   3.740  11.293 -1.0076  0.7234 -0.1551
17106TIP3   OH272808   4.285   2.812   1.284 -0.1198 -0.1048  0.0504
17106TIP3    H172809   4.202   2.857   1.304 -0.1300 -0.4363  0.7734
17106TIP3    H272810   4.261   2.720   1.280  0.6548 -0.5477  3.0375
17107TIP3   OH272811   6.079   3.278   2.415  0.2377 -0.3354  0.6479
17107TIP3    H172812   6.109   3.281   2.325  1.1706 -1.7857  0.8901
17107TIP3    H272813   6.000   3.333   2.416  1.7632  2.0327 -0.4163
17108TIP3   OH272814   0.183   6.571   3.465  0.1693 -0.1381 -0.2313
17108TIP3    H172815   0.265   6.554   3.512 -0.0459  0.0500  0.2187
17108TIP3    H272816   0.162   6.488   3.423  1.1389  0.0942 -1.2237
17109TIP3   OH272817   6.525   0.354   0.128 -0.0212 -0.5143  0.0217
17109TIP3    H172818   6.581   0.379   0.055  0.4641 -3.3628 -0.6633
17109TIP3    H272819   6.586   0.335   0.199 -0.2758 -1.1631  0.0680
17110TIP3   OH272820   3.128   0.103  10.541 -0.2782  0.2193  0.2983
17110TIP3    H172821   3.111   0.175  10.602 -1.8646 -0.4929  0.7311
17110TIP3    H272822   3.076   0.125  10.463 -0.0225  0.0033  0.0640
17111TIP3   OH272823   4.221   1.525   1.406  0.1384  0.0775  0.5813
17111TIP3    H172824   4.155   1.591   1.382  0.2396  0.0497  0.2139
17111TIP3    H272825   4.292   1.575   1.446  0.8884  0.4008 -1.0580
17112TIP3   OH272826   1.605   4.146  13.448  0.5711 -0.0086 -0.2604
17112TIP3    H172827   1.644   4.059  13.445 -0.0226 -0.2874 -0.2061
17112TIP3    H272828   1.649   4.190  13.520  0.4195 -0.4989  0.1404
17113TIP3   OH272829   0.174   3.212  16.822  0.1350 -0.2895 -0.3756
17113TIP3    H172830   0.211   3.289  16.867 -0.0859  0.1652 -0.9717
17113TIP3    H272831   0.088   3.200  16.862  0.2706 -0.3790 -0.1085
17114TIP3   OH272832   0.414   3.771  13.441 -0.0102  0.1348 -0.3637
17114TIP3    H172833   0.448   3.796  13.527 -0.4492 -0.0951 -0.1256
17114TIP3    H272834   0.476   3.705  13.410 -0.0776 -0.0722 -0.0556
17115TIP3   OH272835   1.798   0.860  13.150  0.2889 -0.9522 -0.1161
17115TIP3    H172836   1.860   0.917  13.105  1.0405 -1.1873  0.5854
17115TIP3    H272837   1.714   0.878  13.109  0.8464 -0.7463 -1.2070
17116TIP3   OH272838   3.404   0.680   5.518 -0.3890 -0.1198  0.0532
17116TIP3    H172839   3.359   0.764   5.524 -2.8396 -1.2667 -0.7446
17116TIP3    H272840   3.469   0.692   5.448 -1.3865  0.8501 -0.7431
17117TIP3   OH272841   1.559   6.375   5.433 -0.3068  0.0151  0.0354
17117TIP3    H172842   1.570   6.284   5.460 -0.3575  0.0900  0.3082
17117TIP3    H272843   1.581   6.426   5.511 -0.4775  0.2294 -0.0560
17118TIP3   OH272844   2.641   4.398   5.814 -0.0255 -0.3202  0.1331
17118TIP3    H172845   2.680   4.331   5.758  0.8555  0.0541  0.2846
17118TIP3    H272846   2.648   4.363   5.902 -0.7101 -0.5724  0.0908
17119TIP3   OH272847   5.798   3.997   2.093 -0.2840 -0.0922  0.5241
17119TIP3    H172848   5.747   4.072   2.123 -0.5480 -0.2088  0.3714
17119TIP3    H272849   5.879   4.001   2.144 -0.0979  0.5633  0.1813
17120TIP3   OH272850   0.112   4.324   5.791  0.2227  0.0657  0.0279
17120TIP3    H172851   0.096   4.335   5.884 -1.5771  0.0527 -0.2435
17120TIP3    H272852   0.158   4.403   5.764 -1.1929  1.0995  0.5299
17121TIP3   OH272853   0.798   2.802  13.388  0.1978 -0.0846 -0.8888
17121TIP3    H172854   0.791   2.898  13.387 -0.0040 -0.0447  0.8491
17121TIP3    H272855   0.865   2.782  13.322  0.4312  1.2680 -1.0916
17122TIP3   OH272856   5.962   5.886  11.478 -0.6533  0.3783 -0.3998
17122TIP3    H172857   5.968   5.978  11.452 -0.5867  1.1109  1.9952
17122TIP3    H272858   5.983   5.886  11.571 -1.1306 -2.0149 -0.2366
17123TIP3   OH272859   6.016   6.096  16.514 -0.4390  0.0316 -0.0566
17123TIP3    H172860   5.941   6.044  16.542  0.6566 -1.8840 -0.4471
17123TIP3    H272861   6.089   6.033  16.512  1.1817  1.8087  0.3194
17124TIP3   OH272862   2.521   1.609   2.806  0.2253 -0.0576  0.2272
17124TIP3    H172863   2.585   1.538   2.814 -1.1953 -1.4340 -0.1268
17124TIP3    H272864   2.450   1.583   2.865 -0.9112  0.3799 -0.9114
17125TIP3   OH272865   1.841   5.039   2.899 -0.3131  0.6693  0.0150
17125TIP3    H172866   1.849   4.990   2.981  1.4300  1.3794  0.3353
17125TIP3    H272867   1.820   4.974   2.833  0.3052 -0.2473  0.6987
17126TIP3   OH272868   3.952   5.933   0.400 -0.5066  0.0118  0.5402
17126TIP3    H172869   3.955   5.852   0.451 -2.3431 -0.8309 -0.5998
17126TIP3    H272870   3.955   6.003   0.465  0.1042 -0.9663  1.6072
17127TIP3   OH272871   5.846   0.340  12.132  0.1894 -0.5551 -0.5464
17127TIP3    H172872   5.930   0.387  12.132  0.3158 -0.7796 -0.6055
17127TIP3    H272873   5.871   0.247  12.129 -0.0660 -0.6173 -0.7107
17128TIP3   OH272874   6.675   1.454  12.871  0.4106 -0.0392  0.3857
17128TIP3    H172875   6.756   1.406  12.859  0.2081 -0.5285  0.9486
17128TIP3    H272876   6.669   1.469  12.966 -0.5049 -0.6311  0.4343
17129TIP3   OH272877   2.228   4.670   1.168 -0.6733  0.3994  0.1108
17129TIP3    H172878   2.318   4.641   1.180 -0.6021  0.8472  0.6601
17129TIP3    H272879   2.175   4.602   1.210 -0.6331 -0.1587 -0.7046
17130TIP3   OH272880   6.055   6.331   1.089 -0.0115 -0.1130 -0.0207
17130TIP3    H172881   6.076   6.423   1.106 -0.4956 -0.1845  0.9904
17130TIP3    H272882   6.127   6.282   1.129  1.4410 -0.1493 -2.4398
17131TIP3   OH272883   4.043   4.955  11.394 -0.4621 -0.0563  0.2452
17131TIP3    H172884   3.959   4.966  11.438 -0.8238  1.2156 -0.6943
17131TIP3    H272885   4.022   4.959  11.301  0.7518  1.4650 -0.0068
17132TIP3   OH272886   1.069   4.377  14.074 -0.4550 -0.2581 -0.6686
17132TIP3    H172887   1.057   4.325  14.153 -0.0652  1.5743  0.6545
17132TIP3    H272888   0.984   4.416  14.057 -0.2916  0.1666 -0.5349
17133TIP3   OH272889   2.261   6.224  14.553 -0.2227  0.1449  0.0049
17133TIP3    H172890   2.232   6.206  14.643  0.1147  0.2644  0.1415
17133TIP3    H272891   2.353   6.249  14.563 -0.2840  0.5084 -0.3380
17134TIP3   OH272892   0.966   0.212  13.376 -0.4186  0.4662  0.0829
17134TIP3    H172893   0.997   0.295  13.340 -0.1160  0.5026  0.4155
17134TIP3    H272894   1.045   0.158  13.383 -0.1302  1.0659  2.3053
17135TIP3   OH272895   1.026   4.523  14.454 -0.0382  0.0792 -0.2040
17135TIP3    H172896   0.997   4.567  14.375  0.2333 -0.0117 -0.3552
17135TIP3    H272897   0.950   4.472  14.483  0.5894 -1.8801 -1.7952
17136TIP3   OH272898   6.725   2.783   1.728  0.1787 -0.7511 -0.0034
17136TIP3    H172899   6.649   2.729   1.708 -0.0319 -0.8640  1.0436
17136TIP3    H272900   6.705   2.868   1.688 -0.4414 -0.8184  0.1513
17137TIP3   OH272901   5.290   2.189  16.195 -0.4901 -0.3162  0.3921
17137TIP3    H172902   5.380   2.209  16.222 -0.5786  0.1286  0.3653
17137TIP3    H272903   5.297   2.107  16.147 -0.1444 -0.4499  0.6689
17138TIP3   OH272904   4.597   0.747  16.517 -0.2115 -0.6549 -0.5813
17138TIP3    H172905   4.538   0.805  16.470 -1.6049 -2.5357 -1.2545
17138TIP3    H272906   4.674   0.801  16.536 -2.2616  2.0585  0.7501
17139TIP3   OH272907   3.121   3.661   6.100 -0.8094  0.7320  0.1847
17139TIP3    H172908   3.038   3.643   6.144 -1.5202  3.6895  0.2872
17139TIP3    H272909   3.132   3.756   6.108  0.8896  0.9044 -2.8033
17140TIP3   OH272910   1.031   3.607  16.675  0.0141 -0.3937  0.3790
17140TIP3    H172911   0.999   3.565  16.756 -0.3136  0.4651  0.7085
17140TIP3    H272912   1.095   3.671  16.706  1.1017 -1.1925 -0.1821
17141TIP3   OH272913   1.372   2.779   0.374  0.3398  0.8089  0.4272
17141TIP3    H172914   1.324   2.860   0.355  0.0427  0.5116 -0.1199
17141TIP3    H272915   1.403   2.749   0.289 -1.1577 -0.6444  0.3403
17142TIP3   OH272916   4.171   1.860   5.186  0.2935 -0.0201 -0.0397
17142TIP3    H172917   4.256   1.860   5.230  1.5604 -0.2786 -2.3434
17142TIP3    H272918   4.171   1.780   5.133 -1.9715 -0.7230  0.8623
17143TIP3   OH272919   3.608   1.016   2.861 -0.0139  0.4589 -0.1732
17143TIP3    H172920   3.666   1.074   2.909 -1.1020  1.5721 -0.1701
17143TIP3    H272921   3.520   1.039   2.891 -0.4233 -2.6431  1.4459
17144TIP3   OH272922   1.396   5.430  13.367  0.0957  0.0503 -0.0555
17144TIP3    H172923   1.372   5.367  13.300  1.2616 -0.0437 -0.3978
17144TIP3    H272924   1.329   5.499  13.361  1.2115  1.0166 -2.6148
17145TIP3   OH272925   5.077   3.200  16.824 -0.6681  0.2080 -0.2425
17145TIP3    H172926   4.995   3.239  16.795 -0.3610  0.1241 -1.2560
17145TIP3    H272927   5.062   3.105  16.817 -1.1488  0.1247  1.4742
17146TIP3   OH272928   1.863   4.587  16.678  0.0804  0.2167 -0.6014
17146TIP3    H172929   1.827   4.500  16.663  1.1270 -0.4191  0.3928
17146TIP3    H272930   1.819   4.643  16.614 -0.8657 -0.9683 -1.0173
17147TIP3   OH272931   0.067   0.272   4.847  0.0836 -0.3412 -0.5545
17147TIP3    H172932   0.099   0.227   4.768  0.4324 -0.9665 -0.0714
17147TIP3    H272933   0.025   0.351   4.814 -0.7672 -1.1399 -1.4493
17148TIP3   OH272934   1.763   4.262   2.477  0.3935 -0.0946  0.3026
17148TIP3    H172935   1.824   4.189   2.494  0.8789  0.4447  0.9445
17148TIP3    H272936   1.722   4.240   2.394  1.7167 -0.3237 -0.3217
17149TIP3   OH272937   3.885   1.568   5.088  0.4718 -0.0205  0.8183
17149TIP3    H172938   3.943   1.514   5.141  1.4485 -0.7531 -0.9200
17149TIP3    H272939   3.799   1.526   5.097  1.2426 -2.0605 -0.6522
17150TIP3   OH272940   1.048   1.119  13.184 -0.1450  0.2882  0.7935
17150TIP3    H172941   1.039   1.149  13.275 -1.9179 -0.3100  0.8452
17150TIP3    H272942   0.998   1.037  13.181 -1.5576  1.1495 -1.1073
17151TIP3   OH272943   4.008   5.604  11.287  0.3822  0.6050 -0.0535
17151TIP3    H172944   4.039   5.544  11.219 -0.2206  1.4706 -1.1303
17151TIP3    H272945   4.045   5.569  11.368  0.6492 -0.7921 -0.7353
17152TIP3   OH272946   3.166   4.679  11.338 -0.1143  0.0651 -0.5924
17152TIP3    H172947   3.194   4.770  11.347 -0.9991  0.3615 -0.7694
17152TIP3    H272948   3.086   4.674  11.390 -0.3833 -0.4707 -1.0581
17153TIP3   OH272949   6.794   6.263   0.637  0.6370 -0.6063  0.3346
17153TIP3    H172950   6.716   6.232   0.591  1.0166 -0.2835 -0.5394
17153TIP3    H272951   6.775   6.245   0.729 -2.1620  2.8040  0.6806
17154TIP3   OH272952   3.788   0.087   1.655  0.5325 -0.1729  0.5484
17154TIP3    H172953   3.787   0.179   1.684  2.0005 -0.3853  1.3842
17154TIP3    H272954   3.878   0.072   1.626  0.7339 -1.7332  1.8234
17155TIP3   OH272955   5.767   5.052  11.806 -0.3353  0.8046 -0.8081
17155TIP3    H172956   5.822   4.995  11.753 -1.6612 -1.3672  0.0281
17155TIP3    H272957   5.706   4.993  11.850 -0.3458  2.6667  1.9052
17156TIP3   OH272958   5.411   5.750  16.776 -0.0473  0.0433  0.6554
17156TIP3    H172959   5.350   5.789  16.713 -3.1721 -1.7499  2.3018
17156TIP3    H272960   5.410   5.811  16.850  1.4423  0.7473  0.1402
17157TIP3   OH272961   5.584   3.228   0.526 -0.3395  0.1922 -0.3328
17157TIP3    H172962   5.668   3.182   0.533 -0.5965 -0.3182 -0.5362
17157TIP3    H272963   5.575   3.275   0.609  0.9610  1.6688 -0.9667
17158TIP3   OH272964   4.270   6.793   5.196 -0.0654 -1.1876 -0.1382
17158TIP3    H172965   4.246   6.885   5.196  1.4935 -0.7387  0.5589
17158TIP3    H272966   4.345   6.788   5.138 -1.4034 -2.4365 -1.8485
17159TIP3   OH272967   4.514   4.660   6.005  0.3720  0.2436 -0.1749
17159TIP3    H172968   4.427   4.622   5.993  1.6821 -1.9629 -4.1396
17159TIP3    H272969   4.549   4.615   6.082 -0.9239 -1.0330 -0.2892
17160TIP3   OH272970   0.907   5.219   1.468 -1.4252 -0.4221  0.2848
17160TIP3    H172971   0.873   5.142   1.423 -0.5082 -0.7309  0.1189
17160TIP3    H272972   0.897   5.290   1.405  0.5061 -0.9827 -0.7041
17161TIP3   OH272973   2.484   2.027  13.561 -0.1229 -0.7409 -0.2260
17161TIP3    H172974   2.565   2.062  13.599 -0.1630 -1.7780  0.9000
17161TIP3    H272975   2.513   1.965  13.494 -0.0137 -0.3329 -0.5601
17162TIP3   OH272976   3.178   3.584  16.132  0.1528  0.4610 -0.4384
17162TIP3    H172977   3.146   3.668  16.166 -0.4123  0.1717 -0.2331
17162TIP3    H272978   3.207   3.536  16.209 -2.9776 -0.9890  0.0004
17163TIP3   OH272979   4.482   0.394  12.267 -0.2298 -0.2082  1.0730
17163TIP3    H172980   4.456   0.479  12.234 -1.4225 -0.6829  0.7365
17163TIP3    H272981   4.400   0.344  12.271  0.3815 -1.1849  1.6872
17164TIP3   OH272982   0.593   5.561   3.937 -0.1723  0.6280  0.3268
17164TIP3    H172983   0.511   5.606   3.956 -0.2106  1.1014 -0.8877
17164TIP3    H272984   0.644   5.624   3.886  0.0304 -0.4527 -0.8715
17165TIP3   OH272985   6.188   3.777  15.472 -0.6311  0.2532 -0.8100
17165TIP3    H172986   6.209   3.833  15.546  1.1333 -1.6366  0.2175
17165TIP3    H272987   6.129   3.710  15.508  3.1965 -3.0226  0.1546
17166TIP3   OH272988   5.213   5.661  11.882 -0.3883 -0.1962  0.1118
17166TIP3    H172989   5.179   5.733  11.934 -0.7767 -1.5414  1.7993
17166TIP3    H272990   5.295   5.695  11.845 -1.0706  1.4233  0.0102
17167TIP3   OH272991   0.349   2.200   2.607  0.5637  0.0148  0.5160
17167TIP3    H172992   0.350   2.281   2.658 -1.4071  0.5601 -0.2185
17167TIP3    H272993   0.355   2.228   2.516 -1.1173 -0.5410  0.1933
17168TIP3   OH272994   3.257   2.630   2.673 -0.4084 -0.7671  0.0618
17168TIP3    H172995   3.304   2.639   2.756 -1.3673 -1.5588  0.7262
17168TIP3    H272996   3.282   2.707   2.622 -0.0647 -0.0903  1.2207
17169TIP3   OH272997   2.436   4.524   0.472 -0.2062 -0.4110 -0.1560
17169TIP3    H172998   2.415   4.492   0.560 -0.3972  0.5120  0.1458
17169TIP3    H272999   2.507   4.467   0.443  0.0516 -0.5546  0.7121
17170TIP3   OH273000   0.240   1.900   3.392  0.0644 -0.0612 -0.0291
17170TIP3    H173001   0.149   1.916   3.418 -0.5905 -2.0096 -0.9053
17170TIP3    H273002   0.282   1.986   3.397 -1.7356  0.8325  0.7028
17171TIP3   OH273003   0.884   1.477   4.036  0.4891 -0.7318  0.6777
17171TIP3    H173004   0.929   1.448   4.114  0.6445  0.5631  1.0838
17171TIP3    H273005   0.862   1.569   4.053 -0.3031 -0.6983 -0.4106
17172TIP3   OH273006   6.481   1.425   2.736  0.3714  0.1538 -0.0828
17172TIP3    H173007   6.466   1.520   2.742 -0.2040 -0.0224  2.1551
17172TIP3    H273008   6.525   1.413   2.651  0.0321  2.3486 -0.6335
17173TIP3   OH273009   1.610   4.116  14.813 -0.7039 -0.4804 -0.0814
17173TIP3    H173010   1.593   4.139  14.904  1.4640  0.5698  0.1365
17173TIP3    H273011   1.704   4.096  14.810 -0.3960  0.9003 -2.3102
17174TIP3   OH273012   2.463   3.555   2.335 -0.1703  0.3458  0.3360
17174TIP3    H173013   2.433   3.601   2.257  3.1877 -0.9805 -1.9652
17174TIP3    H273014   2.459   3.463   2.312  5.8449 -0.0940 -0.7771
17175TIP3   OH273015   0.578   6.705   1.858 -0.8665 -0.1298 -0.5352
17175TIP3    H173016   0.575   6.626   1.803 -0.6039 -0.8563  0.4782
17175TIP3    H273017   0.593   6.672   1.946 -3.8503  0.8169  0.4315
17176TIP3   OH273018   4.500   3.212   6.512 -0.1898 -0.2444  0.3369
17176TIP3    H173019   4.409   3.185   6.527 -0.6959  0.1284 -1.7094
17176TIP3    H273020   4.534   3.147   6.451  0.6803  0.0679  0.4794
17177TIP3   OH273021   1.312   1.634  12.014  0.3202  0.4936 -0.2623
17177TIP3    H173022   1.334   1.564  11.952  0.8539 -0.0192  0.4936
17177TIP3    H273023   1.304   1.590  12.098  3.2047  1.6413  0.7478
17178TIP3   OH273024   0.612   2.663  13.761 -0.1606  0.4242 -0.6607
17178TIP3    H173025   0.597   2.569  13.778  0.2489  0.2627 -1.1799
17178TIP3    H273026   0.558   2.682  13.684 -0.2702  0.6297 -0.5353
17179TIP3   OH273027   2.368   2.846   1.320 -0.7061  0.1651  0.3137
17179TIP3    H173028   2.444   2.901   1.340  0.2502 -0.8237 -0.4400
17179TIP3    H273029   2.392   2.801   1.239 -1.2390 -1.6738  1.1110
17180TIP3   OH273030   0.966   5.844  15.259 -0.0160  0.6143 -0.6663
17180TIP3    H173031   0.987   5.897  15.182  0.6344  2.0467  0.4334
17180TIP3    H273032   1.048   5.802  15.282  0.2545  1.5859  0.2336
17181TIP3   OH273033   5.411   0.549   0.657  0.3714  0.2700  0.1584
17181TIP3    H173034   5.399   0.581   0.746  0.4628 -0.1559  0.3265
17181TIP3    H273035   5.506   0.537   0.648  0.4114  0.7739 -0.1613
17182TIP3   OH273036   1.382   5.872   0.778  0.6391  0.3727 -0.7810
17182TIP3    H173037   1.301   5.924   0.776  1.2063  1.2890 -0.1830
17182TIP3    H273038   1.371   5.814   0.854 -0.0132 -0.4549 -1.4761
17183TIP3   OH273039   0.331   2.003  13.717 -0.0286 -0.3734  0.4255
17183TIP3    H173040   0.280   1.943  13.772  0.6553  0.3007  1.8651
17183TIP3    H273041   0.392   1.946  13.670 -0.2142 -0.9313  0.8380
17184TIP3   OH273042   3.440   3.897  11.332  0.5649 -0.4333 -0.1080
17184TIP3    H173043   3.401   3.947  11.260 -0.0574 -1.2352 -0.3400
17184TIP3    H273044   3.388   3.816  11.336  0.7321 -0.4966  1.0997
17185TIP3   OH273045   5.279   3.504  13.461  0.5269  0.0933 -0.4709
17185TIP3    H173046   5.308   3.459  13.540 -0.9837 -1.5087 -0.7627
17185TIP3    H273047   5.319   3.456  13.389 -0.3847 -0.2592 -0.7576
17186TIP3   OH273048   2.911   3.104  16.167  0.2053 -0.1409  0.1577
17186TIP3    H173049   2.930   3.112  16.260  0.5123 -1.8619  0.2753
17186TIP3    H273050   2.817   3.116  16.161  0.1474 -0.2722  0.7234
17187TIP3   OH273051   4.069   6.646   5.335 -0.4052 -0.0277 -0.2617
17187TIP3    H173052   4.120   6.588   5.393 -0.8030  0.7117  0.8635
17187TIP3    H273053   4.133   6.710   5.303 -0.7405  1.5226  1.9565
17188TIP3   OH273054   0.127   3.524  10.707  0.6148 -0.0629 -0.1568
17188TIP3    H173055   0.047   3.513  10.655  0.2426  2.0850 -0.1179
17188TIP3    H273056   0.197   3.533  10.642  0.6152 -0.4509 -0.2139
17189TIP3   OH273057   1.579   1.143   0.892 -0.1951  0.8483  0.0616
17189TIP3    H173058   1.532   1.162   0.811 -1.1862  1.2831  0.7105
17189TIP3    H273059   1.602   1.051   0.886 -0.8415  0.7145 -0.4275
17190TIP3   OH273060   2.859   6.567   4.588 -0.4261 -0.2717  0.3648
17190TIP3    H173061   2.899   6.517   4.517  0.4717  1.4729 -0.4092
17190TIP3    H273062   2.922   6.562   4.659  0.2495  0.7515 -0.1410
17191TIP3   OH273063   0.971   3.168   1.029 -0.0630 -0.1901 -0.0962
17191TIP3    H173064   1.039   3.130   0.973 -1.4540 -3.3269  0.1328
17191TIP3    H273065   0.978   3.120   1.111 -1.2726  0.8616  0.6644
17192TIP3   OH273066   0.305   6.561  11.369  0.1866 -0.0908 -0.2592
17192TIP3    H173067   0.342   6.551  11.457  0.5519  0.1330 -0.3826
17192TIP3    H273068   0.382   6.563  11.312 -0.0571 -0.3822 -0.5953
17193TIP3   OH273069   2.186   1.220  11.105 -0.0098  0.0759 -0.4724
17193TIP3    H173070   2.194   1.291  11.041 -1.3916  0.7618  0.0882
17193TIP3    H273071   2.109   1.171  11.076  0.4001 -0.6705 -0.3293
17194TIP3   OH273072   3.174   0.134  14.766 -0.6158  0.1123  0.2096
17194TIP3    H173073   3.116   0.062  14.739 -1.6236  1.3685 -1.1692
17194TIP3    H273074   3.186   0.121  14.860 -2.7224 -0.5230  0.4435
17195TIP3   OH273075   0.598   1.426  14.797 -0.1109 -1.1586 -0.1269
17195TIP3    H173076   0.566   1.470  14.876 -0.6075 -0.8089 -0.5193
17195TIP3    H273077   0.631   1.496  14.741 -0.4907 -1.3193 -0.5620
17196TIP3   OH273078   5.908   5.873  14.223 -0.1985  0.3143  0.0426
17196TIP3    H173079   5.827   5.925  14.229 -0.5103  0.1063 -1.8186
17196TIP3    H273080   5.879   5.783  14.240  0.0036  0.4606  1.2803
17197TIP3   OH273081   5.541   2.292   1.354 -0.0732  0.2701 -0.0707
17197TIP3    H173082   5.542   2.200   1.325 -0.0171 -0.2681  1.5668
17197TIP3    H273083   5.524   2.341   1.274  0.4777 -1.1240 -1.0936
17198TIP3   OH273084   2.428   6.610   1.714 -0.1032  1.0141  0.4655
17198TIP3    H173085   2.506   6.596   1.767  0.9769 -1.3111 -1.5181
17198TIP3    H273086   2.454   6.675   1.649 -0.1731  0.9962  0.4193
17199TIP3   OH273087   4.619   1.427   5.685  0.4004 -0.4355  0.8149
17199TIP3    H173088   4.683   1.457   5.750  0.4193 -1.0804  1.1013
17199TIP3    H273089   4.670   1.415   5.605 -0.0788  3.0165 -0.1626
17200TIP3   OH273090   4.456   4.551   1.949 -0.5281  0.0779 -0.3441
17200TIP3    H173091   4.452   4.570   2.043  1.2924 -1.6807  0.1763
17200TIP3    H273092   4.392   4.610   1.910 -0.7269  1.4906  1.8908
17201TIP3   OH273093   2.889   6.065  11.848  0.1280  0.4477 -0.0983
17201TIP3    H173094   2.947   6.014  11.904 -0.6900  0.2436  0.5781
17201TIP3    H273095   2.875   6.147  11.896  0.4414  0.8033 -0.6026
17202TIP3   OH273096   2.338   2.413  13.150  0.1669  0.0109  0.9142
17202TIP3    H173097   2.323   2.329  13.107 -0.4572  0.8116 -0.5078
17202TIP3    H273098   2.250   2.449  13.163  0.4007  0.2549  1.9330
17203TIP3   OH273099   1.210   1.043  11.944  0.0089 -0.0462  0.4686
17203TIP3    H173100   1.283   1.027  11.885 -0.1450 -0.8040  0.4651
17203TIP3    H273101   1.244   1.104  12.009  1.0919 -1.3959  1.2466
17204TIP3   OH273102   5.799   0.954   1.850  0.0678 -0.3669 -0.1982
17204TIP3    H173103   5.770   1.026   1.795  0.9784  1.1461  1.1840
17204TIP3    H273104   5.853   0.899   1.792  0.7385  0.9929 -0.9114
17205TIP3   OH273105   3.003   5.057  12.410  0.3296 -0.3524  0.5325
17205TIP3    H173106   3.075   5.120  12.417 -1.9594  2.6372 -0.6562
17205TIP3    H273107   2.956   5.067  12.493 -1.1508  1.1281 -0.4130
17206TIP3   OH273108   4.310   3.334   1.942  0.5262  0.2328 -0.0626
17206TIP3    H173109   4.394   3.353   1.899  0.4681 -0.7275 -0.6137
17206TIP3    H273110   4.244   3.357   1.876  0.3368  1.1399  0.4282
17207TIP3   OH273111   2.920   1.512   3.759 -0.5096 -0.2068  0.1977
17207TIP3    H173112   3.014   1.515   3.776 -1.0737  1.7221  4.1526
17207TIP3    H273113   2.899   1.600   3.728 -1.2338 -0.0784  1.0391
17208TIP3   OH273114   0.458   1.559  12.489 -0.5505 -0.6387 -0.0772
17208TIP3    H173115   0.420   1.629  12.435 -1.7539 -1.4503 -0.3299
17208TIP3    H273116   0.545   1.591  12.513 -0.1557 -0.0382 -2.1180
17209TIP3   OH273117   1.422   0.175   5.772  0.2208  0.5915 -0.4390
17209TIP3    H173118   1.447   0.124   5.849  1.1755 -0.1634 -1.2380
17209TIP3    H273119   1.447   0.121   5.698 -2.1958  0.5639 -1.3188
17210TIP3   OH273120   2.189   0.028  15.524  0.1534  0.1552 -0.3359
17210TIP3    H173121   2.199   0.081  15.444  0.0624  0.5543 -0.0850
17210TIP3    H273122   2.133  -0.045  15.497  0.1713  0.2564 -0.6524
17211TIP3   OH273123   5.780   3.106  17.029 -0.0572  0.1469 -0.7235
17211TIP3    H173124   5.839   3.135  16.959  0.4942  0.7848  0.0014
17211TIP3    H273125   5.704   3.162  17.021 -0.6931 -0.8291 -1.8075
17212TIP3   OH273126   0.690   3.636   5.376 -0.0451 -0.2023  0.3479
17212TIP3    H173127   0.757   3.641   5.308 -0.8463  1.8997 -0.3936
17212TIP3    H273128   0.738   3.631   5.458  1.0512  1.1485 -0.1774
17213TIP3   OH273129   4.358   0.371   3.333  0.2590 -0.6984 -0.4187
17213TIP3    H173130   4.423   0.312   3.371  1.7263  0.2544 -1.3027
17213TIP3    H273131   4.410   0.432   3.280 -1.4434 -0.3881 -1.8381
17214TIP3   OH273132   2.681   0.117   2.734  0.1623 -0.2412 -0.0308
17214TIP3    H173133   2.611   0.138   2.796 -0.8588  1.1521 -1.5729
17214TIP3    H273134   2.753   0.086   2.789 -1.7942 -2.2963  1.5990
17215TIP3   OH273135   6.744   0.532   5.495  0.1932  0.2284  0.0337
17215TIP3    H173136   6.799   0.610   5.497  0.2089  0.2134  0.3183
17215TIP3    H273137   6.657   0.565   5.519  0.3872  0.0176  1.1033
17216TIP3   OH273138   0.783   3.146   3.351 -0.5240 -0.4442  0.5549
17216TIP3    H173139   0.835   3.071   3.378  2.8980  0.4316 -2.6605
17216TIP3    H273140   0.812   3.164   3.261 -4.1438  2.2664 -0.3332
17217TIP3   OH273141   3.750   0.240  14.553 -0.0896  0.0702 -0.2010
17217TIP3    H173142   3.840   0.221  14.525 -0.4390 -2.5391  0.2331
17217TIP3    H273143   3.761   0.288  14.635  0.8546  2.8173 -1.7757
17218TIP3   OH273144   0.333   0.416   4.099 -0.4288 -0.4764 -0.4720
17218TIP3    H173145   0.405   0.468   4.061 -0.9334 -0.7441 -1.8830
17218TIP3    H273146   0.376   0.355   4.159  0.7516 -1.6872 -2.4279
17219TIP3   OH273147   4.679   6.735   3.637 -0.1707 -0.1856  0.4848
17219TIP3    H173148   4.758   6.734   3.584 -0.9805 -1.3823 -0.7724
17219TIP3    H273149   4.666   6.828   3.658  1.3410  0.0695  0.4126
17220TIP3   OH273150   4.122   2.114  14.111 -0.1740  0.5040  0.6296
17220TIP3    H173151   4.144   2.066  14.192 -3.0031 -0.7544  0.7817
17220TIP3    H273152   4.129   2.048  14.042 -4.1225 -0.3917  0.8389
17221TIP3   OH273153   1.078   4.611   1.609  0.1519  0.1274 -0.7618
17221TIP3    H173154   1.086   4.522   1.644 -0.2533  0.1971 -0.4968
17221TIP3    H273155   1.062   4.666   1.686  2.4499  0.7305 -0.6339
17222TIP3   OH273156   2.439   3.563  15.177  0.0168  0.4998 -0.2727
17222TIP3    H173157   2.483   3.570  15.092  0.4107  2.3575  0.0309
17222TIP3    H273158   2.444   3.651  15.214 -1.2367  0.0268  1.1539
17223TIP3   OH273159   4.766   0.248  17.069 -0.1752  0.0163 -0.1754
17223TIP3    H173160   4.742   0.340  17.058  1.4687  0.9718  2.9662
17223TIP3    H273161   4.687   0.207  17.104 -0.6946  0.3559 -0.9051
17224TIP3   OH273162   3.961   2.029   3.094 -0.2262  0.2760  0.3585
17224TIP3    H173163   4.043   2.029   3.045  0.4127  0.3608  1.3897
17224TIP3    H273164   3.895   1.998   3.032 -0.0063  3.0135 -1.4023
17225TIP3   OH273165   4.328   6.358  15.495  0.1260 -0.2728  0.3878
17225TIP3    H173166   4.373   6.302  15.432 -0.4324 -1.8221  1.2968
17225TIP3    H273167   4.307   6.437  15.446 -2.1986 -2.2184 -2.0689
17226TIP3   OH273168   4.912   0.630   2.018  0.1424  0.7255  0.0026
17226TIP3    H173169   4.885   0.627   1.926  0.6698  0.8635 -0.1578
17226TIP3    H273170   4.883   0.716   2.049  0.0159  0.7016 -0.0486
17227TIP3   OH273171   1.949   3.206   2.172 -0.0718 -0.6058  0.2574
17227TIP3    H173172   1.998   3.289   2.178  1.5835 -1.3489 -1.8530
17227TIP3    H273173   1.873   3.228   2.118 -0.0770 -0.2985  0.3819
17228TIP3   OH273174   1.754   1.675  15.337 -0.3498  0.2370 -0.4498
17228TIP3    H173175   1.696   1.745  15.306 -0.2493  0.9671  0.9656
17228TIP3    H273176   1.700   1.623  15.396  0.8052  1.9677  2.3268
17229TIP3   OH273177   1.744   5.226   5.430 -0.5821 -0.5814  0.6096
17229TIP3    H173178   1.784   5.157   5.482  1.3884  0.0679  0.0383
17229TIP3    H273179   1.818   5.275   5.393 -1.9043 -0.0073 -1.4536
17230TIP3   OH273180   2.990   4.478   3.294 -0.3047 -0.8006  0.1297
17230TIP3    H173181   2.898   4.462   3.311  0.2665 -3.0703  1.4461
17230TIP3    H273182   2.993   4.568   3.261 -3.1107 -1.1053 -1.2780
17231TIP3   OH273183   2.880   0.196  11.581 -0.7306  0.4356  0.4870
17231TIP3    H173184   2.813   0.137  11.614  0.6920 -0.1669  2.5426
17231TIP3    H273185   2.941   0.206  11.655  1.1982  1.2763 -1.1187
17232TIP3   OH273186   0.578   4.427   1.704  0.3212  0.0039  0.1454
17232TIP3    H173187   0.658   4.395   1.745 -0.8595 -2.4842  0.6973
17232TIP3    H273188   0.594   4.520   1.690  3.1864 -0.3408  0.4577
17233TIP3   OH273189   0.269   1.681  15.356  0.3318 -0.3695 -0.0140
17233TIP3    H173190   0.305   1.656  15.271 -1.4258 -0.0907 -0.8840
17233TIP3    H273191   0.178   1.654  15.353 -0.7252  2.7489  0.4170
17234TIP3   OH273192   3.003   5.687  15.020  0.2472  0.0173 -0.8955
17234TIP3    H173193   3.084   5.672  15.068  0.0440  0.4966 -0.3969
17234TIP3    H273194   2.942   5.623  15.056  0.3894 -0.3232 -1.2498
17235TIP3   OH273195   1.799   0.583  10.490  0.2119  0.4922  0.5744
17235TIP3    H173196   1.829   0.539  10.410  2.7211  1.9507  0.6189
17235TIP3    H273197   1.827   0.525  10.561 -3.2270 -1.5008  0.4955
17236TIP3   OH273198   2.813   4.866  13.222  0.3200 -0.8304 -0.2028
17236TIP3    H173199   2.830   4.886  13.315 -4.7282 -0.0923  0.8391
17236TIP3    H273200   2.813   4.951  13.179 -1.7048 -0.5917  0.1601
17237TIP3   OH273201   5.859   1.064  10.758 -0.1950 -0.0212 -0.3667
17237TIP3    H173202   5.886   1.122  10.687  0.3834 -0.4003 -0.4596
17237TIP3    H273203   5.890   0.977  10.732  0.2322 -0.1264  0.4523
17238TIP3   OH273204   1.322   4.145  16.706  0.0049  0.2036 -0.0003
17238TIP3    H173205   1.338   4.200  16.782  0.8213 -0.9108  0.6651
17238TIP3    H273206   1.386   4.074  16.714  0.2045  0.1342 -1.7954
17239TIP3   OH273207   2.904   1.503   5.954 -0.4199  0.0707  0.0139
17239TIP3    H173208   2.956   1.522   6.032 -0.9146  1.7030 -0.0018
17239TIP3    H273209   2.967   1.469   5.891  0.4000  0.7756  0.4250
17240TIP3   OH273210   0.206   3.469   0.489 -0.4305  0.5540 -0.8932
17240TIP3    H173211   0.270   3.473   0.560  0.1215  0.0192 -1.3459
17240TIP3    H273212   0.138   3.531   0.515  0.3427  1.2570 -0.4740
17241TIP3   OH273213   4.121   6.572  14.809 -0.2959  0.0510  0.4412
17241TIP3    H173214   4.059   6.639  14.779 -0.0334  0.7571  1.4042
17241TIP3    H273215   4.203   6.595  14.766 -0.6763 -0.8710 -0.8164
17242TIP3   OH273216   0.020   6.055   4.700 -0.5857 -0.1775 -0.1414
17242TIP3    H173217  -0.002   6.092   4.614  0.7115  1.1709  0.0671
17242TIP3    H273218   0.065   5.972   4.680  1.4217  1.0339 -0.8926
17243TIP3   OH273219   5.661   5.038   1.942  0.3942  0.1280  0.1110
17243TIP3    H173220   5.679   5.126   1.973  2.5232  0.3903 -1.6483
17243TIP3    H273221   5.741   4.989   1.960 -0.4837 -1.2761  0.3846
17244TIP3   OH273222   4.720   5.095   4.503 -0.2227  0.2118  0.1237
17244TIP3    H173223   4.709   5.016   4.557  1.6663 -0.0318  0.1923
17244TIP3    H273224   4.690   5.166   4.559  0.8861 -0.1377  1.2131
17245TIP3   OH273225   2.696   5.500   4.130  0.0093 -0.5216 -0.6796
17245TIP3    H173226   2.738   5.500   4.216 -1.5144  0.6231  0.1135
17245TIP3    H273227   2.642   5.421   4.129 -0.3301 -0.2923 -0.4010
17246TIP3   OH273228   1.774   2.162   6.394 -0.2831 -0.2921 -0.0010
17246TIP3    H173229   1.714   2.096   6.361 -1.2009  0.8174 -0.6474
17246TIP3    H273230   1.859   2.139   6.356 -1.0397  0.1875 -2.1504
17247TIP3   OH273231   1.285   4.784   6.355  0.2065 -0.1919 -0.8688
17247TIP3    H173232   1.300   4.693   6.331 -1.7837 -0.9540  0.5107
17247TIP3    H273233   1.194   4.801   6.331  0.5006  1.4072 -0.9735
17248TIP3   OH273234   4.199   6.588   5.025 -0.3727  0.0593  0.7350
17248TIP3    H173235   4.169   6.663   5.076  3.1650  1.4990  0.9832
17248TIP3    H273236   4.290   6.575   5.052 -0.1112 -2.8140 -1.0913
17249TIP3   OH273237   4.830   6.458  15.590  0.0052 -0.1044  0.0747
17249TIP3    H173238   4.747   6.497  15.564 -0.9464 -0.6936  2.0473
17249TIP3    H273239   4.842   6.385  15.530 -0.1796  0.7973 -1.1025
17250TIP3   OH273240   5.314   4.428  11.117  0.0676  0.0918 -0.1968
17250TIP3    H173241   5.309   4.523  11.113 -0.3674  0.0746 -0.2067
17250TIP3    H273242   5.290   4.399  11.029 -0.1813 -0.0328 -0.0914
17251TIP3   OH273243   5.341   4.193  16.185 -0.4124  0.2863  0.7930
17251TIP3    H173244   5.337   4.123  16.120 -1.3079  1.3717 -0.3967
17251TIP3    H273245   5.278   4.167  16.252 -0.5318 -0.1864  0.5019
17252TIP3   OH273246   2.358   0.451   4.256  0.3609  0.2234 -0.1253
17252TIP3    H173247   2.426   0.499   4.302  2.1904 -0.5081 -1.9435
17252TIP3    H273248   2.366   0.477   4.164 -0.7184 -1.1091 -0.6466
17253TIP3   OH273249   1.044   4.170  15.294 -0.2224 -0.0729  0.5763
17253TIP3    H173250   0.951   4.148  15.283 -0.0284 -0.2370 -0.8871
17253TIP3    H273251   1.072   4.119  15.370 -1.5139  0.6081  1.5519
17254TIP3   OH273252   4.606   4.980  13.323  0.4075 -0.1319 -0.2476
17254TIP3    H173253   4.668   5.037  13.277  2.5580 -0.4305  2.0680
17254TIP3    H273254   4.646   4.893  13.318 -0.3574 -0.5392  0.4609
17255TIP3   OH273255   5.357   2.300   5.169  0.2183 -0.1643 -0.0449
17255TIP3    H173256   5.441   2.346   5.175  0.0834 -0.0005  0.8236
17255TIP3    H273257   5.381   2.208   5.161  0.4919 -0.1987  1.0097
17256TIP3   OH273258   0.481   3.739   1.897 -0.4749 -0.0441  0.2100
17256TIP3    H173259   0.470   3.820   1.848 -0.5517  0.4031  0.9588
17256TIP3    H273260   0.466   3.670   1.832  0.0585  0.5233 -0.5417
17257TIP3   OH273261   0.422   1.578   1.092 -0.4100  0.3616 -0.1968
17257TIP3    H173262   0.415   1.547   1.002 -1.6437 -0.2977  0.1035
17257TIP3    H273263   0.342   1.627   1.107 -0.6042 -0.2141  0.7821
17258TIP3   OH273264   3.236   0.126  12.972 -0.7866 -0.1604  0.1855
17258TIP3    H173265   3.177   0.200  12.987 -0.0952  0.2585  0.9534
17258TIP3    H273266   3.302   0.134  13.041 -1.1243 -1.9483  0.7740
17259TIP3   OH273267   6.333   6.585   0.122  0.4774 -0.2779 -0.3217
17259TIP3    H173268   6.329   6.542   0.208 -0.5096 -0.4803 -0.4506
17259TIP3    H273269   6.413   6.552   0.082 -0.6016 -2.6592 -0.7141
17260TIP3   OH273270   2.031   2.234  13.623  0.0074 -0.2809 -0.0589
17260TIP3    H173271   1.979   2.250  13.702 -0.9690 -1.0615 -0.5122
17260TIP3    H273272   2.109   2.188  13.653 -0.0713 -0.0409  0.5170
17261TIP3   OH273273   5.092   2.272  14.141 -0.0121  0.2313 -0.6953
17261TIP3    H173274   5.166   2.327  14.167  0.3849  0.4258 -2.1700
17261TIP3    H273275   5.015   2.325  14.160  0.1282 -0.3095  1.6730
17262TIP3   OH273276   1.650   1.813   3.550  0.1175 -0.1286 -0.4489
17262TIP3    H173277   1.561   1.838   3.526 -0.0998 -0.5098 -0.0672
17262TIP3    H273278   1.692   1.790   3.468 -0.2213 -0.2014 -0.6028
17263TIP3   OH273279   0.995   2.236  16.582  0.4193  0.0531  0.8242
17263TIP3    H173280   0.953   2.294  16.645  1.9524 -0.6644  2.5906
17263TIP3    H273281   1.010   2.291  16.505 -2.2151  0.7310  0.7152
17264TIP3   OH273282   6.281   2.934  13.639 -0.0314 -0.0776 -0.0807
17264TIP3    H173283   6.242   3.019  13.659  0.6270  0.2389 -0.0935
17264TIP3    H273284   6.310   2.901  13.724  0.5949  0.1652 -0.1926
17265TIP3   OH273285   5.545   4.631   5.161  0.4530  0.2816  0.0628
17265TIP3    H173286   5.585   4.591   5.238  2.0044  3.0695  0.8617
17265TIP3    H273287   5.483   4.694   5.197  0.4654  0.9008 -0.9641
17266TIP3   OH273288   3.237   3.908   3.359 -0.3516 -0.8862 -0.4362
17266TIP3    H173289   3.227   3.937   3.449 -0.0553  0.0578 -0.6948
17266TIP3    H273290   3.306   3.842   3.362  0.1673 -0.3323 -0.0774
17267TIP3   OH273291   2.861   6.821  12.956 -0.2040 -0.3162 -0.4579
17267TIP3    H173292   2.867   6.908  12.995  2.4153 -0.6979  0.1886
17267TIP3    H273293   2.775   6.788  12.981 -0.4617  1.3264  0.9250
17268TIP3   OH273294   3.301   6.657  16.208  0.1070  0.0019  0.4681
17268TIP3    H173295   3.220   6.693  16.171  1.1017  0.3756 -1.4507
17268TIP3    H273296   3.347   6.619  16.133  2.1098  0.5530  1.3652
17269TIP3   OH273297   2.902   2.135   1.608  0.1902 -0.1885  0.0879
17269TIP3    H173298   2.892   2.207   1.670 -3.3806 -1.6157  1.4366
17269TIP3    H273299   2.864   2.167   1.527 -0.7789 -0.2790  0.4903
17270TIP3   OH273300   0.254   0.560  16.220 -0.0498  0.1094 -0.2989
17270TIP3    H173301   0.286   0.644  16.187 -0.3137  0.3075 -0.0514
17270TIP3    H273302   0.302   0.494  16.168  1.7480  0.3600  0.9515
17271TIP3   OH273303   4.187   4.222   6.263 -0.5947  0.8823 -0.3545
17271TIP3    H173304   4.174   4.180   6.178 -0.5924  1.1422 -0.4846
17271TIP3    H273305   4.131   4.299   6.260 -2.4277 -0.3107  0.7608
17272TIP3   OH273306   3.642   0.953   4.929  0.5194  0.4929 -0.1921
17272TIP3    H173307   3.662   0.938   5.021  2.3640 -2.1634 -0.8993
17272TIP3    H273308   3.697   1.027   4.904  1.2805  0.1565  0.4512
17273TIP3   OH273309   0.071   3.380  16.503  0.5172  0.2658 -0.1095
17273TIP3    H173310  -0.008   3.415  16.544 -0.4959  0.1732 -1.8705
17273TIP3    H273311   0.141   3.440  16.528 -0.2464  0.7636  0.8777
17274TIP3   OH273312   3.250   4.002  12.296  0.0854  0.0709 -0.2757
17274TIP3    H173313   3.195   4.018  12.219 -0.3280  2.9598  0.4946
17274TIP3    H273314   3.283   3.913  12.284 -1.6592 -0.3580 -2.6991
17275TIP3   OH273315   6.419   0.364  15.813 -0.6642  0.1584 -0.3628
17275TIP3    H173316   6.393   0.404  15.731 -3.1530  1.0054  0.7308
17275TIP3    H273317   6.338   0.327  15.849  0.5004 -0.9649  1.3103
17276TIP3   OH273318   6.718   2.489   3.881  0.2396 -0.0117 -0.4437
17276TIP3    H173319   6.709   2.484   3.976  2.0456 -1.9518 -0.2907
17276TIP3    H273320   6.640   2.443   3.848  0.0876 -0.1859  0.1390
17277TIP3   OH273321   4.154   4.880   0.722 -0.4906  0.2891 -0.4706
17277TIP3    H173322   4.153   4.953   0.660  1.4465 -1.6265 -2.9656
17277TIP3    H273323   4.247   4.859   0.732 -0.9430 -1.1661  1.0673
17278TIP3   OH273324   5.481   3.372   5.194 -0.2561 -0.2424 -0.0167
17278TIP3    H173325   5.387   3.360   5.210 -0.6247  0.6184 -1.3677
17278TIP3    H273326   5.522   3.361   5.280 -1.4304 -2.0906  0.3608
17279TIP3   OH273327   4.128   2.098  13.532  0.4695 -0.5472 -0.4826
17279TIP3    H173328   4.101   2.138  13.450  0.7502 -0.9283 -0.7650
17279TIP3    H273329   4.090   2.010  13.530  2.3575 -1.3955 -1.2635
17280TIP3   OH273330   2.474   6.798  16.636 -0.1307  0.1858  0.7686
17280TIP3    H173331   2.539   6.821  16.702  1.5016 -1.1535 -0.2910
17280TIP3    H273332   2.497   6.849  16.559  0.0801 -0.7530  0.1870
17281TIP3   OH273333   1.329   5.531   2.518  0.2576 -0.2564  0.2813
17281TIP3    H173334   1.309   5.492   2.433 -2.2452  0.9331  0.2353
17281TIP3    H273335   1.267   5.491   2.579  0.8476  0.1770  1.2026
17282TIP3   OH273336   4.620   4.762  14.387 -0.2164 -0.0930 -0.0701
17282TIP3    H173337   4.569   4.697  14.435 -1.0672  1.0623  0.6371
17282TIP3    H273338   4.556   4.811  14.336  0.2902  0.7234  0.0458
17283TIP3   OH273339   5.069   6.054  14.616  0.6551 -0.1831 -0.5565
17283TIP3    H173340   5.060   6.005  14.697  0.1092  0.1341 -0.4201
17283TIP3    H273341   5.114   6.135  14.642  0.5428 -0.1124 -0.5791
17284TIP3   OH273342   3.700   1.062  13.898 -0.6101  0.2045 -0.3154
17284TIP3    H173343   3.747   1.038  13.819 -1.0465  0.5273 -0.6802
17284TIP3    H273344   3.621   1.107  13.866  0.0007  1.7843  0.3274
17285TIP3   OH273345   2.567   0.028  10.090 -0.0368 -0.7910  0.0100
17285TIP3    H173346   2.487   0.022  10.142  0.0379  0.4789  0.3196
17285TIP3    H273347   2.592  -0.063  10.072  0.3373 -1.3330  2.8024
17286TIP3   OH273348   2.686   0.538   2.316  0.7476  0.5597 -0.1924
17286TIP3    H173349   2.668   0.450   2.283 -0.9587  0.6231  0.4572
17286TIP3    H273350   2.730   0.582   2.244 -0.2538 -0.1896 -1.2993
17287TIP3   OH273351   5.660   4.972  12.426 -0.2507  0.6106  0.1836
17287TIP3    H173352   5.682   4.929  12.510 -0.1638  0.1314 -0.0791
17287TIP3    H273353   5.609   5.049  12.451  1.3385  1.5273  0.8104
17288TIP3   OH273354   1.339   6.334  11.873  0.1268  0.0332 -0.1824
17288TIP3    H173355   1.271   6.289  11.823 -0.4157  1.6218 -0.9586
17288TIP3    H273356   1.399   6.369  11.806  1.1942 -0.5331  0.4450
17289TIP3   OH273357   5.126   4.122   2.620  0.6574  0.4013  0.3065
17289TIP3    H173358   5.125   4.166   2.704  0.3066  0.9948 -0.0023
17289TIP3    H273359   5.039   4.082   2.613  1.1646 -0.8713  0.8448
17290TIP3   OH273360   6.172   1.273   2.385 -0.0606 -0.2121  0.2933
17290TIP3    H173361   6.142   1.352   2.340  1.1994 -0.6356 -1.3883
17290TIP3    H273362   6.177   1.298   2.478 -0.6696  1.3528 -0.0715
17291TIP3   OH273363   4.307   6.523   4.760 -0.4202  0.2438  0.1099
17291TIP3    H173364   4.368   6.548   4.830 -1.1065 -0.5219  1.0049
17291TIP3    H273365   4.222   6.519   4.803 -1.0324  0.8310 -1.0264
17292TIP3   OH273366   6.560   0.591   2.619  0.3745 -0.1965 -0.4898
17292TIP3    H173367   6.534   0.567   2.531 -0.3082 -0.6488 -0.1676
17292TIP3    H273368   6.514   0.673   2.636  0.0609 -0.3991 -0.3501
17293TIP3   OH273369   3.651   4.236  12.948  0.0037 -0.3574  0.4633
17293TIP3    H173370   3.569   4.285  12.951  0.8455  1.1243  0.0142
17293TIP3    H273371   3.668   4.212  13.039 -0.8033 -0.4851  0.5869
17294TIP3   OH273372   6.806   6.429  12.064  0.7558 -0.1665  0.1007
17294TIP3    H173373   6.861   6.485  12.119  0.1069 -0.3459  0.9400
17294TIP3    H273374   6.732   6.406  12.119 -2.4988  3.4711 -2.2161
17295TIP3   OH273375   6.149   6.779  13.839  0.1131 -0.3049 -0.1566
17295TIP3    H173376   6.236   6.811  13.863  0.5341 -0.3793 -1.5173
17295TIP3    H273377   6.116   6.844  13.777 -0.2004 -1.0353 -0.7625
17296TIP3   OH273378   4.285   1.100  16.819 -0.0082 -0.0657  0.2496
17296TIP3    H173379   4.212   1.058  16.773  0.6613  0.0027 -0.9195
17296TIP3    H273380   4.254   1.189  16.838  0.2831  0.4650 -1.6064
17297TIP3   OH273381   1.397   0.235   5.121  0.2052  0.4659 -0.6849
17297TIP3    H173382   1.424   0.162   5.066 -0.1819  0.4748 -0.8887
17297TIP3    H273383   1.346   0.194   5.192  0.5491  0.4722 -0.4325
17298TIP3   OH273384   1.995   0.073   5.456  0.0142 -0.0242 -0.0599
17298TIP3    H173385   1.927   0.093   5.520 -0.5459 -0.2059 -0.5881
17298TIP3    H273386   1.997  -0.023   5.453 -0.5695 -0.0185 -0.9382
17299TIP3   OH273387   1.973   6.146   4.361 -0.0564 -0.0751  0.0547
17299TIP3    H173388   2.000   6.194   4.283  0.6300 -0.8887 -0.2262
17299TIP3    H273389   1.956   6.213   4.426  1.3674  0.5351 -0.1758
17300TIP3   OH273390   1.078   4.026  15.531  0.2000 -0.4337 -0.3224
17300TIP3    H173391   0.984   4.040  15.541  0.2579 -1.1532  1.5944
17300TIP3    H273392   1.119   4.083  15.596  1.0418 -0.8297 -0.4865
17301TIP3   OH273393   5.171   4.736  14.007  0.3577 -0.4447  0.5882
17301TIP3    H173394   5.262   4.707  14.014  0.0815 -1.6928 -0.5842
17301TIP3    H273395   5.176   4.822  13.967  1.1718  1.0886  3.6848
17302TIP3   OH273396   3.388   2.629  13.227 -0.4338 -0.6331  0.1039
17302TIP3    H173397   3.350   2.590  13.306  0.3015 -1.1474  0.2101
17302TIP3    H273398   3.460   2.570  13.203 -0.2294 -0.1228 -0.5740
17303TIP3   OH273399   1.242   5.401   1.250  0.1005 -0.0205  0.4963
17303TIP3    H173400   1.270   5.384   1.340  0.1659 -1.2215  0.2735
17303TIP3    H273401   1.250   5.316   1.206 -0.8741  0.3255 -0.3914
17304TIP3   OH273402   0.907   4.060   4.531 -0.7956  0.3860 -0.1215
17304TIP3    H173403   0.838   4.096   4.475  0.2522  2.5836 -0.0801
17304TIP3    H273404   0.967   4.018   4.469 -0.2295  1.8091 -0.5658
17305TIP3   OH273405   0.627   4.320  15.724 -0.0098 -0.0109  0.2110
17305TIP3    H173406   0.638   4.239  15.773 -1.6886 -0.7508 -0.5787
17305TIP3    H273407   0.698   4.318  15.659  0.7499 -0.1801  1.0183
17306TIP3   OH273408   1.416   0.644   4.827 -0.2665  0.9473  0.1783
17306TIP3    H173409   1.427   0.720   4.770 -0.0606 -0.0974 -1.2465
17306TIP3    H273410   1.403   0.571   4.766  0.6587 -0.3355  1.4586
17307TIP3   OH273411   5.819   5.623   0.120 -0.1119 -0.3568  0.1302
17307TIP3    H173412   5.820   5.689   0.189 -1.2070  0.6997 -0.8284
17307TIP3    H273413   5.870   5.662   0.049 -1.8400  0.0562 -0.9334
17308TIP3   OH273414   4.969   6.377   0.108  0.4201  0.2551 -0.0119
17308TIP3    H173415   4.909   6.318   0.153 -0.8533  1.0491 -0.6139
17308TIP3    H273416   5.043   6.321   0.084 -1.3005 -1.4725 -1.6878
17309TIP3   OH273417   0.153   0.475   0.780  0.3224 -0.0896  0.3895
17309TIP3    H173418   0.177   0.439   0.865  0.1041 -1.3341 -0.0645
17309TIP3    H273419   0.152   0.570   0.794 -0.5073 -0.3003  1.9836
17310TIP3   OH273420   3.965   1.209  10.985  0.4684 -0.0250  0.5453
17310TIP3    H173421   3.908   1.141  11.020  1.4424 -0.8361  0.6196
17310TIP3    H273422   3.922   1.238  10.905 -0.9276  0.6588  1.5094
17311TIP3   OH273423   3.209   6.013   0.862 -0.0044  0.1287 -0.0329
17311TIP3    H173424   3.254   6.082   0.912  1.3021  0.4486 -1.5624
17311TIP3    H273425   3.274   5.943   0.855 -1.2533 -1.2155  1.3202
17312TIP3   OH273426   6.670   4.062   5.491 -0.4765 -0.5546  0.3656
17312TIP3    H173427   6.577   4.074   5.470 -0.3834 -0.0145  0.2515
17312TIP3    H273428   6.692   4.137   5.547 -0.2023 -0.8814  0.6987
17313TIP3   OH273429   1.186   6.675   1.280 -0.8960  0.3477 -0.4178
17313TIP3    H173430   1.223   6.684   1.192  1.1401  1.3888  0.4550
17313TIP3    H273431   1.124   6.748   1.288  0.5878  1.6607 -0.2823
17314TIP3   OH273432   0.416   0.301  16.538  0.1146 -0.5549  0.1355
17314TIP3    H173433   0.341   0.253  16.574 -0.3321 -1.2349 -1.6139
17314TIP3    H273434   0.466   0.235  16.491  0.0556  0.4752 -1.4319
17315TIP3   OH273435   2.112   2.542   3.657 -0.2482  0.0578  0.4255
17315TIP3    H173436   2.027   2.505   3.635  0.3518 -1.6271  0.7904
17315TIP3    H273437   2.166   2.467   3.681  1.8901  0.8530 -1.5026
17316TIP3   OH273438   0.609   1.309  15.966 -0.2400 -0.1494 -0.3083
17316TIP3    H173439   0.529   1.363  15.967 -0.0338  0.1546 -0.0798
17316TIP3    H273440   0.656   1.338  15.888  0.5012  0.9458  0.5078
17317TIP3   OH273441   1.216   4.442  13.274  0.3419  0.1825 -0.1334
17317TIP3    H173442   1.301   4.404  13.296 -0.0351  0.4433  1.8876
17317TIP3    H273443   1.232   4.488  13.191  1.1109 -3.2283 -2.0911
17318TIP3   OH273444   3.557   5.488  16.076  0.1018  0.1955  0.3655
17318TIP3    H173445   3.553   5.549  16.150  1.2084 -1.3938  1.8185
17318TIP3    H273446   3.617   5.528  16.014 -0.8266  1.5501  0.3068
17319TIP3   OH273447   6.191   4.909   0.406  0.4169 -0.0121 -0.6474
17319TIP3    H173448   6.118   4.954   0.450 -0.0120 -1.0940 -0.2238
17319TIP3    H273449   6.215   4.838   0.465  0.6096 -0.7877 -1.6225
17320TIP3   OH273450   5.058   5.153   0.094  0.2345 -0.3938  1.0398
17320TIP3    H173451   5.057   5.198   0.178 -0.4623  0.6093  0.5061
17320TIP3    H273452   5.012   5.211   0.034 -0.5701 -1.7427  0.2897
17321TIP3   OH273453   1.230   6.050  16.878 -0.3981  0.5158 -0.2993
17321TIP3    H173454   1.240   6.087  16.790  0.7868  0.9347 -0.0073
17321TIP3    H273455   1.228   6.127  16.936  0.2250  0.2005  0.1542
17322TIP3   OH273456   6.749   6.700   6.545  0.0333  0.2235  0.1280
17322TIP3    H173457   6.700   6.713   6.464  0.3000 -0.5894 -0.1731
17322TIP3    H273458   6.829   6.751   6.533  0.1451 -0.0250 -0.1951
17323TIP3   OH273459   3.745   5.252  16.077 -0.1078  0.0104 -0.2710
17323TIP3    H173460   3.700   5.336  16.067  2.1095  1.2029 -1.0530
17323TIP3    H273461   3.775   5.251  16.168 -0.0098  0.1536 -0.3008
17324TIP3   OH273462   3.206   2.327  15.062  0.6928  0.1988  0.1370
17324TIP3    H173463   3.183   2.383  14.987 -2.1822 -1.9290 -0.7367
17324TIP3    H273464   3.269   2.264  15.026  1.8551  1.1554  0.4314
17325TIP3   OH273465   5.136   6.486  13.970 -0.3043 -0.1364 -0.0248
17325TIP3    H173466   5.157   6.552  13.904 -1.3853  0.2852  0.0352
17325TIP3    H273467   5.068   6.432  13.929 -0.4946 -0.2891  0.4813
17326TIP3   OH273468   0.121   2.375  14.084 -0.5158 -0.3109 -0.4189
17326TIP3    H173469   0.098   2.468  14.089 -0.3998 -0.3488  1.7660
17326TIP3    H273470   0.092   2.348  13.997  0.2128  1.9478 -1.4387
17327TIP3   OH273471   2.186   6.713  16.527 -0.3657 -0.3022  0.9361
17327TIP3    H173472   2.100   6.706  16.568 -1.3296 -1.8168 -1.1711
17327TIP3    H273473   2.244   6.664  16.584 -1.7345 -2.6881  0.3967
17328TIP3   OH273474   3.231   5.889  15.410 -0.4143 -0.5063 -0.3755
17328TIP3    H173475   3.247   5.797  15.388 -1.6641 -0.8581  0.0687
17328TIP3    H273476   3.223   5.890  15.505 -1.8697 -0.2339 -0.4657
17329TIP3   OH273477   2.572   3.800  15.311 -0.6278  0.1548 -0.1110
17329TIP3    H173478   2.534   3.888  15.310 -0.9943 -0.0030 -0.2630
17329TIP3    H273479   2.527   3.756  15.384  0.9877  0.7146  1.2986
17330TIP3   OH273480   4.682   0.646   3.773 -0.8664 -0.5290  0.7682
17330TIP3    H173481   4.702   0.729   3.816  0.8989 -0.9758  0.9095
17330TIP3    H273482   4.627   0.669   3.698  0.2530  0.8612  0.3461
17331TIP3   OH273483   5.724   4.194  14.369  0.3114 -0.2254  0.2523
17331TIP3    H173484   5.653   4.164  14.313 -1.4497 -0.0340  2.2272
17331TIP3    H273485   5.778   4.250  14.313 -1.8046  0.6460 -1.0272
17332TIP3   OH273486   3.421   4.674   3.538  0.1148  0.9945 -0.0796
17332TIP3    H173487   3.456   4.758   3.509 -1.0924  0.9218 -1.9009
17332TIP3    H273488   3.327   4.687   3.542 -0.1579 -0.4464 -1.0564
17333TIP3   OH273489   1.594   3.667   5.901  0.2833 -0.2448  0.1604
17333TIP3    H173490   1.569   3.583   5.862  1.3056  0.0158 -1.1263
17333TIP3    H273491   1.664   3.699   5.845  0.4971  1.0749  1.1410
17334TIP3   OH273492   2.110   1.514   1.538  0.8673  0.0110  0.0472
17334TIP3    H173493   2.019   1.531   1.516  0.5690 -2.1680 -0.5529
17334TIP3    H273494   2.139   1.594   1.583 -1.2390  0.8323  0.0378
17335TIP3   OH273495   0.320   5.627   3.996  0.8422  0.2785 -0.1141
17335TIP3    H173496   0.256   5.697   4.007  0.5577 -0.0884  0.6351
17335TIP3    H273497   0.271   5.546   4.012  1.2509 -0.0745 -0.6028
17336TIP3   OH273498   1.182   4.394  15.819  0.6583 -0.1911  0.0851
17336TIP3    H173499   1.087   4.399  15.817  0.7276  1.1647 -0.5439
17336TIP3    H273500   1.212   4.470  15.770  2.0541 -1.5992 -1.4004
17337TIP3   OH273501   0.428   3.312  11.002 -0.6512 -0.0694  0.4112
17337TIP3    H173502   0.521   3.308  11.025 -0.7694  0.2245  0.9484
17337TIP3    H273503   0.411   3.406  10.990 -0.6589 -0.1901 -0.6044
17338TIP3   OH273504   4.645   4.025  16.669 -0.1817 -0.0085 -0.2963
17338TIP3    H173505   4.576   3.969  16.632  0.0907 -0.4867 -0.0835
17338TIP3    H273506   4.723   3.970  16.667  0.5686  1.0463 -2.0149
17339TIP3   OH273507   1.133   2.883   1.815 -0.3597 -0.4001  0.1399
17339TIP3    H173508   1.188   2.879   1.738 -1.3875 -1.5465 -0.5751
17339TIP3    H273509   1.079   2.961   1.802  0.3203  0.1146  0.3283
17340TIP3   OH273510   0.378   6.824   4.943  0.0126 -0.4013  0.4410
17340TIP3    H173511   0.455   6.837   4.888  1.1341 -0.3403  1.9518
17340TIP3    H273512   0.334   6.748   4.906  1.5064 -1.2294  0.3068
17341TIP3   OH273513   4.968   1.613   4.713  0.1080  0.5483 -0.0010
17341TIP3    H173514   5.011   1.542   4.760  0.4375  1.9682  1.9988
17341TIP3    H273515   4.971   1.687   4.774  2.0721  3.0842 -2.8347
17342TIP3   OH273516   3.780   4.967  15.350 -0.3925  0.3268 -0.8014
17342TIP3    H173517   3.757   4.891  15.297 -1.7291 -1.3382  1.9558
17342TIP3    H273518   3.867   4.947  15.385 -0.0804  0.8087 -1.2858
17343TIP3   OH273519   5.886   2.369   4.325 -0.2739  0.4311  0.2109
17343TIP3    H173520   5.824   2.301   4.298 -1.0716  0.9212  0.7587
17343TIP3    H273521   5.963   2.321   4.355 -0.8542 -0.2313  0.6481
17344TIP3   OH273522   3.355   3.738  12.197 -0.0899 -0.0246 -0.4152
17344TIP3    H173523   3.413   3.749  12.272 -0.8764  0.4077  0.1343
17344TIP3    H273524   3.386   3.657  12.155  0.6772  0.0100  0.0669
17345TIP3   OH273525   5.302   2.720   1.075  0.0968 -0.4990  0.0793
17345TIP3    H173526   5.260   2.667   1.143  1.1891 -0.9137  0.4568
17345TIP3    H273527   5.391   2.735   1.108  0.1858  0.5355 -0.5909
17346TIP3   OH273528   3.388   0.729   1.670 -0.0370  0.5482 -0.2695
17346TIP3    H173529   3.368   0.655   1.728 -1.4928  0.5836 -0.6971
17346TIP3    H273530   3.426   0.795   1.728  0.4841 -0.1945  0.2638
17347TIP3   OH273531   1.097   6.026  15.566 -0.4866  0.3420 -0.0577
17347TIP3    H173532   1.127   6.087  15.633  0.5932  0.4936 -0.6569
17347TIP3    H273533   1.154   6.042  15.491  0.0853 -1.6640 -0.1128
17348TIP3   OH273534   0.921   6.606   1.657 -0.2887  0.1712 -0.2967
17348TIP3    H173535   0.844   6.628   1.604 -1.4725 -1.6428  0.5622
17348TIP3    H273536   0.909   6.513   1.678  0.2583  0.7205  2.8829
17349TIP3   OH273537   5.074   3.886   1.257  0.2606 -0.3335 -0.0046
17349TIP3    H173538   5.001   3.825   1.252 -0.0710  0.0065  0.6514
17349TIP3    H273539   5.122   3.872   1.175  0.0882 -1.3394  0.0524
17350TIP3   OH273540   2.987   4.241   1.547 -0.3506 -0.0766 -0.3785
17350TIP3    H173541   2.941   4.306   1.600  2.6338  0.8990  1.2484
17350TIP3    H273542   2.953   4.157   1.577 -0.9858  0.5939  0.8620
17351TIP3   OH273543   6.757   2.021  14.733  0.4244  0.3853 -0.0668
17351TIP3    H173544   6.793   1.992  14.817 -0.8464  2.3717  1.2816
17351TIP3    H273545   6.684   2.078  14.758  0.2706  1.3711 -2.5376
17352TIP3   OH273546   2.817   1.932  13.124  0.2577  0.2194 -0.0233
17352TIP3    H173547   2.762   1.861  13.089  0.6539 -0.5214  0.8138
17352TIP3    H273548   2.799   1.932  13.218  3.3664 -1.6335  0.7080
17353TIP3   OH273549   5.954   0.628  15.985  0.0009  0.5025  0.1090
17353TIP3    H173550   6.030   0.670  15.944  1.0347 -0.4850  0.9521
17353TIP3    H273551   5.915   0.697  16.039  0.5320  0.9041 -0.0124
17354TIP3   OH273552   5.398   6.317  13.349  0.2077  0.1790  0.5318
17354TIP3    H173553   5.400   6.237  13.402 -0.3801  0.1241  0.4804
17354TIP3    H273554   5.307   6.347  13.355  0.3540  0.6742  0.3002
17355TIP3   OH273555   1.452   1.819  15.732 -0.6778 -0.4561 -0.2613
17355TIP3    H173556   1.422   1.886  15.670 -1.3176  0.6053  1.1251
17355TIP3    H273557   1.433   1.736  15.689  3.2121  0.0572 -3.5588
17356TIP3   OH273558   4.747   1.540  13.044 -0.8740 -0.1962 -0.2013
17356TIP3    H173559   4.755   1.517  12.951 -0.3765  0.7855 -0.4129
17356TIP3    H273560   4.691   1.472  13.080 -0.2713 -1.1522 -1.0117
17357TIP3   OH273561   2.626   4.026   3.899 -0.2019  0.5489 -0.2336
17357TIP3    H173562   2.556   4.016   3.964 -0.8335 -0.8442 -1.0838
17357TIP3    H273563   2.584   4.007   3.815  1.0426  0.3550 -0.8399
17358TIP3   OH273564   4.265   1.562   2.680 -0.3456 -0.0172 -0.0055
17358TIP3    H173565   4.201   1.545   2.750 -0.3635  0.6461  0.1397
17358TIP3    H273566   4.250   1.492   2.617 -0.0800 -0.8622  0.8300
17359TIP3   OH273567   3.114   1.888  13.515  0.0758 -0.0018  0.5432
17359TIP3    H173568   3.088   1.966  13.564  0.8169 -0.2195  1.3134
17359TIP3    H273569   3.207   1.878  13.533  0.5472  0.2631 -1.4349
17360TIP3   OH273570   6.581   3.448  12.542 -0.2183 -0.7933  0.0612
17360TIP3    H173571   6.585   3.542  12.560  2.9686 -1.0765  1.5928
17360TIP3    H273572   6.643   3.410  12.604 -0.0210 -3.6968 -1.7609
17361TIP3   OH273573   5.503   1.879  12.098 -0.4904  0.0146 -0.7430
17361TIP3    H173574   5.443   1.936  12.146  1.4588  0.9737  0.7310
17361TIP3    H273575   5.530   1.931  12.022  0.8224  0.8880  0.2781
17362TIP3   OH273576   3.008   6.690  13.887 -0.0051 -0.2382  0.1661
17362TIP3    H173577   3.075   6.692  13.956  0.4839  0.3123 -0.3107
17362TIP3    H273578   3.012   6.777  13.847 -1.5743  0.0707  0.6494
17363TIP3   OH273579   3.747   4.419   3.308 -0.3882  0.2328  0.2291
17363TIP3    H173580   3.700   4.489   3.263 -0.1750  0.2944  0.0953
17363TIP3    H273581   3.812   4.465   3.362 -1.0853  0.1828  1.1180
17364TIP3   OH273582   1.608   5.804   5.769  0.1579 -0.2429  0.4536
17364TIP3    H173583   1.609   5.873   5.834  0.5339 -0.7939  1.0421
17364TIP3    H273584   1.515   5.789   5.750  0.0873  0.7864 -0.0869
17365TIP3   OH273585   6.632   0.197  15.794 -0.2455 -0.4428 -0.3084
17365TIP3    H173586   6.672   0.199  15.881  0.4926 -1.7832 -0.6032
17365TIP3    H273587   6.558   0.258  15.801 -0.1296 -0.4407  1.2233
17366TIP3   OH273588   2.292   4.058   0.247 -0.2996  0.1534 -0.0166
17366TIP3    H173589   2.320   4.114   0.175 -2.1848  0.0550 -0.8690
17366TIP3    H273590   2.262   3.978   0.205 -0.6957 -0.2185  0.9418
17367TIP3   OH273591   6.450   0.652  15.377  0.0337 -0.6444 -0.4550
17367TIP3    H173592   6.365   0.694  15.388  1.5026  2.6932 -0.6075
17367TIP3    H273593   6.459   0.641  15.282  0.3831  0.4789 -0.5622
17368TIP3   OH273594   4.541   1.097  11.473  0.5314  0.1972 -0.2736
17368TIP3    H173595   4.529   1.054  11.388 -0.1650  1.3580 -0.7775
17368TIP3    H273596   4.463   1.072  11.523  1.0482 -0.6720  0.1322
17369TIP3   OH273597   4.702   4.650   0.192  0.1828  0.3680  0.0365
17369TIP3    H173598   4.671   4.579   0.137  1.1163 -0.5030  0.5923
17369TIP3    H273599   4.695   4.616   0.281  1.3548  0.6619  0.2639
17370TIP3   OH273600   4.045   2.397   1.295 -0.4118 -0.0490 -0.1677
17370TIP3    H173601   3.993   2.448   1.233 -1.3864 -1.2113 -0.3527
17370TIP3    H273602   4.032   2.306   1.267  2.1186 -0.3757 -0.5060
17371TIP3   OH273603   5.137   3.914   3.406  0.2463 -0.1740 -0.5457
17371TIP3    H173604   5.045   3.888   3.396  0.3687  0.0226 -2.7137
17371TIP3    H273605   5.144   3.996   3.359  1.5398 -0.1681 -0.3787
17372TIP3   OH273606   4.754   2.854  13.521  0.2914 -0.2836 -0.1296
17372TIP3    H173607   4.732   2.785  13.458  3.1263 -1.0903 -0.3836
17372TIP3    H273608   4.755   2.809  13.606  0.9343 -0.2820 -0.1334
17373TIP3   OH273609   1.295   2.392   2.579 -0.0112 -0.2333 -0.2938
17373TIP3    H173610   1.356   2.464   2.565  0.3599 -0.5371 -0.2666
17373TIP3    H273611   1.250   2.382   2.495 -0.3919  0.3282 -0.1581
17374TIP3   OH273612   1.991   5.483   0.084  0.2591  0.2058  0.5323
17374TIP3    H173613   2.086   5.485   0.072  0.3819 -3.9157 -0.8651
17374TIP3    H273614   1.956   5.488  -0.005 -0.6214 -0.7424  0.8009
17375TIP3   OH273615   4.018   0.911  16.192  0.2764 -0.2535 -0.3585
17375TIP3    H173616   3.923   0.902  16.206  0.3556 -0.9804 -0.2540
17375TIP3    H273617   4.033   1.006  16.191 -0.8870 -0.0132 -3.4067
17376TIP3   OH273618   1.379   6.116  16.291  0.5244 -0.1106 -0.4352
17376TIP3    H173619   1.381   6.054  16.218  0.5711 -0.5313 -0.0736
17376TIP3    H273620   1.338   6.069  16.363  0.8191  0.1813 -0.0693
17377TIP3   OH273621   1.308   1.943   1.010 -0.2197 -0.5288 -0.4888
17377TIP3    H173622   1.223   1.972   0.978 -0.1626 -0.7100 -0.8063
17377TIP3    H273623   1.370   2.009   0.978 -0.4718  0.6731  1.3566
17378TIP3   OH273624   3.836   5.570  13.870  0.2029  0.3020  0.5591
17378TIP3    H173625   3.858   5.522  13.950 -1.0002 -0.3643  0.5200
17378TIP3    H273626   3.919   5.606  13.840  0.6955  0.4680  2.0408
17379TIP3   OH273627   3.693   4.539   3.832  0.0392  0.8274 -0.3927
17379TIP3    H173628   3.655   4.521   3.746 -1.6299 -0.2267  0.5154
17379TIP3    H273629   3.768   4.596   3.814 -0.0953  0.3861 -2.5556
17380TIP3   OH273630   2.126   2.253   4.145 -0.5221  0.0424 -0.0359
17380TIP3    H173631   2.101   2.326   4.202  0.1745  0.2306  0.0377
17380TIP3    H273632   2.056   2.189   4.157 -0.1563 -0.1295  1.4205
17381TIP3   OH273633   3.835   2.560   4.865 -0.2057  0.7367 -0.4691
17381TIP3    H173634   3.849   2.641   4.817 -0.2001  1.1111  0.1487
17381TIP3    H273635   3.849   2.490   4.801  1.5627  1.1583 -0.5832
17382TIP3   OH273636   3.839   5.677  14.227  0.3836 -0.0896  0.2782
17382TIP3    H173637   3.764   5.619  14.242  1.2040 -1.5214 -0.9243
17382TIP3    H273638   3.912   5.618  14.211  1.4445  1.2927 -0.1203
17383TIP3   OH273639   2.880   5.237   3.337  0.3590  0.0733 -0.0663
17383TIP3    H173640   2.953   5.284   3.378 -0.1614  1.4175 -0.6382
17383TIP3    H273641   2.884   5.263   3.245 -1.4920  1.0498  0.0919
17384TIP3   OH273642   2.785   6.761  14.540  0.2456  0.8525  0.1316
17384TIP3    H173643   2.880   6.754  14.547  0.2398  2.0117  2.7055
17384TIP3    H273644   2.771   6.850  14.506  0.0452  0.2696 -1.3896
17385TIP3   OH273645   2.708   3.969   5.538  0.6443 -0.8609  0.1182
17385TIP3    H173646   2.700   3.946   5.446  1.1126  0.9085 -0.4015
17385TIP3    H273647   2.618   3.992   5.565  1.0374  3.1661 -1.2674
17386TIP3   OH273648   5.906   2.938   1.220 -0.1078 -0.2160  0.4336
17386TIP3    H173649   5.997   2.927   1.249 -0.6234  0.1048  2.3125
17386TIP3    H273650   5.907   3.019   1.168  0.9663 -1.1184 -1.0168
17387TIP3   OH273651   1.241   1.975  16.004 -0.1740  0.4817 -0.0547
17387TIP3    H173652   1.299   2.025  15.947 -1.7253  0.6978 -1.5358
17387TIP3    H273653   1.173   2.038  16.029 -1.0391 -0.3452 -0.2840
17388TIP3   OH273654   3.610   5.403   0.793  0.0139  0.5078 -0.1718
17388TIP3    H173655   3.657   5.322   0.773 -0.3886  0.0055  0.8388
17388TIP3    H273656   3.671   5.473   0.769  0.4764 -0.0944 -0.7880
17389TIP3   OH273657   3.320   4.473  11.188 -0.3967  0.5123 -0.3053
17389TIP3    H173658   3.251   4.451  11.125 -1.8430 -1.1847  1.7260
17389TIP3    H273659   3.281   4.542  11.242 -0.5090 -0.4063  0.8132
17390TIP3   OH273660   6.741   4.200   5.748  0.4440  0.3605  0.1980
17390TIP3    H173661   6.678   4.256   5.794  1.1521  1.6486 -0.3494
17390TIP3    H273662   6.821   4.252   5.744  0.9630 -0.4827 -0.8333
17391TIP3   OH273663   6.498   0.744   4.039  0.2952  0.0794  0.2742
17391TIP3    H173664   6.503   0.721   3.946  2.4063 -0.1118  0.3776
17391TIP3    H273665   6.425   0.692   4.072  0.2084 -0.7102 -1.0599
17392TIP3   OH273666   6.813   3.557   1.127  0.6499 -0.0631 -0.0554
17392TIP3    H173667   6.876   3.554   1.199  0.9118  0.0242 -0.2798
17392TIP3    H273668   6.732   3.524   1.165  0.6200  0.5791  0.4475
17393TIP3   OH273669   1.658   3.176  16.859 -0.7883 -0.3537  0.2384
17393TIP3    H173670   1.680   3.102  16.803 -0.5101 -0.6976  0.7968
17393TIP3    H273671   1.737   3.193  16.910 -0.4855  1.0113 -0.6268
17394TIP3   OH273672   0.815   6.690   3.580  0.0934 -0.5382  0.1815
17394TIP3    H173673   0.910   6.689   3.589  0.2663  0.0435 -1.3231
17394TIP3    H273674   0.795   6.610   3.532 -0.2055 -0.7168  0.5952
17395TIP3   OH273675   6.554   0.815   4.531 -0.1952  0.0669 -0.2069
17395TIP3    H173676   6.612   0.874   4.579 -1.5801  0.3060  1.2490
17395TIP3    H273677   6.521   0.868   4.458 -1.4252  1.1680  1.0787
17396TIP3   OH273678   5.956   2.107  16.061  0.2379  0.1730  0.3058
17396TIP3    H173679   5.973   2.147  15.976  0.7044 -1.4706 -0.3960
17396TIP3    H273680   6.039   2.066  16.085 -0.6823 -1.8705  0.1685
17397TIP3   OH273681   6.095   0.355  16.839  0.0372  0.4321 -0.9015
17397TIP3    H173682   6.016   0.303  16.830  0.2805  0.0112 -0.6510
17397TIP3    H273683   6.093   0.387  16.929  1.2351 -1.4030 -0.1689
17398TIP3   OH273684   5.744   1.122  13.533  0.2283 -0.3959  0.1991
17398TIP3    H173685   5.766   1.104  13.441  1.5811 -0.4490  0.5185
17398TIP3    H273686   5.773   1.212  13.547  1.9098 -1.0292  1.1030
17399TIP3   OH273687   0.400   6.341   3.034  0.3775 -0.5441  0.2875
17399TIP3    H173688   0.414   6.372   3.123  1.1006 -1.1328  0.3926
17399TIP3    H273689   0.470   6.277   3.020  1.1413  0.5469 -1.1918
17400TIP3   OH273690   2.139   1.662   5.049  0.2527  0.0657 -0.2643
17400TIP3    H173691   2.234   1.657   5.049  0.2983  0.4766  1.5690
17400TIP3    H273692   2.118   1.722   4.977  1.5215  1.9418  0.8683
17401TIP3   OH273693   5.062   3.158   0.810 -0.2351 -0.3415  0.0280
17401TIP3    H173694   5.134   3.105   0.845  0.9919  1.2753  0.0716
17401TIP3    H273695   5.058   3.234   0.868 -1.9870 -0.3564 -0.0046
17402TIP3   OH273696   0.522   0.232  12.943  0.1664 -0.0676 -0.1661
17402TIP3    H173697   0.517   0.181  13.024 -2.8208 -0.3617 -0.4430
17402TIP3    H273698   0.557   0.317  12.970 -0.0629 -0.4134  1.2910
17403TIP3   OH273699   5.099   5.226   3.134 -0.0410  0.2379 -0.3286
17403TIP3    H173700   5.158   5.298   3.154  0.3629 -0.5225  1.4777
17403TIP3    H273701   5.014   5.267   3.119 -0.1889  1.0592  2.2267
17404TIP3   OH273702   1.481   2.635  16.943 -0.6274  0.0520 -0.4071
17404TIP3    H173703   1.517   2.557  16.901  0.0233 -0.0954  0.4025
17404TIP3    H273704   1.388   2.634  16.921 -0.4148 -0.3454 -1.3287
17405TIP3   OH273705   2.669   6.853  11.932 -0.0869 -0.2920 -0.0599
17405TIP3    H173706   2.655   6.909  12.009  0.2220  0.9671 -0.9022
17405TIP3    H273707   2.584   6.851  11.888  0.1536  0.3738 -0.5762
17406TIP3   OH273708   0.917   6.529   1.153 -0.2799 -0.9177  0.1393
17406TIP3    H173709   0.881   6.601   1.101  2.2336  1.4487  1.4056
17406TIP3    H273710   0.864   6.528   1.232  0.4991  0.5572  0.7218
17407TIP3   OH273711   3.518   0.154  13.112 -0.4176  0.0653  0.5616
17407TIP3    H173712   3.518   0.193  13.025 -2.2134 -2.0919 -0.5141
17407TIP3    H273713   3.610   0.136  13.130  0.1449  1.9942 -0.1414
17408TIP3   OH273714   3.401   4.632   0.568  0.2388 -0.2203 -0.1223
17408TIP3    H173715   3.456   4.574   0.621  0.1472 -0.5894 -0.4305
17408TIP3    H273716   3.463   4.677   0.510  0.5447  1.3347  1.3199
17409TIP3   OH273717   1.371   1.563   4.007  0.2960  0.1874 -0.3269
17409TIP3    H173718   1.397   1.504   4.078  0.1163  0.5614  0.0497
17409TIP3    H273719   1.454   1.601   3.977  0.4475 -0.4698 -0.7678
17410TIP3   OH273720   6.721   0.249  11.960  0.9277  0.3921  0.6271
17410TIP3    H173721   6.729   0.271  11.867  1.0077 -0.3996  0.4406
17410TIP3    H273722   6.731   0.332  12.005 -0.0064  0.9239 -0.1140
17411TIP3   OH273723   0.505   6.556  14.159  0.1424  0.3097 -0.5723
17411TIP3    H173724   0.548   6.520  14.081  0.7472  0.8236 -0.4789
17411TIP3    H273725   0.411   6.552  14.138  0.1735 -1.5429 -0.4545
17412TIP3   OH273726   2.050   6.505  11.716 -0.2307  0.1401 -0.0425
17412TIP3    H173727   2.076   6.520  11.625  2.0361  1.5165  0.7492
17412TIP3    H273728   2.109   6.436  11.747 -0.4089  0.2793  0.6228
17413TIP3   OH273729   0.605   0.541  13.900 -0.1524  0.1348  0.5250
17413TIP3    H173730   0.659   0.469  13.866  1.4772  0.8193  1.5454
17413TIP3    H273731   0.523   0.534  13.851  0.0608 -2.2142  0.3569
17414TIP3   OH273732   2.844   2.264   6.204 -0.5558 -0.0589  0.0621
17414TIP3    H173733   2.878   2.177   6.227  1.1402  0.7648  0.8594
17414TIP3    H273734   2.909   2.325   6.239 -3.0011  1.6788  1.9201
17415TIP3   OH273735   6.444   2.554   4.741  0.6771  0.5042 -0.2220
17415TIP3    H173736   6.487   2.597   4.815  1.6538 -0.4706 -0.1933
17415TIP3    H273737   6.452   2.461   4.760 -0.7573  0.2708 -0.6380
17416TIP3   OH273738   6.080   2.111  11.688 -0.0790 -0.4556 -0.3966
17416TIP3    H173739   5.994   2.068  11.685  0.5776 -2.2954  2.8368
17416TIP3    H273740   6.061   2.202  11.666 -2.8932 -0.7971  0.1701
17417TIP3   OH273741   3.483   3.829  11.976 -0.0264  0.1892 -0.0140
17417TIP3    H173742   3.517   3.746  11.943 -3.3563 -0.5445 -2.0847
17417TIP3    H273743   3.447   3.807  12.062  0.2592 -0.2259  0.0035
17418TIP3   OH273744   4.418   5.325  12.223 -0.2588 -0.3367  0.3740
17418TIP3    H173745   4.457   5.281  12.298  0.2822  1.5124  1.2310
17418TIP3    H273746   4.487   5.328  12.157  1.7447  3.9583  2.2904
17419TIP3   OH273747   5.462   6.578  14.118  0.6406 -0.1177  0.9779
17419TIP3    H173748   5.473   6.535  14.033 -2.8988 -0.6297  0.6208
17419TIP3    H273749   5.489   6.668  14.104  1.9067 -0.6286 -0.1022
17420TIP3   OH273750   0.280   0.113  11.541 -0.1238  0.7221  1.0036
17420TIP3    H173751   0.199   0.151  11.575 -0.5201  0.5827  0.2365
17420TIP3    H273752   0.251   0.057  11.468  0.4622 -0.8277  1.8999
17421TIP3   OH273753   5.710   0.460   5.042  0.4588 -0.3879  0.7454
17421TIP3    H173754   5.687   0.519   5.114 -0.8228  1.2506 -0.9041
17421TIP3    H273755   5.765   0.513   4.984 -3.1598  0.4547 -2.3266
17422TIP3   OH273756   4.768   0.332  12.257  0.1422  0.4214 -0.3999
17422TIP3    H173757   4.752   0.238  12.248  1.4142  0.3364 -2.5164
17422TIP3    H273758   4.683   0.373  12.242 -0.1440 -0.3437 -0.8995
17423TIP3   OH273759   4.357   4.384   1.021  0.0882  0.5043 -0.3374
17423TIP3    H173760   4.369   4.457   1.083 -0.6755  0.4358 -0.1003
17423TIP3    H273761   4.441   4.378   0.975  0.7156  0.5010  0.7528
17424TIP3   OH273762   2.444   5.769   4.818 -0.3345  1.1492 -0.2702
17424TIP3    H173763   2.440   5.858   4.854 -0.0476  1.1546 -0.2526
17424TIP3    H273764   2.537   5.753   4.804 -0.0563 -0.3925  2.7335
17425TIP3   OH273765   5.133   3.336  13.686 -0.0013  0.6292  0.3356
17425TIP3    H173766   5.095   3.261  13.732 -0.6056  0.7005 -0.0360
17425TIP3    H273767   5.093   3.333  13.599  2.6254 -0.7319 -0.9396
17426TIP3   OH273768   1.481   3.105  11.456  0.2214  0.2434 -0.0832
17426TIP3    H173769   1.444   3.066  11.535 -0.7070  0.2400 -0.5096
17426TIP3    H273770   1.571   3.071  11.453  0.3860  0.5285  1.1471
17427TIP3   OH273771   4.944   6.076   0.404 -0.4284  0.6266 -0.0774
17427TIP3    H173772   4.970   6.167   0.420  2.1623  0.1109 -0.8176
17427TIP3    H273773   4.961   6.031   0.487 -0.4934  0.6018 -0.0780
17428TIP3   OH273774   1.974   5.606  16.635  0.1569 -0.0508  0.3427
17428TIP3    H173775   1.957   5.698  16.655 -0.6000 -0.0821 -0.1462
17428TIP3    H273776   1.981   5.603  16.539 -1.4311 -0.7647  0.2269
17429TIP3   OH273777   1.150   2.424  14.489  0.1575 -0.0865  0.8308
17429TIP3    H173778   1.112   2.512  14.479  0.0612 -0.0773  1.2337
17429TIP3    H273779   1.075   2.365  14.482  0.4199 -0.2663 -1.0683
17430TIP3   OH273780   1.058   0.405   4.527  0.0686 -0.0184 -0.1776
17430TIP3    H173781   1.064   0.480   4.586  1.0528  0.6380 -1.0738
17430TIP3    H273782   1.047   0.329   4.585  0.2951  0.6779  0.7965
17431TIP3   OH273783   6.002   4.383  14.317  0.2792  0.0787 -0.0733
17431TIP3    H173784   6.010   4.478  14.329 -0.8195  0.2170 -0.2826
17431TIP3    H273785   6.014   4.369  14.223  1.2933 -0.1028  0.0719
17432TIP3   OH273786   3.941   2.205  16.540  0.0326 -0.6034 -0.6152
17432TIP3    H173787   4.029   2.169  16.529  0.1385 -0.9071  1.0086
17432TIP3    H273788   3.898   2.145  16.601 -1.2980 -0.4196 -1.3207
17433TIP3   OH273789   3.949   0.821  11.513 -0.1993  0.3091 -0.0781
17433TIP3    H173790   4.039   0.789  11.515 -0.5117 -0.6157 -0.4894
17433TIP3    H273791   3.950   0.889  11.445 -0.6730 -2.5635 -3.2456
17434TIP3   OH273792   1.478   2.949  15.721 -0.0081 -0.2923  0.3636
17434TIP3    H173793   1.459   2.986  15.634 -1.9066 -0.4195  0.6890
17434TIP3    H273794   1.521   3.020  15.768 -1.0690  0.5602  0.0653
17435TIP3   OH273795   3.486   1.646  12.796 -0.1027 -0.1883  0.0343
17435TIP3    H173796   3.445   1.599  12.724  1.9434 -1.9566 -0.0742
17435TIP3    H273797   3.442   1.612  12.874 -0.8735  0.1705 -0.2352
17436TIP3   OH273798   1.785   3.025  10.668  0.0281  0.3955 -0.3529
17436TIP3    H173799   1.869   3.016  10.712 -0.0833  0.9143 -0.0268
17436TIP3    H273800   1.806   3.058  10.581  0.0601  2.1429  0.2864
17437TIP3   OH273801   0.033   4.891  13.134 -0.0261  0.3508  0.1029
17437TIP3    H173802   0.021   4.813  13.189 -1.1900  0.6394  0.2689
17437TIP3    H273803   0.058   4.960  13.195  2.7553 -0.2363 -0.2327
17438TIP3   OH273804   3.364   1.091   5.233 -0.1055 -0.1031  0.4486
17438TIP3    H173805   3.335   1.171   5.276  0.9889  0.5944 -0.0612
17438TIP3    H273806   3.389   1.033   5.305  0.4522  0.5571  0.7960
17439TIP3   OH273807   3.132   3.158  13.770  0.2375  0.3934 -0.3609
17439TIP3    H173808   3.083   3.155  13.687 -0.6854 -0.9672  0.2063
17439TIP3    H273809   3.214   3.201  13.747 -0.0013  0.0615 -1.9934
17440TIP3   OH273810   3.935   1.592  11.167  0.3202  0.6309  0.6755
17440TIP3    H173811   3.866   1.588  11.100  1.2449 -1.6190 -0.2725
17440TIP3    H273812   4.002   1.650  11.130  0.8307 -0.6078 -0.4445
17441TIP3   OH273813   2.671   5.068   1.477  0.5880  0.1783  0.1177
17441TIP3    H173814   2.696   4.998   1.537 -0.6579  0.3439  0.8875
17441TIP3    H273815   2.713   5.046   1.394  0.6523 -1.1945  0.4876
17442TIP3   OH273816   0.899   1.041  14.679  0.0255  0.1629 -0.6245
17442TIP3    H173817   0.928   1.073  14.764 -2.1350  0.5690  0.0230
17442TIP3    H273818   0.897   0.946  14.689  1.9767  0.0297 -1.0322
17443TIP3   OH273819   3.332   5.977  10.948 -0.2482  0.5203  0.3089
17443TIP3    H173820   3.413   6.005  10.990  0.8784  0.9337 -2.0357
17443TIP3    H273821   3.338   6.009  10.858 -1.3896 -2.5600 -0.9876
17444TIP3   OH273822   1.291   1.466   3.215 -0.4378 -0.8404  0.5116
17444TIP3    H173823   1.379   1.462   3.252  1.2812 -1.3799 -3.2087
17444TIP3    H273824   1.281   1.556   3.186 -0.6010 -1.0701 -0.1676
17445TIP3   OH273825   2.200   0.362   2.869  0.1439  0.2444 -0.0240
17445TIP3    H173826   2.296   0.358   2.879 -0.0607 -0.3059  2.1225
17445TIP3    H273827   2.187   0.394   2.780  2.3310  0.8190 -0.1975
17446TIP3   OH273828   1.466   4.759  11.293 -0.2193 -0.3622  0.3348
17446TIP3    H173829   1.556   4.790  11.285  0.1103 -1.3269  0.1783
17446TIP3    H273830   1.438   4.744  11.203 -1.2150  1.7550  0.2462
17447TIP3   OH273831   5.603   6.688   1.776  0.0201  0.2169 -0.3232
17447TIP3    H173832   5.518   6.730   1.760  1.2615  2.0367 -2.7118
17447TIP3    H273833   5.636   6.731   1.855 -0.8050  0.2730  0.0011
17448TIP3   OH273834   0.648   0.700  14.719  0.0808 -0.9489 -0.6315
17448TIP3    H173835   0.574   0.713  14.778  1.0281 -0.7206  0.5430
17448TIP3    H273836   0.663   0.786  14.680  2.2437  0.1209  2.2262
17449TIP3   OH273837   5.644   1.823   1.428  0.5881  0.2992 -0.5836
17449TIP3    H173838   5.704   1.869   1.486  0.8263 -1.3951  0.5758
17449TIP3    H273839   5.679   1.735   1.421 -0.4808 -0.0697 -1.8055
17450TIP3   OH273840   4.770   3.285   3.273  0.8046  0.0842  0.3851
17450TIP3    H173841   4.715   3.334   3.335 -1.0616 -0.7574 -0.5264
17450TIP3    H273842   4.806   3.213   3.324 -0.2719 -0.2847  0.6531
17451TIP3   OH273843   3.456   2.543  16.803  0.9605 -0.5503 -0.7556
17451TIP3    H173844   3.491   2.455  16.793  0.9893 -0.4963 -1.1601
17451TIP3    H273845   3.531   2.601  16.790  0.6988 -0.4276 -1.8651
17452TIP3   OH273846   3.923   0.257   2.845  0.0795 -0.4027 -0.2185
17452TIP3    H173847   3.969   0.183   2.806  0.6565 -0.1775  0.0209
17452TIP3    H273848   3.990   0.304   2.894 -0.4894 -0.2921  0.4763
17453TIP3   OH273849   6.841   6.264   1.502  0.1474 -0.7195  0.0132
17453TIP3    H173850   6.798   6.339   1.460  0.8580  0.2731  0.9824
17453TIP3    H273851   6.859   6.203   1.431  1.3166  0.8793 -1.1526
17454TIP3   OH273852   1.304   1.234   1.316 -0.7705  0.3304 -0.2999
17454TIP3    H173853   1.325   1.318   1.275 -2.2012  1.7933  1.7792
17454TIP3    H273854   1.389   1.196   1.337 -0.0907  2.0030  0.1225
17455TIP3   OH273855   3.485   1.184  13.761  0.2518 -0.1993 -0.1023
17455TIP3    H173856   3.509   1.152  13.674  0.7072  0.3328 -0.1686
17455TIP3    H273857   3.517   1.274  13.765 -2.0648  0.7161 -0.3586
17456TIP3   OH273858   6.542   6.584   6.010  0.2144 -0.0484 -0.2273
17456TIP3    H173859   6.451   6.606   5.989  0.5546 -0.6644 -2.7901
17456TIP3    H273860   6.535   6.523   6.083 -1.3799  0.4702  0.1105
17457TIP3   OH273861   6.448   5.302   5.752 -0.4011 -0.6166 -0.3729
17457TIP3    H173862   6.519   5.362   5.778 -0.4705 -0.1796 -1.1537
17457TIP3    H273863   6.449   5.305   5.656 -1.4559 -0.6320 -0.3907
17458TIP3   OH273864   6.637   4.198  15.495  0.2595 -0.1482 -0.1941
17458TIP3    H173865   6.719   4.162  15.460  0.2788 -0.1524 -0.1450
17458TIP3    H273866   6.662   4.235  15.579  0.2863  0.1952 -0.3503
17459TIP3   OH273867   2.951   5.425  10.827  0.4957 -0.2502  0.9719
17459TIP3    H173868   2.969   5.516  10.852 -0.2302  0.1574  0.0798
17459TIP3    H273869   2.934   5.429  10.733 -1.9964 -0.9165  1.3264
17460TIP3   OH273870   5.761   1.686   4.683 -0.0761 -0.1486  0.0273
17460TIP3    H173871   5.825   1.737   4.733 -0.5831 -0.4314  0.9809
17460TIP3    H273872   5.677   1.705   4.725 -0.1394 -2.6708  1.2226
17461TIP3   OH273873   1.526   2.311  16.036 -0.4817 -0.3651  0.2587
17461TIP3    H173874   1.556   2.227  16.069  1.8386  0.1965 -0.2163
17461TIP3    H273875   1.431   2.310  16.049 -0.4719 -2.8756  0.5878
17462TIP3   OH273876   6.326   2.085   2.048 -0.1129  0.2241 -0.3945
17462TIP3    H173877   6.368   2.001   2.028 -0.3270 -0.0485  0.2570
17462TIP3    H273878   6.340   2.097   2.142  0.9453  1.5115 -0.6876
17463TIP3   OH273879   0.498   0.313  11.961 -0.1455  0.8653  0.2874
17463TIP3    H173880   0.418   0.261  11.969  0.2819  0.1160 -0.1380
17463TIP3    H273881   0.476   0.397  12.000 -1.0300  0.5510  0.4976
17464TIP3   OH273882   2.647   5.235  15.779 -0.1725  0.0907  0.2415
17464TIP3    H173883   2.702   5.247  15.702 -1.3884 -1.3869 -0.9217
17464TIP3    H273884   2.642   5.322  15.819  1.4326  0.6331 -0.6726
17465TIP3   OH273885   3.324   3.088   4.547  0.1310 -0.1749  0.6125
17465TIP3    H173886   3.297   3.180   4.556  1.1424  0.0995  0.9373
17465TIP3    H273887   3.418   3.089   4.565  0.0138 -1.3845  1.3720
17466TIP3   OH273888   2.664   0.729  14.412 -0.3590 -0.4434  0.3565
17466TIP3    H173889   2.608   0.675  14.356  0.6515 -1.0107 -0.1412
17466TIP3    H273890   2.655   0.817  14.376 -1.4970 -0.3847  0.7510
17467TIP3   OH273891   0.790   0.087   0.542 -0.1673 -0.0826 -0.8108
17467TIP3    H173892   0.847   0.083   0.464  0.0117  0.4583 -0.7066
17467TIP3    H273893   0.847   0.061   0.614 -0.4328 -0.9685 -0.9039
17468TIP3   OH273894   4.150   3.933  14.253 -0.2651 -0.5445 -0.0239
17468TIP3    H173895   4.117   3.942  14.164  0.1286  2.6190  0.0440
17468TIP3    H273896   4.097   3.863  14.291 -0.9174 -1.4970 -2.4926
17469TIP3   OH273897   1.962   1.053  11.138  0.4260 -0.0953  0.2966
17469TIP3    H173898   1.939   0.960  11.148 -0.0218  0.0812  0.9234
17469TIP3    H273899   1.918   1.079  11.057  1.2025 -0.6251 -0.3172
17470TIP3   OH273900   2.286   3.577   5.166  0.0245  0.5057 -0.4129
17470TIP3    H173901   2.343   3.553   5.094  1.0309  1.3265  0.0724
17470TIP3    H273902   2.214   3.625   5.125 -0.1416 -0.2389 -0.9987
17471TIP3   OH273903   4.283   3.641   1.736 -0.6290 -0.0513 -0.0155
17471TIP3    H173904   4.351   3.626   1.671 -0.7671 -0.5401 -0.0513
17471TIP3    H273905   4.330   3.645   1.819 -0.3084  1.7877 -0.2544
17472TIP3   OH273906   5.916   0.814  14.486 -0.2473 -0.4978 -0.3287
17472TIP3    H173907   5.844   0.781  14.540  1.3338 -1.5014  1.2848
17472TIP3    H273908   5.982   0.843  14.549  0.3407  1.5096 -1.7444
17473TIP3   OH273909   5.242   0.694  13.301 -0.1115 -0.4923 -0.2766
17473TIP3    H173910   5.308   0.723  13.239  1.4059 -0.3818  1.3285
17473TIP3    H273911   5.159   0.706  13.254  0.9616 -0.6793 -2.3569
17474TIP3   OH273912   4.393   1.579   5.773  0.0145  0.1078 -0.3546
17474TIP3    H173913   4.445   1.653   5.806 -1.6254 -0.0913  3.1087
17474TIP3    H273914   4.456   1.507   5.767  1.0581  1.0354 -0.9534
17475TIP3   OH273915   0.332   6.563  13.200  0.1061  0.1457  0.2955
17475TIP3    H173916   0.393   6.531  13.134  0.6794  0.7316  0.5330
17475TIP3    H273917   0.262   6.497  13.202  1.3967 -1.2610  0.9924
17476TIP3   OH273918   0.945   5.392  13.187  0.1900 -0.4233 -0.1614
17476TIP3    H173919   0.863   5.364  13.229  0.2398 -1.2890 -0.6169
17476TIP3    H273920   0.917   5.447  13.114  0.0175 -0.5383 -0.1832
17477TIP3   OH273921   1.565   6.795   0.618 -0.4424  0.2040  0.5721
17477TIP3    H173922   1.624   6.765   0.687 -0.7277 -1.0977  0.2578
17477TIP3    H273923   1.611   6.775   0.537 -0.9902 -0.1383  0.3430
17478TIP3   OH273924   3.625   3.750   0.140  0.1078  0.4934 -0.1599
17478TIP3    H173925   3.582   3.769   0.056  0.5566  1.7658 -0.1109
17478TIP3    H273926   3.629   3.834   0.185  4.7467  1.0676 -1.1290
17479TIP3   OH273927   1.644   1.230   5.915  0.1006 -0.6950 -0.0746
17479TIP3    H173928   1.726   1.267   5.882 -0.0310  0.2463  0.6274
17479TIP3    H273929   1.578   1.294   5.892 -0.4774 -1.4932 -0.7163
17480TIP3   OH273930   5.931   0.775  12.135  0.6038  0.5111  0.6706
17480TIP3    H173931   5.989   0.846  12.109  0.2823  1.5014  2.5264
17480TIP3    H273932   5.987   0.697  12.137  0.7216  0.3607 -2.5385
17481TIP3   OH273933   5.796   2.182   5.972  0.0808  0.6322 -0.0104
17481TIP3    H173934   5.841   2.104   6.006  1.2234  1.2314 -0.0851
17481TIP3    H273935   5.705   2.170   5.996  0.7200  0.8052  2.9368
17482TIP3   OH273936   0.818   1.198   5.657  0.2506  0.1951 -0.8501
17482TIP3    H173937   0.910   1.216   5.635  0.0211  0.3727 -1.6849
17482TIP3    H273938   0.821   1.117   5.707  0.8736  0.2388 -0.8083
17483TIP3   OH273939   4.077   3.404   2.579 -0.3013  0.0001 -0.0289
17483TIP3    H173940   4.015   3.331   2.582  0.3332 -0.5834 -0.7906
17483TIP3    H273941   4.096   3.423   2.671  0.9998 -2.0873  0.2057
17484TIP3   OH273942   2.832   3.100  16.799 -0.5784  0.1675  0.5938
17484TIP3    H173943   2.788   3.136  16.722 -0.6303 -2.5797 -0.7813
17484TIP3    H273944   2.925   3.116  16.782 -0.5976 -0.2994  0.0059
17485TIP3   OH273945   6.368   6.396  10.950 -0.1782  0.0166  0.3690
17485TIP3    H173946   6.318   6.315  10.945 -0.8125  0.3058  1.5399
17485TIP3    H273947   6.403   6.409  10.862 -0.8193 -1.0504 -0.0556
17486TIP3   OH273948   4.911   2.593   2.153  0.3031 -0.2251  0.4215
17486TIP3    H173949   4.958   2.584   2.071 -0.2855 -0.8982  0.1445
17486TIP3    H273950   4.854   2.670   2.140 -1.1277 -1.3822 -0.5052
17487TIP3   OH273951   3.777   4.536   2.758  0.4892 -0.2174 -0.9272
17487TIP3    H173952   3.705   4.493   2.804 -0.2431  0.5080 -1.3811
17487TIP3    H273953   3.845   4.545   2.825 -0.8077  1.4584  0.2514
17488TIP3   OH273954   1.888   2.533   2.371  0.3961  0.3224  0.3299
17488TIP3    H173955   1.973   2.554   2.411  2.1048 -2.1531 -1.6427
17488TIP3    H273956   1.905   2.455   2.319 -2.4063  1.4186 -2.5511
17489TIP3   OH273957   6.627   5.897   4.148 -0.0956 -0.0874  0.1913
17489TIP3    H173958   6.697   5.899   4.083  0.0570 -2.2574  0.2153
17489TIP3    H273959   6.565   5.965   4.118  2.8865  3.4383  1.3612
17490TIP3   OH273960   5.661   5.829  11.076 -0.0523 -0.2385  0.5506
17490TIP3    H173961   5.588   5.775  11.049  0.1951 -0.2067 -0.1932
17490TIP3    H273962   5.698   5.863  10.995 -0.2522  1.1241  1.0040
17491TIP3   OH273963   0.535   2.728  12.252 -0.3854 -0.4103  0.2759
17491TIP3    H173964   0.537   2.822  12.271  0.3603  0.0631 -1.8495
17491TIP3    H273965   0.458   2.717  12.196  1.2342 -0.4457 -2.0802
17492TIP3   OH273966   6.611   0.407   6.256  0.0033  0.3014  0.1843
17492TIP3    H173967   6.684   0.347   6.268 -1.5028 -1.7448 -0.3183
17492TIP3    H273968   6.578   0.387   6.168 -1.0156  1.3587  0.2956
17493TIP3   OH273969   2.105   6.486  11.204  0.0428 -0.4827 -0.1722
17493TIP3    H173970   2.031   6.434  11.173 -2.5358  2.0437  1.2244
17493TIP3    H273971   2.115   6.554  11.138  2.0791 -1.5148 -0.9997
17494TIP3   OH273972   6.659   3.567  13.475 -0.8955  0.1714  0.0279
17494TIP3    H173973   6.740   3.521  13.495 -0.4958  1.6135  2.0898
17494TIP3    H273974   6.685   3.638  13.417 -0.7814  0.3069  0.2456
17495TIP3   OH273975   3.591   6.650  14.397 -0.0077 -0.6299 -0.1514
17495TIP3    H173976   3.619   6.561  14.419  3.0377  0.2332 -0.0610
17495TIP3    H273977   3.613   6.703  14.473 -1.1905  0.3278 -0.4386
17496TIP3   OH273978   2.899   3.224  11.102  0.2379  0.3002  1.2912
17496TIP3    H173979   2.920   3.292  11.038 -0.8414 -1.3138 -0.9168
17496TIP3    H273980   2.857   3.155  11.051 -0.8920 -1.0192  3.8055
17497TIP3   OH273981   2.341   0.038   3.099 -0.1044  0.7298 -0.2296
17497TIP3    H173982   2.360   0.076   3.185  1.0809  0.9889 -0.5794
17497TIP3    H273983   2.249   0.060   3.083 -0.2513  0.9443  0.8339
17498TIP3   OH273984   3.234   0.674  16.582 -0.1421 -0.3680 -0.3837
17498TIP3    H173985   3.312   0.707  16.627 -0.1126 -2.8604  1.6282
17498TIP3    H273986   3.186   0.753  16.557  2.3264  1.2156 -0.4973
17499TIP3   OH273987   6.123   5.089   5.608 -0.9353  0.1601 -0.7050
17499TIP3    H173988   6.181   5.126   5.674 -2.0148 -0.0538  0.4013
17499TIP3    H273989   6.069   5.163   5.579  0.0938  0.4474 -2.0189
17500TIP3   OH273990   3.235   6.244   4.528  0.1204 -0.7975  0.5639
17500TIP3    H173991   3.309   6.268   4.473 -0.6806 -0.0091 -0.1998
17500TIP3    H273992   3.229   6.148   4.519 -0.4196 -0.6244 -1.3213
17501TIP3   OH273993   3.911   6.033   3.225  0.2930  0.1285  0.1837
17501TIP3    H173994   3.930   6.051   3.133  1.2862  0.6725  0.4824
17501TIP3    H273995   3.955   5.949   3.242  0.7836  0.4226  0.3687
17502TIP3   OH273996   4.754   5.195  16.522  0.3636  0.3136  0.1588
17502TIP3    H173997   4.766   5.282  16.486  0.2294  0.2286 -0.0945
17502TIP3    H273998   4.807   5.194  16.602  0.0342  0.7609  0.3847
17503TIP3   OH273999   2.542   4.838   4.969  0.3424  0.5764 -0.0606
17503TIP3    H174000   2.636   4.853   4.958  0.3190  0.2997 -0.7658
17503TIP3    H274001   2.536   4.748   5.003  0.3336  0.5710 -0.0767
17504TIP3   OH274002   2.644   4.806  16.176  0.2672  0.1572 -0.0209
17504TIP3    H174003   2.685   4.860  16.244  1.2505  0.0680 -0.5325
17504TIP3    H274004   2.689   4.722  16.180 -0.2625 -0.1427 -0.2069
17505TIP3   OH274005   0.692   6.698  11.549  0.4252 -0.6882 -0.2603
17505TIP3    H174006   0.739   6.781  11.538 -0.8784  0.2811  1.1328
17505TIP3    H274007   0.733   6.639  11.486  0.9040  1.2061 -1.8239
17506TIP3   OH274008   2.110   1.630   6.187 -0.1353  0.4002  0.4321
17506TIP3    H174009   2.126   1.723   6.208  1.1274  0.9006 -2.2676
17506TIP3    H274010   2.188   1.604   6.137  0.2180 -2.5925  2.2990
17507TIP3   OH274011   2.320   4.602  12.385 -0.0681 -0.7569  0.3589
17507TIP3    H174012   2.325   4.680  12.329 -0.6167 -0.7630  0.2945
17507TIP3    H274013   2.295   4.532  12.325  0.6597 -1.0401  0.3707
17508TIP3   OH274014   1.431   6.028   0.134 -0.4771 -0.1515  0.4728
17508TIP3    H174015   1.457   6.078   0.212 -0.1982  0.8518 -0.2394
17508TIP3    H274016   1.453   6.085   0.061 -0.7343 -1.0825 -0.3510
17509TIP3   OH274017   6.222   6.800   2.418  0.1232 -0.1678  0.5923
17509TIP3    H174018   6.208   6.725   2.475 -0.9654 -0.6508 -0.2733
17509TIP3    H274019   6.140   6.849   2.422 -0.3211 -0.6872 -1.2109
17510TIP3   OH274020   0.047   0.887  12.090  0.2440 -0.1606 -0.0271
17510TIP3    H174021   0.108   0.861  12.021 -0.5811  0.5774 -1.0530
17510TIP3    H274022  -0.029   0.920  12.044 -0.0043  1.1180  1.2408
17511TIP3   OH274023   2.712   5.719   5.811  0.5575 -0.0513 -0.2552
17511TIP3    H174024   2.696   5.746   5.901 -0.8734  0.1054 -0.5268
17511TIP3    H274025   2.807   5.708   5.805  0.7391  0.6478  1.0579
17512TIP3   OH274026   3.823   2.000   4.312  0.6433  0.5165 -0.6248
17512TIP3    H174027   3.751   1.952   4.353  0.5874 -0.6079 -1.9557
17512TIP3    H274028   3.803   2.092   4.328 -0.3869  0.1712  0.1630
17513TIP3   OH274029   5.892   6.643   4.374 -0.2276 -0.4822  0.2789
17513TIP3    H174030   5.845   6.572   4.418 -0.0780  0.1368  1.4803
17513TIP3    H274031   5.984   6.617   4.376 -0.3682 -1.1368 -1.0075
17514TIP3   OH274032   4.498   5.494   5.053  0.3672  0.5654 -0.0770
17514TIP3    H174033   4.429   5.430   5.036  1.6948 -0.6826 -0.9981
17514TIP3    H274034   4.459   5.555   5.116 -1.2565 -0.6078  0.1232
17515TIP3   OH274035   6.099   0.930   5.024  0.1643  0.0808  0.4286
17515TIP3    H174036   6.016   0.923   5.071 -0.0497 -0.0047  0.0463
17515TIP3    H274037   6.074   0.935   4.932  0.6247 -0.9712  0.2295
17516TIP3   OH274038   5.496   3.585  14.931  0.4489 -0.1863  0.2325
17516TIP3    H174039   5.482   3.492  14.950 -1.0486 -0.1947 -0.7592
17516TIP3    H274040   5.461   3.631  15.008 -3.3751 -0.3121 -1.2164
17517TIP3   OH274041   0.098   2.093  14.551 -0.1353  0.2384  0.4562
17517TIP3    H174042   0.051   2.076  14.633 -1.5370  0.2089 -0.3284
17517TIP3    H274043   0.059   2.173  14.517  0.5473  0.3422 -0.1123
17518TIP3   OH274044   0.242   5.075  13.840 -0.3277  0.2266 -0.6324
17518TIP3    H174045   0.266   5.154  13.792 -1.9554 -0.3070 -2.4314
17518TIP3    H274046   0.240   5.006  13.773 -1.0701 -0.8957  0.5062
17519TIP3   OH274047   0.763   1.906  15.725  0.3859 -0.1858 -0.2544
17519TIP3    H174048   0.798   1.925  15.638  1.9396 -0.1183  0.3509
17519TIP3    H274049   0.813   1.962  15.784 -0.0510 -0.8507  0.7766
17520TIP3   OH274050   6.566   2.111  10.834  0.5256  0.6476  0.0033
17520TIP3    H174051   6.600   2.160  10.909 -1.5056  2.2453 -0.0273
17520TIP3    H274052   6.577   2.171  10.760  0.8948 -0.2242 -0.6624
17521TIP3   OH274053   1.948   1.893   0.555 -0.2448 -0.1760 -0.2333
17521TIP3    H174054   2.015   1.824   0.552 -1.3383 -1.3915  1.5155
17521TIP3    H274055   1.874   1.856   0.506 -0.0165  0.7886 -1.3652
17522TIP3   OH274056   5.148   2.068  13.270  0.0901 -0.5452  0.0055
17522TIP3    H174057   5.128   2.159  13.289  0.9971 -0.0975 -1.0828
17522TIP3    H274058   5.079   2.040  13.210  0.5704 -0.1485 -0.7443
17523TIP3   OH274059   2.816   4.548   4.731 -0.1667  0.1385 -0.5067
17523TIP3    H174060   2.877   4.621   4.723  0.1214 -0.2913 -2.8620
17523TIP3    H274061   2.815   4.507   4.645 -0.2782 -2.7129  0.7326
17524TIP3   OH274062   3.115   4.803  12.327  0.3687 -0.3042  0.0780
17524TIP3    H174063   3.071   4.886  12.344  0.6255  0.0129 -0.7935
17524TIP3    H274064   3.047   4.737  12.343  0.3167  0.0255  1.3089
17525TIP3   OH274065   1.261   3.557   5.096  0.1878 -0.4210 -0.0254
17525TIP3    H174066   1.242   3.650   5.110 -0.4364 -0.5920  0.2825
17525TIP3    H274067   1.179   3.521   5.061 -0.0102 -1.1280  1.1223
17526TIP3   OH274068   6.019   0.031  17.049  0.1092  0.0482 -0.4372
17526TIP3    H174069   5.991   0.122  17.062 -0.7245 -0.0949 -1.0786
17526TIP3    H274070   6.076   0.012  17.123  0.7260  1.2661 -0.5776
17527TIP3   OH274071   4.486   1.306   5.911 -0.0256  0.2131 -0.3998
17527TIP3    H174072   4.537   1.265   5.981  0.6267  0.8541 -0.4824
17527TIP3    H274073   4.528   1.276   5.830 -0.7959 -0.5512 -0.5293
17528TIP3   OH274074   4.439   4.714  15.562 -0.2293 -0.2407 -0.8569
17528TIP3    H174075   4.523   4.670  15.547 -0.0110 -0.4372  0.7425
17528TIP3    H274076   4.431   4.776  15.490  0.9912 -0.6465 -1.3712
17529TIP3   OH274077   5.140   1.094   0.825  0.0515  0.0748 -0.1959
17529TIP3    H174078   5.183   1.036   0.889 -0.0458  0.9996  0.7285
17529TIP3    H274079   5.187   1.078   0.744  0.8866 -0.3492  0.3545
17530TIP3   OH274080   5.607   2.199  12.641 -0.2370  0.3697 -0.2281
17530TIP3    H174081   5.667   2.206  12.567 -1.3555 -1.4287 -1.3801
17530TIP3    H274082   5.664   2.188  12.717  0.9256 -1.0939 -1.2495
17531TIP3   OH274083   0.351   1.162   0.597  0.0139  0.4175  0.2695
17531TIP3    H174084   0.281   1.130   0.539 -0.1460 -0.5571  0.9679
17531TIP3    H274085   0.367   1.089   0.656  1.0354  0.9527  0.6697
17532TIP3   OH274086   4.350   2.743   3.268 -0.5076  0.2304 -0.0839
17532TIP3    H174087   4.373   2.680   3.336 -2.1248  0.8211  1.0767
17532TIP3    H274088   4.418   2.810   3.273 -1.6620  1.3145  2.4013
17533TIP3   OH274089   3.049   0.872  16.580 -0.5453  0.0258 -0.2211
17533TIP3    H174090   3.021   0.862  16.490  1.1606 -0.9410 -0.6899
17533TIP3    H274091   3.081   0.962  16.586  2.0245 -0.7198 -1.4489
17534TIP3   OH274092   2.145   4.273  13.009  0.4910  0.4745  0.1404
17534TIP3    H174093   2.096   4.286  12.928  1.0504  1.1268 -0.1050
17534TIP3    H274094   2.136   4.179  13.027 -1.4696  0.7048  0.5317
17535TIP3   OH274095   2.242   2.068   3.333  0.1663 -0.2035  0.0809
17535TIP3    H174096   2.310   2.133   3.313  1.7125 -1.9273 -0.5127
17535TIP3    H274097   2.160   2.111   3.309  1.0404  1.8199  0.4860
17536TIP3   OH274098   6.527   0.271   3.829  0.2774  0.2066 -0.8134
17536TIP3    H174099   6.435   0.291   3.846  0.1539 -1.4326  0.7036
17536TIP3    H274100   6.533   0.263   3.734 -1.4101 -0.7280 -0.8725
17537TIP3   OH274101   1.844   2.081  15.282 -0.1933 -0.2693 -0.3104
17537TIP3    H174102   1.807   2.107  15.197  0.3838  0.7906 -0.2514
17537TIP3    H274103   1.934   2.113  15.280 -0.4950  0.7850  1.1429
17538TIP3   OH274104   4.908   2.817   2.718  0.6495 -0.0392  0.5965
17538TIP3    H174105   4.891   2.810   2.624  2.4411  0.6612  0.1718
17538TIP3    H274106   4.881   2.733   2.754 -2.1748  0.4594 -0.1346
17539TIP3   OH274107   2.020   3.024  10.801 -0.2426 -0.5080  0.0820
17539TIP3    H174108   2.095   3.083  10.801  0.2513 -1.1190  0.5578
17539TIP3    H274109   2.053   2.942  10.839 -1.2849 -0.6149  0.8053
17540TIP3   OH274110   2.235   3.096   0.930 -0.5001 -0.3863  0.3894
17540TIP3    H174111   2.145   3.113   0.960 -0.9092  0.7539 -1.3254
17540TIP3    H274112   2.241   3.142   0.847  1.9774  0.2970  0.8682
17541TIP3   OH274113   1.465   3.918   4.856 -0.8920 -0.1148 -0.6701
17541TIP3    H174114   1.467   3.990   4.919 -0.4032  0.0059 -0.8185
17541TIP3    H274115   1.463   3.839   4.910  1.7963 -0.1159 -0.4109
17542TIP3   OH274116   6.123   6.599   1.097 -0.0564 -0.2189  0.6112
17542TIP3    H174117   6.159   6.626   1.182  0.2125  2.1689 -0.1941
17542TIP3    H274118   6.190   6.623   1.033 -1.2037  0.1533 -0.4877
17543TIP3   OH274119   4.648   6.213  15.081  0.0371  0.1364 -0.1376
17543TIP3    H174120   4.614   6.267  15.010 -0.8713 -1.1676 -0.7372
17543TIP3    H274121   4.727   6.259  15.110 -0.0639  1.1631 -1.3843
17544TIP3   OH274122   5.539   2.286  16.255 -0.2369  0.5702  0.0965
17544TIP3    H174123   5.546   2.360  16.194  1.0622  0.6475  0.3243
17544TIP3    H274124   5.627   2.249  16.259 -0.7033 -0.5213  0.5861
17545TIP3   OH274125   5.939   3.672   2.682 -0.1364  0.3287 -0.6863
17545TIP3    H174126   5.844   3.666   2.679 -0.0852 -0.8303 -0.5928
17545TIP3    H274127   5.960   3.748   2.629 -1.0904  0.2602 -1.1799
17546TIP3   OH274128   3.261   5.965  13.848 -0.0958  0.5847 -0.2058
17546TIP3    H174129   3.216   5.909  13.911  1.0127 -0.2647 -0.1331
17546TIP3    H274130   3.192   5.993  13.788 -0.7905 -0.4054  0.0857
17547TIP3   OH274131   6.132   3.730  15.113 -0.2798  0.0879 -0.2503
17547TIP3    H174132   6.053   3.769  15.076  0.0441  0.1744 -0.8704
17547TIP3    H274133   6.188   3.714  15.037 -0.8425 -2.6460 -0.1776
17548TIP3   OH274134   5.502   3.004  14.825 -0.2194 -0.2114  0.4247
17548TIP3    H174135   5.523   2.910  14.819 -2.1887 -0.7135  0.4869
17548TIP3    H274136   5.440   3.019  14.753  2.0217  1.6937 -1.2416
17549TIP3   OH274137   4.572   6.747  14.066 -0.1625  0.0100  0.1576
17549TIP3    H174138   4.539   6.811  14.002  0.3893  0.1062 -0.0354
17549TIP3    H274139   4.637   6.795  14.116 -0.0277 -0.2950  0.2731
17550TIP3   OH274140   0.327   3.556  11.542  0.2708  0.3194  0.1383
17550TIP3    H174141   0.355   3.473  11.504 -2.0714 -2.2996  3.4206
17550TIP3    H274142   0.245   3.576  11.497  0.8438  0.9215 -0.6644
17551TIP3   OH274143   0.161   0.688  17.059  0.5718  0.0329 -0.3687
17551TIP3    H174144   0.224   0.677  16.988  0.2535  0.4204 -0.7203
17551TIP3    H274145   0.087   0.632  17.034 -0.5758  1.9850 -1.5986
17552TIP3   OH274146   0.682   3.753  13.056 -0.1603 -0.6667 -0.1312
17552TIP3    H174147   0.740   3.730  13.128 -0.1670 -0.7114 -0.1399
17552TIP3    H274148   0.738   3.798  12.993 -0.2607 -0.1577  0.1341
17553TIP3   OH274149   5.659   5.833  12.371 -0.8303  0.3742  0.5562
17553TIP3    H174150   5.657   5.818  12.276 -1.8171 -1.3624  0.7971
17553TIP3    H274151   5.744   5.874  12.387 -0.3675  0.1051 -1.0106
17554TIP3   OH274152   2.365   3.761   3.737  0.7965  0.0332 -0.0500
17554TIP3    H174153   2.443   3.707   3.734  1.7840  1.1895  1.9691
17554TIP3    H274154   2.370   3.804   3.823 -2.0356  0.1937  0.1269
17555TIP3   OH274155   1.024   6.108   4.650  0.7449  0.5757  0.3557
17555TIP3    H174156   1.002   6.163   4.575  1.1230 -0.0293 -0.2066
17555TIP3    H274157   1.009   6.165   4.726 -0.1664  1.0272 -0.1389
17556TIP3   OH274158   1.319   4.955  16.612  0.4609  0.6383  0.2602
17556TIP3    H174159   1.397   4.956  16.668  0.8253 -1.4372 -0.1125
17556TIP3    H274160   1.250   4.922  16.670  0.4309  0.2144 -0.0081
17557TIP3   OH274161   1.048   2.993  13.074  0.0780 -0.5288  0.2411
17557TIP3    H174162   1.110   2.920  13.071  0.3832 -0.2544 -0.1780
17557TIP3    H274163   0.998   2.979  13.154  2.0280  0.3444  1.6763
17558TIP3   OH274164   4.173   5.708  13.209 -0.3996  0.4306 -0.2502
17558TIP3    H174165   4.162   5.768  13.135  0.7370  0.8784 -0.0777
17558TIP3    H274166   4.239   5.645  13.179 -0.0807  0.4951  0.3060
17559TIP3   OH274167   1.957   4.800   3.609 -0.2116  0.3735  0.1019
17559TIP3    H174168   1.976   4.750   3.530  0.5108  1.2797 -0.3230
17559TIP3    H274169   2.002   4.884   3.595 -2.0533  1.4720  0.4074
17560TIP3   OH274170   3.710   0.543   4.493  0.9819  0.1009 -0.4670
17560TIP3    H174171   3.668   0.542   4.579  1.3066 -0.5058 -0.3139
17560TIP3    H274172   3.662   0.479   4.441  0.1174  1.2118 -1.0680
17561TIP3   OH274173   5.348   3.361   3.495 -0.7878  0.1981  0.3061
17561TIP3    H174174   5.404   3.405   3.432 -1.5357  0.8980  0.1266
17561TIP3    H274175   5.394   3.278   3.513 -0.0594  0.4410 -0.3682
17562TIP3   OH274176   4.154   1.427   5.879  0.2760  0.0469  0.2761
17562TIP3    H174177   4.232   1.467   5.840  0.5789  0.6405  1.4431
17562TIP3    H274178   4.081   1.459   5.825  0.5738  1.7143  0.7847
17563TIP3   OH274179   1.053   0.194  13.628 -0.3335 -0.7864  0.1130
17563TIP3    H174180   0.985   0.223  13.567  0.5920  0.9719 -0.1595
17563TIP3    H274181   1.131   0.183  13.573  0.8001  1.8767  1.0589
17564TIP3   OH274182   1.409   5.426   5.347  0.1704 -0.5160 -0.0177
17564TIP3    H174183   1.342   5.384   5.292 -0.2955  0.6925 -0.3943
17564TIP3    H274184   1.424   5.511   5.306  2.4560 -1.0058 -0.3404
17565TIP3   OH274185   6.369   1.888  15.004 -0.5621 -0.3683 -0.0672
17565TIP3    H174186   6.297   1.912  15.063  0.2680  0.2276  0.7308
17565TIP3    H274187   6.440   1.946  15.029 -0.1006 -0.2810 -1.5023
17566TIP3   OH274188   2.992   5.495  13.720  0.5519 -0.3484  0.6330
17566TIP3    H174189   3.005   5.402  13.703  0.0078 -0.2734 -0.2721
17566TIP3    H274190   2.941   5.497  13.801  1.0786 -0.8116  0.9861
17567TIP3   OH274191   1.286   5.689   1.229 -0.1933  0.9296 -0.1719
17567TIP3    H174192   1.234   5.614   1.256  2.4139 -0.9104  0.1627
17567TIP3    H274193   1.303   5.674   1.135  0.9017  0.6819  0.0472
17568TIP3   OH274194   6.080   4.895   1.598  0.9223  0.2155  0.0099
17568TIP3    H174195   6.118   4.916   1.513 -1.6633 -1.5915 -1.7243
17568TIP3    H274196   5.989   4.925   1.593  0.0188 -2.0396  1.1651
17569TIP3   OH274197   5.507   5.310  17.018 -0.1938  0.2944  0.0475
17569TIP3    H174198   5.504   5.291  17.112  0.4572  0.0170  0.0190
17569TIP3    H274199   5.547   5.396  17.013  1.7056 -0.5432 -0.0508
17570TIP3   OH274200   1.360   6.028   3.146  0.2254  0.4647 -0.1214
17570TIP3    H174201   1.426   6.053   3.082 -1.5759  2.3538 -1.3745
17570TIP3    H274202   1.380   6.081   3.223 -0.0188  1.3066 -0.6266
17571TIP3   OH274203   6.829   2.492  15.299 -0.0778 -0.1638  0.6693
17571TIP3    H174204   6.822   2.447  15.214 -0.0706  0.2911  0.4256
17571TIP3    H274205   6.921   2.480  15.324  0.9975  2.8846 -1.2076
17572TIP3   OH274206   2.358   5.066   0.440 -0.4394  0.2006  0.1785
17572TIP3    H174207   2.378   5.142   0.386 -0.0912  0.3536  0.5131
17572TIP3    H274208   2.359   5.099   0.530 -2.2983  0.2216  0.2166
17573TIP3   OH274209   6.086   0.342   4.702  0.7271 -0.5683 -0.1531
17573TIP3    H174210   6.050   0.296   4.625  1.6041 -1.6316  0.0486
17573TIP3    H274211   6.129   0.419   4.666  1.3890 -1.2139 -0.7752
17574TIP3   OH274212   6.611   2.124  11.941  0.2170 -0.3976 -0.5242
17574TIP3    H174213   6.573   2.091  12.022  2.3212 -0.9190  0.3109
17574TIP3    H274214   6.617   2.047  11.884  0.8818 -0.5451 -0.2741
17575TIP3   OH274215   4.076   1.640  14.746 -0.0669 -0.2821  0.1093
17575TIP3    H174216   4.009   1.587  14.704 -0.0169  0.2131 -0.6276
17575TIP3    H274217   4.156   1.588  14.741  0.1560  0.1562 -1.3137
17576TIP3   OH274218   6.015   5.624   4.416 -0.9068  0.2019 -0.2761
17576TIP3    H174219   6.000   5.547   4.471  0.7743 -1.5365 -2.1066
17576TIP3    H274220   6.052   5.589   4.335 -0.4872  2.9271 -1.3653
17577TIP3   OH274221   5.841   3.352  14.970 -0.3837 -0.5423 -0.0140
17577TIP3    H174222   5.771   3.363  14.905 -0.5866  0.5746  0.3715
17577TIP3    H274223   5.830   3.263  15.002 -0.8677 -0.7916 -0.8360
17578TIP3   OH274224   4.799   0.458  15.739  0.3261  0.5193  0.0112
17578TIP3    H174225   4.783   0.467  15.833 -0.6041 -1.7487  0.1464
17578TIP3    H274226   4.723   0.500  15.698  0.3616  0.8708  0.2996
17579TIP3   OH274227   0.815   6.389  16.072 -0.8513  0.3621 -0.0194
17579TIP3    H174228   0.809   6.357  16.162 -1.0955 -2.3071 -0.8897
17579TIP3    H274229   0.728   6.422  16.052 -0.6890  1.3423  0.8196
17580TIP3   OH274230   5.523   1.320  13.982 -0.7568  0.6572  0.1138
17580TIP3    H174231   5.432   1.347  13.975 -0.4171  1.9008  0.3009
17580TIP3    H274232   5.522   1.250  14.048 -1.6157  0.3623 -0.1978
17581TIP3   OH274233   2.131   4.626  16.672 -0.0060  0.5358 -0.6553
17581TIP3    H174234   2.042   4.615  16.706  0.7933  1.7736  2.1483
17581TIP3    H274235   2.125   4.702  16.615 -0.0584  3.8722  3.3264
17582TIP3   OH274236   1.591   4.483  12.499  0.0524 -0.0935  0.0687
17582TIP3    H174237   1.642   4.491  12.419 -0.3514 -1.4343 -0.3568
17582TIP3    H274238   1.630   4.546  12.560 -1.4725  3.1777 -2.0498
17583TIP3   OH274239   2.777   5.901  15.027  0.0270 -0.0016  0.2191
17583TIP3    H174240   2.850   5.840  15.034  1.3028  1.5803  2.0175
17583TIP3    H274241   2.703   5.855  15.067  0.5502 -0.9202  0.1452
17584TIP3   OH274242   0.088   2.276  14.822 -0.3289  0.0921  0.0720
17584TIP3    H174243   0.066   2.344  14.758  1.4169 -1.7423 -2.7198
17584TIP3    H274244   0.020   2.210  14.811 -1.5994  0.9214  2.2514
17585TIP3   OH274245   0.183   0.290   2.171  0.3344  0.4769 -0.1058
17585TIP3    H174246   0.151   0.200   2.169 -0.4448  0.7423  0.2437
17585TIP3    H274247   0.260   0.289   2.114  0.9195 -0.6375  0.6706
17586TIP3   OH274248   5.281   0.452   2.268  0.2333 -0.7802  0.0336
17586TIP3    H174249   5.190   0.447   2.238  0.0271  1.4082  0.1399
17586TIP3    H274250   5.329   0.400   2.204 -0.8965 -0.6349 -0.9812
17587TIP3   OH274251   4.551   5.832  14.500 -0.5332 -0.4494  0.2970
17587TIP3    H174252   4.517   5.918  14.523  0.9824  0.2573 -0.0081
17587TIP3    H274253   4.645   5.837  14.519  0.0446 -1.2084 -2.0893
17588TIP3   OH274254   6.028   1.926  15.807 -0.2672 -0.4039  0.0826
17588TIP3    H174255   5.982   1.858  15.855  0.5287 -0.8039  0.2990
17588TIP3    H274256   6.118   1.922  15.840 -0.1731  0.6580  0.0037
17589TIP3   OH274257   1.922   3.161  16.532 -0.8230  0.8097 -0.0224
17589TIP3    H174258   1.834   3.156  16.495 -0.8511 -1.1486  0.1693
17589TIP3    H274259   1.962   3.076  16.510  0.4340  1.0191  1.2751
17590TIP3   OH274260   5.266   2.679  12.059 -0.1051 -0.5048  0.2637
17590TIP3    H174261   5.197   2.625  12.020  0.1565 -2.0346  1.7895
17590TIP3    H274262   5.306   2.724  11.984 -3.6950  1.7398 -0.5988
17591TIP3   OH274263   5.869   4.284  16.764  0.0012  0.5116 -0.2944
17591TIP3    H174264   5.823   4.248  16.688  0.3126 -1.5152  0.4042
17591TIP3    H274265   5.947   4.325  16.728 -0.0712 -0.0386 -1.1070
17592TIP3   OH274266   5.595   6.101   5.280  0.8630  0.2569 -0.8189
17592TIP3    H174267   5.586   6.088   5.185 -1.2124  0.6737 -0.7267
17592TIP3    H274268   5.532   6.170   5.301 -0.4440 -1.4199  1.1853
17593TIP3   OH274269   0.766   0.622  11.517 -0.4056 -0.3129 -0.2256
17593TIP3    H174270   0.757   0.533  11.482  1.0303 -0.4615 -0.2441
17593TIP3    H274271   0.856   0.646  11.500 -0.6734  1.0152  0.1346
17594TIP3   OH274272   1.307   4.293  12.636  0.4617 -0.8608  0.3124
17594TIP3    H174273   1.227   4.301  12.584 -0.2781  0.9584  1.5960
17594TIP3    H274274   1.367   4.242  12.582 -1.0670 -1.0334 -1.2979
17595TIP3   OH274275   0.830   4.312   5.292  0.2263 -0.4221  0.0366
17595TIP3    H174276   0.823   4.277   5.380 -2.0243  2.0106  0.9492
17595TIP3    H274277   0.915   4.355   5.290 -0.5416  1.3489  1.8558
17596TIP3   OH274278   0.885   5.116   0.957 -0.0378 -0.6044 -0.1283
17596TIP3    H174279   0.933   5.176   1.014 -0.2676  1.1198 -1.6655
17596TIP3    H274280   0.952   5.053   0.928 -0.0209 -1.8454  2.3486
17597TIP3   OH274281   1.504   6.447   1.190 -1.1559  0.6277 -0.1763
17597TIP3    H174282   1.519   6.518   1.127  0.9148  0.9254  0.5682
17597TIP3    H274283   1.503   6.490   1.275 -0.7283 -0.1322  0.2237
17598TIP3   OH274284   1.209   4.720  15.673 -0.1637  0.3957  0.1002
17598TIP3    H174285   1.285   4.778  15.683  0.1822  0.1706 -1.1244
17598TIP3    H274286   1.195   4.716  15.579 -1.6675  0.3834  0.3061
17599TIP3   OH274287   4.738   2.893   6.646  0.2007  0.1883  0.0574
17599TIP3    H174288   4.687   2.962   6.688 -0.6437 -1.7500  2.4506
17599TIP3    H274289   4.819   2.936   6.618 -1.3151  2.6484 -0.9196
17600TIP3   OH274290   1.978   2.642  12.996 -0.5456 -0.2504 -0.1038
17600TIP3    H174291   1.912   2.575  13.011 -0.3458 -0.0055  2.1607
17600TIP3    H274292   1.938   2.723  13.029  0.0085  0.3707 -0.8979
17601TIP3   OH274293   0.844   4.732  14.257  0.2726  0.3380 -0.1872
17601TIP3    H174294   0.806   4.701  14.175  1.0157 -2.9938  0.5643
17601TIP3    H274295   0.775   4.718  14.322  0.4276  0.8614  0.0929
17602TIP3   OH274296   4.659   5.994  13.969 -0.0583  0.2827 -0.1894
17602TIP3    H174297   4.576   6.039  13.956 -0.0202  0.0487 -1.3434
17602TIP3    H274298   4.639   5.924  14.031 -0.8103  0.0129 -0.7230
17603TIP3   OH274299   1.329   1.495  15.124 -0.6401  0.0877  0.0560
17603TIP3    H174300   1.389   1.430  15.087 -1.5870 -0.7537 -0.0783
17603TIP3    H274301   1.244   1.474  15.083 -1.3646  0.2010  1.4455
17604TIP3   OH274302   3.618   4.601   1.357  0.1606 -0.1023 -0.2247
17604TIP3    H174303   3.621   4.528   1.295 -1.2344  0.3311 -0.8590
17604TIP3    H274304   3.559   4.664   1.316 -0.1076  0.5843  1.1533
17605TIP3   OH274305   1.372   6.584  16.312 -1.0030  0.0522  0.4011
17605TIP3    H174306   1.284   6.620  16.307 -0.8115  0.6889  1.2847
17605TIP3    H274307   1.427   6.649  16.269 -0.3777  1.9322  3.6861
17606TIP3   OH274308   2.736   3.887  14.040  0.3559 -0.3102 -0.2628
17606TIP3    H174309   2.718   3.980  14.031 -1.3160 -0.5730  0.0321
17606TIP3    H274310   2.716   3.849  13.954 -0.1945 -0.5672 -0.0258
17607TIP3   OH274311   4.212   1.407  11.280  0.2443 -0.9107  0.3545
17607TIP3    H174312   4.118   1.412  11.297  0.3731  0.1356  0.7900
17607TIP3    H274313   4.247   1.358  11.354  0.2525  0.0732  1.0051
17608TIP3   OH274314   4.343   0.070  14.352 -0.5560  0.2427  0.0506
17608TIP3    H174315   4.276   0.005  14.372 -1.0698  0.8818  0.4465
17608TIP3    H274316   4.294   0.145  14.318 -0.0553  0.7709  0.4811
17609TIP3   OH274317   1.032   6.021  16.211  0.5209 -0.4633  0.0353
17609TIP3    H174318   1.080   6.071  16.145  0.7524  0.3996  0.8374
17609TIP3    H274319   1.096   5.958  16.245  0.3312 -1.0816 -0.7211
17610TIP3   OH274320   5.256   4.734   4.561  0.5081  0.3732  0.2128
17610TIP3    H174321   5.326   4.703   4.617  0.9975  1.3247  0.1498
17610TIP3    H274322   5.227   4.656   4.513 -0.3665 -0.6075  2.2189
17611TIP3   OH274323   1.468   2.651   0.140 -0.1854 -0.0458  0.2400
17611TIP3    H174324   1.465   2.555   0.141  1.7593 -0.2078 -1.4562
17611TIP3    H274325   1.454   2.674   0.048  0.0390  1.2612  0.5161
17612TIP3   OH274326   2.515   4.647  13.886 -0.5875 -0.1669 -0.3046
17612TIP3    H174327   2.557   4.730  13.910 -0.3006 -0.1881 -0.7307
17612TIP3    H274328   2.572   4.580  13.923 -1.2567 -0.1750  0.7692
17613TIP3   OH274329   1.885   5.348   3.236  0.0821 -0.0237  0.4726
17613TIP3    H174330   1.925   5.375   3.153  0.9877  2.1065  1.5530
17613TIP3    H274331   1.799   5.314   3.210  0.8450 -0.6286 -1.4472
17614TIP3   OH274332   4.370   4.443  12.051  0.1686  0.3314 -0.1380
17614TIP3    H174333   4.440   4.380  12.068  0.6458  0.8644 -0.1096
17614TIP3    H274334   4.396   4.488  11.971  0.1786  0.9647  0.2123
17615TIP3   OH274335   5.956   2.532   3.467  0.3940  0.1290  0.3019
17615TIP3    H174336   5.865   2.505   3.481  0.3875 -0.3016 -0.5078
17615TIP3    H274337   5.987   2.557   3.554  0.2348 -1.9987  1.0167
17616TIP3   OH274338   3.234   3.200  11.096 -0.1780 -0.4371  0.5111
17616TIP3    H174339   3.295   3.235  11.032  0.0385  0.3406  1.1302
17616TIP3    H274340   3.184   3.133  11.048 -1.1714  1.2793 -0.9524
17617TIP3   OH274341   3.903   4.746   0.708  0.4603  0.4807 -0.0583
17617TIP3    H174342   3.988   4.790   0.695  0.1245  0.9700 -0.6542
17617TIP3    H274343   3.900   4.679   0.640  0.8018 -0.2230  0.6053
17618TIP3   OH274344   1.689   3.946   5.178 -0.2527  0.3537  0.4124
17618TIP3    H174345   1.603   3.904   5.183 -0.0217 -0.1826  0.0335
17618TIP3    H274346   1.751   3.875   5.198  0.2832 -0.0517 -2.3591
17619TIP3   OH274347   2.442   0.502  15.876 -0.1226  0.6210 -0.1821
17619TIP3    H174348   2.489   0.419  15.870 -0.3272  0.5756 -1.3800
17619TIP3    H274349   2.355   0.479  15.906 -0.5169  0.2603 -1.5589
17620TIP3   OH274350   6.684   4.075   1.163  0.2020 -0.1321 -0.7989
17620TIP3    H174351   6.667   4.093   1.255  1.3975  1.2012 -0.7955
17620TIP3    H274352   6.772   4.036   1.162  0.1972 -0.1396 -1.3744
17621TIP3   OH274353   6.426   4.467   2.867 -0.2670  0.4866 -0.3117
17621TIP3    H174354   6.382   4.445   2.949 -0.1872 -0.5607 -0.5353
17621TIP3    H274355   6.514   4.431   2.876 -0.8450 -1.3543 -1.5832
17622TIP3   OH274356   3.686   6.737   0.362  0.1700 -0.0448 -0.1166
17622TIP3    H174357   3.700   6.656   0.412  1.4871  0.6028  0.6183
17622TIP3    H274358   3.611   6.717   0.305  0.4550 -1.7831  0.0386
17623TIP3   OH274359   5.168   2.332  12.796 -0.1560  0.2857 -0.1771
17623TIP3    H174360   5.248   2.297  12.756 -1.6780 -1.1928 -2.0966
17623TIP3    H274361   5.186   2.331  12.890  1.7883 -0.7319 -0.5134
17624TIP3   OH274362   2.776   3.419  16.564  0.2555 -0.7536 -0.2693
17624TIP3    H174363   2.686   3.414  16.530 -0.1102  1.8124  0.0723
17624TIP3    H274364   2.821   3.344  16.525 -1.3007 -0.4989 -2.7941
17625TIP3   OH274365   0.185   6.272   4.278  0.0839 -0.2400  0.5179
17625TIP3    H174366   0.170   6.366   4.286  1.7353  0.0338  0.7050
17625TIP3    H274367   0.275   6.259   4.308 -0.2264 -1.9342  0.8278
17626TIP3   OH274368   4.243   3.818   6.140  0.1336 -0.0872  0.5473
17626TIP3    H174369   4.160   3.857   6.111 -0.8419 -1.6393  1.1156
17626TIP3    H274370   4.221   3.773   6.222  1.0777 -2.1132 -0.2414
17627TIP3   OH274371   0.631   0.570  11.752  0.0597  0.6428 -0.5637
17627TIP3    H174372   0.682   0.600  11.677 -0.0995 -0.8075 -1.3055
17627TIP3    H274373   0.618   0.476  11.735  0.0912  0.2534  1.3247
17628TIP3   OH274374   4.000   2.587  14.245  0.0215 -0.4868  0.0594
17628TIP3    H174375   4.052   2.515  14.207 -0.2167 -1.0824  0.8251
17628TIP3    H274376   3.989   2.562  14.336 -0.2761  0.4210  0.2793
17629TIP3   OH274377   1.584   1.025  14.995  0.3072  0.4696  0.0282
17629TIP3    H174378   1.605   0.940  14.957 -1.5320 -0.0038 -0.0364
17629TIP3    H274379   1.573   1.007  15.089  3.0998  1.2998  0.6043
17630TIP3   OH274380   3.069   2.666  12.390  0.2616 -0.4752 -0.1882
17630TIP3    H174381   3.115   2.745  12.418 -1.1594  0.2653  0.1707
17630TIP3    H274382   3.132   2.595  12.404  0.8850  0.3372  1.4318
17631TIP3   OH274383   1.301   6.329  15.508 -0.3454  0.2979 -0.1229
17631TIP3    H174384   1.366   6.382  15.554  0.4352 -0.6867 -0.0872
17631TIP3    H274385   1.263   6.390  15.444 -0.4097  1.2734  0.8062
17632TIP3   OH274386   3.857   0.944  14.839 -0.2853 -0.4678 -0.6862
17632TIP3    H174387   3.838   1.037  14.848 -1.1756 -0.6236 -0.7777
17632TIP3    H274388   3.775   0.906  14.806  0.4475 -1.0956 -1.8741
17633TIP3   OH274389   4.012   3.140   4.789 -0.3951 -0.2961 -0.7512
17633TIP3    H174390   3.946   3.128   4.857 -0.0812  1.6089 -0.0308
17633TIP3    H274391   4.095   3.146   4.837  0.2945 -2.2382 -1.6099
17634TIP3   OH274392   5.520   6.232   0.165  0.0375  0.1236  0.1643
17634TIP3    H174393   5.425   6.222   0.163  0.1573 -2.4091  2.1634
17634TIP3    H274394   5.536   6.298   0.233 -0.2835  1.8690 -1.3920
17635TIP3   OH274395   4.582   2.202  16.597  0.3269  0.2831 -0.7218
17635TIP3    H174396   4.556   2.237  16.511 -0.5834  0.0393 -0.5458
17635TIP3    H274397   4.637   2.271  16.635  0.8259  0.3524 -1.5352
17636TIP3   OH274398   4.449   1.620   1.607  0.2336 -0.1027  0.5768
17636TIP3    H174399   4.468   1.571   1.687  3.7122  0.8332  0.4929
17636TIP3    H274400   4.500   1.575   1.539 -1.2843  0.1525 -0.7972
17637TIP3   OH274401   2.528   1.510  12.449 -0.1323  0.1677 -0.3145
17637TIP3    H174402   2.461   1.452  12.485  0.8187 -1.2588 -0.7144
17637TIP3    H274403   2.495   1.598  12.464 -1.5159 -0.4657  0.5841
17638TIP3   OH274404   5.825   5.606   5.830 -0.2906 -0.4403  0.0157
17638TIP3    H174405   5.912   5.566   5.820  0.3350  0.6447  0.9775
17638TIP3    H274406   5.772   5.538   5.872  0.6897 -0.4015  1.3814
17639TIP3   OH274407   0.660   3.737  14.900  0.2602  0.0698  0.0180
17639TIP3    H174408   0.713   3.717  14.977  1.1115  0.2911 -0.5016
17639TIP3    H274409   0.597   3.802  14.931  0.9971  0.6294  0.3950
17640TIP3   OH274410   1.388   5.595   1.700 -0.3845 -0.0936  0.6493
17640TIP3    H174411   1.458   5.655   1.723 -1.0834  0.7113  0.7330
17640TIP3    H274412   1.318   5.651   1.666 -2.5457 -0.3586  4.1502
17641TIP3   OH274413   0.747   1.751   4.045 -0.6854 -0.9083  0.1979
17641TIP3    H174414   0.808   1.796   3.986 -1.0970 -1.7385 -0.8886
17641TIP3    H274415   0.708   1.682   3.991 -0.9660 -1.7886  1.4956
17642TIP3   OH274416   5.693   1.229   1.800 -0.4369 -0.0105 -0.2151
17642TIP3    H174417   5.598   1.238   1.804 -0.6537 -1.4404 -1.3062
17642TIP3    H274418   5.717   1.264   1.714 -0.0874 -0.4524 -0.3030
17643TIP3   OH274419   5.719   0.782  14.688 -0.4613 -0.1618  0.1532
17643TIP3    H174420   5.716   0.741  14.775 -0.7410  0.5907  0.5107
17643TIP3    H274421   5.710   0.876  14.706 -0.8444 -0.0234 -0.7146
17644TIP3   OH274422   6.438   6.417  12.856 -0.0388  0.6160 -0.4987
17644TIP3    H174423   6.455   6.323  12.863  1.0455  0.9180  2.7816
17644TIP3    H274424   6.468   6.440  12.768  0.1797 -1.9950 -1.1918
17645TIP3   OH274425   6.600   0.089  13.359  0.7438  0.6308  0.1937
17645TIP3    H174426   6.562   0.052  13.439 -0.1391 -1.6444 -1.1967
17645TIP3    H274427   6.525   0.100  13.300  1.6661  0.1340 -1.1040
17646TIP3   OH274428   3.518   5.601   0.966 -0.0403 -0.2779  1.0377
17646TIP3    H174429   3.442   5.644   0.927  0.4758  1.3634  1.7340
17646TIP3    H274430   3.530   5.522   0.914 -1.8018 -0.2395  0.4837
17647TIP3   OH274431   4.674   5.505  13.909  0.1017 -0.0340  0.0883
17647TIP3    H174432   4.656   5.532  13.819 -1.0036 -1.3240 -0.1120
17647TIP3    H274433   4.649   5.413  13.912  1.7509 -0.4851  1.2890
17648TIP3   OH274434   5.254   3.539  17.000  1.0498  0.1086  0.9252
17648TIP3    H174435   5.175   3.591  16.992  1.2003  0.1283 -0.5992
17648TIP3    H274436   5.223   3.453  17.030  0.6760  0.6554  2.1934
17649TIP3   OH274437   1.555   4.931   3.346 -0.6880 -0.4804 -0.3156
17649TIP3    H174438   1.474   4.979   3.325  0.9214  1.4791 -2.6685
17649TIP3    H274439   1.525   4.845   3.375 -3.6117 -0.0702 -1.7380
17650TIP3   OH274440   3.240   6.272   2.316  0.4887 -0.1134  0.3737
17650TIP3    H174441   3.237   6.367   2.311 -1.6070 -0.1166  0.4176
17650TIP3    H274442   3.262   6.253   2.407  0.4556  0.3501  0.4809
17651TIP3   OH274443   5.702   4.177   4.014  0.3461 -0.3705 -0.5903
17651TIP3    H174444   5.768   4.245   4.023 -1.4815  1.5707 -1.0383
17651TIP3    H274445   5.740   4.101   4.057  2.0637  1.2093  0.8640
17652TIP3   OH274446   6.590   3.294  16.882  0.1103 -0.7066 -0.1542
17652TIP3    H174447   6.587   3.200  16.866 -2.1413 -0.1665 -4.4397
17652TIP3    H274448   6.498   3.320  16.891  0.3535  1.4341 -2.7258
17653TIP3   OH274449   1.445   4.759   2.427 -0.1738  0.4610  0.1022
17653TIP3    H174450   1.445   4.837   2.371 -1.7850  1.1116  0.9340
17653TIP3    H274451   1.354   4.751   2.457  0.3179 -0.7594  1.3863
17654TIP3   OH274452   6.182   2.200   3.883  0.0378 -0.3412 -0.2232
17654TIP3    H174453   6.122   2.127   3.871  1.3038 -1.5447  0.4144
17654TIP3    H274454   6.159   2.262   3.814 -0.9372 -1.4384 -0.9136
17655TIP3   OH274455   1.397   2.069   1.674 -0.3922 -0.5692 -0.2139
17655TIP3    H174456   1.318   2.057   1.726 -0.9922  0.4013 -0.8734
17655TIP3    H274457   1.460   2.008   1.712 -1.0721 -0.4908  1.1111
17656TIP3   OH274458   4.208   4.703  16.657  0.2752  0.0555  0.6866
17656TIP3    H174459   4.205   4.793  16.626  0.2234 -0.3050 -0.4095
17656TIP3    H274460   4.183   4.651  16.580  0.3331 -0.8899  1.2954
17657TIP3   OH274461   0.349   4.599   1.418  0.4605 -0.0942 -0.6068
17657TIP3    H174462   0.426   4.543   1.419 -0.0566 -0.8228 -0.6559
17657TIP3    H274463   0.318   4.596   1.328  1.1541  1.3180 -0.9255
17658TIP3   OH274464   1.901   2.329  13.860  0.2598 -0.3927 -0.5742
17658TIP3    H174465   1.911   2.261  13.926  0.1382  1.1249  1.0870
17658TIP3    H274466   1.939   2.407  13.900 -1.2346  0.9708 -1.6664
17659TIP3   OH274467   1.405   2.589  13.480 -0.1855  0.4860  0.5637
17659TIP3    H174468   1.390   2.569  13.572  1.1947 -2.7588  0.2035
17659TIP3    H274469   1.498   2.611  13.475  0.3544 -1.7383 -0.3081
17660TIP3   OH274470   3.060   0.209  16.668 -0.0237  0.4654 -0.2552
17660TIP3    H174471   2.972   0.182  16.693 -0.1683  0.2069 -1.0225
17660TIP3    H274472   3.047   0.267  16.593  0.4454  0.6212 -0.2193
17661TIP3   OH274473   4.669   2.705  13.321  0.1934  0.4456 -0.4781
17661TIP3    H174474   4.689   2.782  13.268 -1.3204  1.0241 -0.2460
17661TIP3    H274475   4.596   2.663  13.276  2.1520 -1.9763 -1.6592
17662TIP3   OH274476   2.522   1.837  15.996 -0.0850 -0.0820  0.3195
17662TIP3    H174477   2.440   1.863  15.955  0.6695 -0.0937 -1.2771
17662TIP3    H274478   2.523   1.741  15.989 -0.3006 -0.1464  1.0869
17663TIP3   OH274479   3.897   4.377   2.997 -0.5804  0.4052  0.3154
17663TIP3    H174480   3.839   4.303   2.977 -0.8779  1.4015 -3.1453
17663TIP3    H274481   3.840   4.442   3.038 -0.7946 -0.3639  1.2955
17664TIP3   OH274482   0.092   3.928  14.820 -0.0544 -0.0038  0.3297
17664TIP3    H174483   0.167   3.878  14.787  0.5248  1.7130 -1.1840
17664TIP3    H274484   0.057   3.971  14.742 -4.1801 -2.5355  0.5140
17665TIP3   OH274485   2.651   4.734   6.939 -1.0582  0.3052 -0.0048
17665TIP3    H174486   2.624   4.652   6.897 -1.2928  0.4082 -0.0513
17665TIP3    H274487   2.747   4.730   6.939 -1.0698 -0.3440  0.7108
17666TIP3   OH274488   1.625   3.099   1.397 -0.4121 -0.1448  0.1553
17666TIP3    H174489   1.550   3.041   1.383  0.1388 -0.5998 -1.0998
17666TIP3    H274490   1.668   3.064   1.476 -0.2538 -1.2963 -0.4140
17667TIP3   OH274491   1.125   0.666   0.289  0.4328  0.1841  0.1325
17667TIP3    H174492   1.036   0.674   0.255  0.4713 -2.7239 -0.9096
17667TIP3    H274493   1.115   0.641   0.380  0.0918 -1.4229 -0.3142
17668TIP3   OH274494   1.130   2.699  14.457  0.0245 -0.1038  0.2570
17668TIP3    H174495   1.078   2.688  14.377  0.1527 -1.6394  0.3520
17668TIP3    H274496   1.220   2.684  14.428  0.1607  0.1944  0.5286
17669TIP3   OH274497   5.552   4.575   3.199 -0.4259 -0.5750 -0.0917
17669TIP3    H174498   5.547   4.608   3.289  0.3393 -1.2894  0.2215
17669TIP3    H274499   5.461   4.576   3.168 -0.3776  2.6967 -0.4545
17670TIP3   OH274500   2.824   6.041  12.208 -0.2597  0.1811  0.0311
17670TIP3    H174501   2.797   5.949  12.206 -0.5578  0.2434  0.8932
17670TIP3    H274502   2.890   6.045  12.277  0.0235  0.5485 -0.2568
17671TIP3   OH274503   0.941   2.922  12.815  0.4401  0.2662  0.4780
17671TIP3    H174504   0.875   2.861  12.849  1.3304 -1.1737 -0.2979
17671TIP3    H274505   0.990   2.950  12.893  0.3042 -0.3576  0.7946
17672TIP3   OH274506   5.343   3.244   4.052 -0.8732  0.3635 -0.3603
17672TIP3    H174507   5.411   3.183   4.022 -0.5052  1.3008 -1.5196
17672TIP3    H274508   5.367   3.264   4.142 -0.5325 -0.5670 -0.2346
17673TIP3   OH274509   1.367   3.017   0.694 -0.0354 -0.3032 -0.5714
17673TIP3    H174510   1.415   2.940   0.723 -1.5788 -1.1536 -0.1626
17673TIP3    H274511   1.407   3.040   0.610  1.9701 -0.1105  0.3816
17674TIP3   OH274512   5.285   1.399  14.281 -0.1017 -0.7199  0.5014
17674TIP3    H174513   5.318   1.467  14.222 -1.1328 -1.4962 -1.0389
17674TIP3    H274514   5.206   1.436  14.319  0.3623 -0.3604  1.1332
17675TIP3   OH274515   2.932   3.233  15.078  0.0698  0.2236  0.6267
17675TIP3    H174516   2.946   3.323  15.108  1.9578  0.5774 -1.0729
17675TIP3    H274517   2.844   3.211  15.108 -0.7055  2.8705  0.5351
17676TIP3   OH274518   0.594   2.568  10.893  0.4203  0.0156 -0.2048
17676TIP3    H174519   0.621   2.488  10.848  0.4561  0.6834 -1.4207
17676TIP3    H274520   0.538   2.614  10.830 -1.6203 -0.1670  1.3503
17677TIP3   OH274521   1.549   0.698  11.757 -0.0541  0.6411  0.7953
17677TIP3    H174522   1.582   0.643  11.686  2.1675 -0.1918  2.3793
17677TIP3    H274523   1.528   0.636  11.827  2.2890  1.7193  2.5378
17678TIP3   OH274524   5.778   5.264   2.935 -0.0363 -0.0371 -0.1307
17678TIP3    H174525   5.824   5.307   2.862  0.2568 -0.9333 -0.4856
17678TIP3    H274526   5.692   5.243   2.900  0.2072 -0.7360 -0.3207
17679TIP3   OH274527   0.242   2.737   1.048 -0.1167  0.0181 -0.3589
17679TIP3    H174528   0.296   2.782   0.982 -0.2224  0.4414 -0.1628
17679TIP3    H274529   0.292   2.745   1.129  1.5483 -3.2080 -0.9086
17680TIP3   OH274530   3.368   0.420   5.197  0.1098  0.1063  0.0363
17680TIP3    H174531   3.351   0.461   5.112  0.5895 -0.5007 -0.3560
17680TIP3    H274532   3.288   0.372   5.216  1.4923 -3.5655 -2.2769
17681TIP3   OH274533   5.237   3.961   5.015 -0.2148  0.0140 -0.0252
17681TIP3    H174534   5.250   3.890   5.078 -1.6322 -1.2408 -1.0751
17681TIP3    H274535   5.146   3.988   5.027 -0.8643 -0.9938 -2.1978
17682TIP3   OH274536   5.018   0.341   4.410  1.0043  0.1804 -0.0963
17682TIP3    H174537   4.951   0.274   4.413  1.5827 -0.5169 -1.6681
17682TIP3    H274538   4.995   0.402   4.481 -0.2430 -0.9746  0.5317
17683TIP3   OH274539   6.183   5.397   3.084 -0.2787 -0.0235 -0.5344
17683TIP3    H174540   6.135   5.455   3.142  1.0873  0.0005  0.6092
17683TIP3    H274541   6.274   5.425   3.091 -0.0076 -0.3214 -2.3517
17684TIP3   OH274542   2.436   4.140   5.398 -0.3137 -0.7403 -0.3191
17684TIP3    H174543   2.420   4.168   5.488 -0.1810  1.9389 -1.0526
17684TIP3    H274544   2.359   4.089   5.375 -2.1350  1.6027  0.1977
17685TIP3   OH274545   1.331   5.385  15.140  0.5136 -0.5976 -0.6278
17685TIP3    H174546   1.304   5.371  15.049  1.0082  2.7417 -1.4331
17685TIP3    H274547   1.416   5.428  15.133  0.3824  0.0837  1.3934
17686TIP3   OH274548   1.478   0.604  13.622 -0.5464  0.5005  0.1695
17686TIP3    H174549   1.541   0.562  13.681 -0.7773  1.0927  0.8626
17686TIP3    H274550   1.500   0.697  13.627 -0.8030  0.5923 -0.4077
17687TIP3   OH274551   4.393   2.158   4.703 -0.3131  0.5780 -0.2456
17687TIP3    H174552   4.452   2.219   4.747  1.1050 -1.1906  0.4299
17687TIP3    H274553   4.397   2.183   4.611  1.8905  0.2624 -0.2946
17688TIP3   OH274554   5.185   1.332  15.972  0.5290  0.5400 -0.2085
17688TIP3    H174555   5.246   1.350  15.900  2.4478  0.8113  1.4023
17688TIP3    H274556   5.235   1.352  16.051 -1.5847  0.4755  1.2192
17689TIP3   OH274557   3.410   1.943   1.779  0.2883  0.3367  0.3869
17689TIP3    H174558   3.366   1.975   1.701  2.1415 -0.1324 -0.9002
17689TIP3    H274559   3.365   1.986   1.852 -1.7296  0.4868 -0.8812
17690TIP3   OH274560   3.898   1.184  16.075  0.8265  0.3601  0.1277
17690TIP3    H174561   3.819   1.186  16.129  1.0383 -2.0700  0.6209
17690TIP3    H274562   3.888   1.259  16.016 -1.3600  0.7005  0.8453
17691TIP3   OH274563   1.370   1.729   3.143  0.1390 -0.3250 -0.4910
17691TIP3    H174564   1.450   1.729   3.195  0.1150  2.2070 -0.3454
17691TIP3    H274565   1.317   1.799   3.180 -2.0711 -1.7413 -0.7704
17692TIP3   OH274566   4.764   1.396   0.838 -0.2778 -0.4321  0.7821
17692TIP3    H174567   4.781   1.325   0.900  0.1436 -0.8906  0.1579
17692TIP3    H274568   4.685   1.438   0.871 -0.0590 -0.6648  1.6261
17693TIP3   OH274569   1.591   2.190  13.606  0.1431 -0.4698  0.0504
17693TIP3    H174570   1.652   2.250  13.650  2.7259 -2.7538 -0.1369
17693TIP3    H274571   1.583   2.226  13.517  2.5860 -0.8994 -0.4265
17694TIP3   OH274572   1.322   6.306   1.072 -0.9449 -0.1739  0.0414
17694TIP3    H174573   1.396   6.361   1.100 -1.4539  0.5141  0.0664
17694TIP3    H274574   1.359   6.218   1.067 -0.6404 -0.2248  2.1604
17695TIP3   OH274575   1.635   6.250  16.285  0.7020 -0.2355  0.2863
17695TIP3    H174576   1.547   6.217  16.304  0.6161 -0.9688 -1.2365
17695TIP3    H274577   1.693   6.179  16.313  0.6202 -0.9478 -1.2176
17696TIP3   OH274578   0.436   0.416   0.723  0.3325  0.3770  0.4811
17696TIP3    H174579   0.340   0.408   0.726  0.2210  0.6286 -1.4490
17696TIP3    H274580   0.461   0.374   0.641  1.7959  1.1135  0.5276
17697TIP3   OH274581   5.418   6.581  13.238 -0.0070 -0.6818  0.4786
17697TIP3    H174582   5.513   6.580  13.224  0.1010  0.7260  0.9504
17697TIP3    H274583   5.398   6.493  13.271  0.7686 -1.7445 -1.7049
17698TIP3   OH274584   5.664   3.684   2.753  0.2100 -0.0764  0.1624
17698TIP3    H174585   5.615   3.753   2.708 -1.1532  0.6727  2.6248
17698TIP3    H274586   5.609   3.606   2.743  0.1840 -0.0504  0.0959
17699TIP3   OH274587   4.730   4.611  11.881 -0.1850  0.0503  0.4513
17699TIP3    H174588   4.689   4.526  11.897  1.0692 -1.3663 -3.0031
17699TIP3    H274589   4.824   4.593  11.882  0.0877  0.8138 -2.3428
17700TIP3   OH274590   2.995   6.452  12.187  0.3366 -0.1986 -0.1144
17700TIP3    H174591   3.008   6.545  12.171  0.9423 -0.1080  0.8173
17700TIP3    H274592   3.039   6.435  12.271 -1.0240 -1.0115  0.4827
17701TIP3   OH274593   5.096   1.421  11.099 -0.5131  0.0591  0.1231
17701TIP3    H174594   5.147   1.500  11.079 -0.2648  0.5590  2.4093
17701TIP3    H274595   5.015   1.454  11.138 -0.2878 -0.7883  1.3724
17702TIP3   OH274596   0.124   5.683  13.258 -0.3429 -0.0314  0.3134
17702TIP3    H174597   0.123   5.707  13.351 -1.7062  1.3683 -0.0262
17702TIP3    H274598   0.200   5.625  13.250  0.2206  0.3585  2.1636
17703TIP3   OH274599   6.645   4.336  13.981 -0.0386 -0.8100 -0.3018
17703TIP3    H174600   6.640   4.245  13.951 -1.8523 -0.4674 -1.1828
17703TIP3    H274601   6.553   4.361  13.995  0.5394  0.2908  1.8304
17704TIP3   OH274602   4.694   6.586  14.716 -0.3655  0.1425  0.4177
17704TIP3    H174603   4.645   6.664  14.691  1.5503  1.6291  0.9704
17704TIP3    H274604   4.756   6.573  14.644 -1.4129 -1.6289 -0.2283
17705TIP3   OH274605   4.942   6.782  10.782  0.4378  0.5917 -0.1958
17705TIP3    H174606   4.989   6.703  10.757  0.6888  0.9420 -0.8362
17705TIP3    H274607   4.876   6.752  10.846  0.2433 -0.1921 -0.7581
17706TIP3   OH274608   6.312   0.000  14.166 -0.4401 -0.5267  0.3553
17706TIP3    H174609   6.375   0.067  14.140 -1.0202 -0.9583 -2.5301
17706TIP3    H274610   6.242   0.049  14.210 -1.5984  1.1655 -2.9991
17707TIP3   OH274611   6.831   3.403  11.293 -0.5988  0.2509  0.3645
17707TIP3    H174612   6.912   3.453  11.282 -1.0317  0.7180 -0.9632
17707TIP3    H274613   6.762   3.462  11.260 -1.2211 -0.8906 -0.4475
17708TIP3   OH274614   6.405   0.439  12.049 -0.2065 -0.2369 -0.2069
17708TIP3    H174615   6.498   0.460  12.053  0.1093 -1.7172  2.3058
17708TIP3    H274616   6.387   0.393  12.131 -3.4398  1.0691 -0.0263
17709TIP3   OH274617   4.905   4.251   1.478  0.3766  0.0997  0.0204
17709TIP3    H174618   4.884   4.196   1.553  0.6059 -0.7422 -0.5114
17709TIP3    H274619   4.833   4.314   1.473  0.1341 -0.1194  0.6716
17710TIP3   OH274620   1.012   6.421   3.355  0.3723 -0.5892  0.8670
17710TIP3    H174621   1.000   6.516   3.343 -1.4290 -0.8061  0.6648
17710TIP3    H274622   0.956   6.382   3.288 -0.2780 -1.7951  2.0715
17711TIP3   OH274623   0.311   1.862   4.831 -0.0680 -0.2562 -0.6466
17711TIP3    H174624   0.320   1.921   4.756 -1.1116  0.2044 -0.4187
17711TIP3    H274625   0.281   1.780   4.793 -4.9567  1.1609 -0.4254
17712TIP3   OH274626   3.839   1.814  11.686  0.1777 -0.1409 -0.2392
17712TIP3    H174627   3.904   1.773  11.629  1.2609  2.1779 -0.7899
17712TIP3    H274628   3.883   1.824  11.771 -0.1864 -0.3838 -0.0153
17713TIP3   OH274629   6.160   3.076  14.441 -0.2284 -0.1409 -0.2044
17713TIP3    H174630   6.124   2.987  14.448 -2.8252  0.6634 -1.6649
17713TIP3    H274631   6.195   3.080  14.352  2.8820 -0.6034  0.8971
17714TIP3   OH274632   1.422   4.871   5.002 -0.8404 -0.3587  0.0058
17714TIP3    H174633   1.481   4.812   5.049 -1.7242 -1.1620  0.1251
17714TIP3    H274634   1.338   4.863   5.047 -0.7680  1.7069  0.6094
17715TIP3   OH274635   6.388   4.222   5.786  0.2946  0.5453  0.2534
17715TIP3    H174636   6.326   4.295   5.789 -1.4232 -0.8462  0.4530
17715TIP3    H274637   6.382   4.181   5.872  0.5165 -0.3688 -0.1501
17716TIP3   OH274638   5.454   6.479  16.409  0.0376 -0.0706 -0.2205
17716TIP3    H174639   5.507   6.421  16.354  0.7458 -0.6218  1.0053
17716TIP3    H274640   5.502   6.562  16.408 -0.4601  0.2281 -1.1801
17717TIP3   OH274641   5.038   3.452  12.622  0.5213 -0.5149  0.6380
17717TIP3    H174642   4.948   3.459  12.591  0.7589 -0.8546 -0.1551
17717TIP3    H274643   5.035   3.485  12.712 -0.0693  1.0621  0.0690
17718TIP3   OH274644   4.589   5.967   3.653 -0.7638  0.1167 -0.6808
17718TIP3    H174645   4.672   6.010   3.633 -0.2033 -1.1736 -1.2076
17718TIP3    H274646   4.546   6.026   3.716  1.0159  0.2827  0.4378
17719TIP3   OH274647   4.535   5.501   6.588  0.3317  0.4647 -0.3664
17719TIP3    H174648   4.466   5.554   6.549 -1.0580 -1.1650 -0.2602
17719TIP3    H274649   4.504   5.411   6.578  2.5948 -0.3593 -0.5907
17720TIP3   OH274650   1.096   0.489   5.209  0.3348 -0.7067 -0.0596
17720TIP3    H174651   1.087   0.412   5.266 -0.7470 -0.3348  0.3031
17720TIP3    H274652   1.018   0.487   5.154 -0.3346  0.7705  0.7706
17721TIP3   OH274653   5.590   5.251  12.507 -0.2544 -0.6526 -0.1138
17721TIP3    H174654   5.612   5.256  12.600  1.4293  0.8140 -0.5477
17721TIP3    H274655   5.654   5.307  12.464 -3.2490  1.8003 -1.7988
17722TIP3   OH274656   4.698   2.325   0.437  0.3225  0.3490 -0.4692
17722TIP3    H174657   4.667   2.260   0.374  1.9848  1.2166 -2.2605
17722TIP3    H274658   4.793   2.311   0.440  0.4871  1.5598  0.4433
17723TIP3   OH274659   5.365   4.013  15.913  0.5740 -0.0818 -0.3889
17723TIP3    H174660   5.322   3.989  15.995 -0.6264 -1.1599 -1.2927
17723TIP3    H274661   5.331   4.100  15.893 -1.1456 -0.8498 -1.0024
17724TIP3   OH274662   3.057   1.040  11.756  0.0601  0.2244 -0.6622
17724TIP3    H174663   3.055   1.003  11.668 -0.0678 -0.9267 -0.1848
17724TIP3    H274664   3.148   1.032  11.784  0.0715  0.4539 -0.6274
17725TIP3   OH274665   1.456   0.007   3.131 -0.2515  0.6549 -0.1807
17725TIP3    H174666   1.497  -0.023   3.212 -0.2485 -0.6497 -0.6405
17725TIP3    H274667   1.363  -0.016   3.141 -0.4668  1.5242 -0.0891
17726TIP3   OH274668   1.651   3.441  11.232  0.0560 -0.2575 -0.1516
17726TIP3    H174669   1.696   3.384  11.294 -0.7741  1.0631  1.7831
17726TIP3    H274670   1.559   3.438  11.259 -0.3768  0.2074 -1.4740
17727TIP3   OH274671   1.488   1.604   1.339 -0.2070 -0.1240 -0.2321
17727TIP3    H174672   1.432   1.550   1.283 -0.0254  0.1003 -0.6318
17727TIP3    H274673   1.531   1.541   1.398 -0.3691 -0.3652 -0.3708
17728TIP3   OH274674   4.306   2.692   4.814 -0.3460  0.3066  0.6773
17728TIP3    H174675   4.300   2.611   4.764 -0.0434 -0.5668  2.0246
17728TIP3    H274676   4.238   2.748   4.776 -0.4270 -0.4814 -0.3998
17729TIP3   OH274677   5.953   2.102  13.865  0.3439  0.4765  0.2032
17729TIP3    H174678   5.999   2.186  13.867 -0.0315  0.7052  2.8089
17729TIP3    H274679   5.863   2.124  13.842  0.7843  0.4227 -1.6970
17730TIP3   OH274680   0.196   2.016   5.844 -0.6105 -0.2580 -0.1145
17730TIP3    H174681   0.286   1.987   5.854 -0.3838 -0.1776 -1.6752
17730TIP3    H274682   0.182   2.076   5.917  0.6842 -0.0721  0.0063
17731TIP3   OH274683   3.157   1.614   5.436  0.0091 -0.6706  0.6559
17731TIP3    H174684   3.189   1.650   5.353 -0.5164  0.5192  0.9571
17731TIP3    H274685   3.233   1.567   5.473  0.5464 -0.3217  0.0064
17732TIP3   OH274686   0.361   2.539   0.190  0.4080 -0.0587  0.1250
17732TIP3    H174687   0.294   2.503   0.247  0.9107 -0.1057  0.6984
17732TIP3    H274688   0.355   2.634   0.201  0.4128 -0.0613  0.1487
17733TIP3   OH274689   0.501   4.595  12.273 -0.2649 -1.0042  0.4378
17733TIP3    H174690   0.551   4.517  12.247  0.6178 -0.6735  1.1045
17733TIP3    H274691   0.478   4.579  12.365 -0.7376 -0.8153  0.3541
17734TIP3   OH274692   0.485   3.723  11.195  0.0786  0.3067 -0.4489
17734TIP3    H174693   0.542   3.772  11.136 -0.5287  1.8053  0.1664
17734TIP3    H274694   0.469   3.640  11.150  2.6890 -0.1690 -0.6650
17735TIP3   OH274695   0.423   5.761   2.752  0.3031 -0.0003 -0.3145
17735TIP3    H174696   0.399   5.673   2.725 -0.9336  0.4379 -0.7163
17735TIP3    H274697   0.479   5.793   2.681  1.2697 -0.6675  0.1304
17736TIP3   OH274698   1.484   1.456   4.241 -0.0688 -0.4778 -0.0361
17736TIP3    H174699   1.466   1.446   4.335 -1.1285 -1.7076 -0.3334
17736TIP3    H274700   1.536   1.378   4.219  1.0031  0.2912 -0.2970
17737TIP3   OH274701   5.855   5.250   4.308  0.2342 -0.5392  0.3255
17737TIP3    H174702   5.794   5.191   4.264  1.5228 -1.9599  0.3395
17737TIP3    H274703   5.873   5.318   4.243  0.0638 -1.1447 -0.3765
17738TIP3   OH274704   5.768   6.604  14.719 -0.6480 -0.3575  0.4323
17738TIP3    H174705   5.673   6.619  14.719 -0.7435 -0.1896 -2.6930
17738TIP3    H274706   5.806   6.687  14.746 -1.4204  0.8669 -1.9369
17739TIP3   OH274707   4.050   0.417  15.253 -0.1119  0.2762  0.2509
17739TIP3    H174708   4.114   0.420  15.325  1.5586 -0.8658 -1.1036
17739TIP3    H274709   4.005   0.334  15.265  1.5055 -0.8430 -1.0399
17740TIP3   OH274710   0.548   5.909  17.019  0.0615 -0.3689  0.1352
17740TIP3    H174711   0.542   5.854  17.097  0.3731 -2.1680 -1.0459
17740TIP3    H274712   0.541   5.998  17.052 -1.6490 -1.1207  2.0231
17741TIP3   OH274713   3.231   6.798   6.156  0.0023  0.3998 -0.1256
17741TIP3    H174714   3.271   6.805   6.069 -1.2129 -0.5158 -0.7896
17741TIP3    H274715   3.148   6.753   6.141  0.0504 -0.3570  1.6143
17742TIP3   OH274716   3.231   1.571  16.592 -0.1365  0.0998  0.3017
17742TIP3    H174717   3.189   1.592  16.509 -0.7346  0.2019  0.6243
17742TIP3    H274718   3.169   1.601  16.659  0.2541 -0.1451  0.7843
17743TIP3   OH274719   2.671   1.956   4.597 -0.2367  0.6269  0.0679
17743TIP3    H174720   2.761   1.930   4.615 -0.4110 -0.2009 -0.2023
17743TIP3    H274721   2.663   1.951   4.502 -0.6192  0.5126  0.1041
17744TIP3   OH274722   0.625   1.609  14.545 -0.3751  0.0225  1.1726
17744TIP3    H174723   0.588   1.680  14.493 -0.9499 -2.1304 -1.5917
17744TIP3    H274724   0.555   1.544  14.550  0.9263 -1.4174  1.3917
17745TIP3   OH274725   3.395   0.807   2.619  0.6117 -0.3145 -0.6516
17745TIP3    H174726   3.350   0.724   2.603 -0.5441  0.0231  0.5787
17745TIP3    H274727   3.348   0.845   2.694  1.0429  1.4971 -1.2448
17746TIP3   OH274728   6.014   6.577   3.464  0.8007  0.1805 -0.2548
17746TIP3    H174729   6.088   6.552   3.519  0.1642 -0.4272  0.3353
17746TIP3    H274730   5.947   6.605   3.526 -0.7629 -2.6666 -0.5403
17747TIP3   OH274731   3.800   4.289   2.008  0.0770  0.4070  0.1455
17747TIP3    H174732   3.754   4.292   2.092  0.4801  1.0717  0.3445
17747TIP3    H274733   3.810   4.381   1.982  0.9453  0.2527 -0.0903
17748TIP3   OH274734   1.755   2.665  15.074 -0.4826 -0.0000  0.1576
17748TIP3    H174735   1.703   2.591  15.045 -0.4096  0.0027  0.0194
17748TIP3    H274736   1.739   2.733  15.009 -2.0872  0.7931  1.3096
17749TIP3   OH274737   6.570   1.843  16.540  0.3488  0.6994 -0.5276
17749TIP3    H174738   6.544   1.935  16.534 -2.1309  0.0380 -1.0968
17749TIP3    H274739   6.500   1.796  16.495  1.7546 -1.4514 -0.5806
17750TIP3   OH274740   1.222   2.504  13.311  0.2635 -0.6989 -0.2161
17750TIP3    H174741   1.268   2.509  13.227 -1.0052  0.7408 -0.8822
17750TIP3    H274742   1.286   2.535  13.375  0.7762 -0.3752 -0.8704
17751TIP3   OH274743   6.593   4.722   1.766  0.9245 -0.0662 -0.4433
17751TIP3    H174744   6.604   4.809   1.804  2.7917 -1.1146  1.6040
17751TIP3    H274745   6.622   4.732   1.675  2.3990  1.1801  0.1287
17752TIP3   OH274746   2.290   1.678  15.854 -0.1006 -0.1261 -0.1557
17752TIP3    H174747   2.380   1.644  15.850  0.2276  0.6371  0.4581
17752TIP3    H274748   2.299   1.772  15.837 -0.8493 -0.1278 -0.6096
17753TIP3   OH274749   1.869   0.933  15.451  0.2434 -0.2107 -0.1138
17753TIP3    H174750   1.816   0.992  15.397 -0.7436 -0.5352  0.4688
17753TIP3    H274751   1.884   0.857  15.395  0.1120 -0.1130 -0.2836
17754TIP3   OH274752   3.952   3.538   3.938 -0.0142  0.3743 -0.0956
17754TIP3    H174753   4.004   3.575   3.866 -0.0910  0.6719  0.0014
17754TIP3    H274754   3.861   3.548   3.910 -0.0207 -1.4801 -0.9328
17755TIP3   OH274755   0.256   1.828   1.404  0.3496  0.3304  0.7317
17755TIP3    H174756   0.289   1.829   1.494  0.4821  0.0116  0.6858
17755TIP3    H274757   0.214   1.743   1.394 -1.4576  1.1149  1.1355
17756TIP3   OH274758   0.793   5.170  12.275  0.0505  0.2741  0.6759
17756TIP3    H174759   0.824   5.092  12.321 -1.5403 -1.3676 -0.8779
17756TIP3    H274760   0.705   5.185  12.311  0.1351  1.0636  0.5839
17757TIP3   OH274761   2.596   3.273  12.562  0.1529  0.1721  0.1421
17757TIP3    H174762   2.558   3.234  12.484 -0.3366 -0.9174  0.8974
17757TIP3    H274763   2.577   3.366  12.555  0.3234  0.1189 -1.1429
17758TIP3   OH274764   3.121   6.191   2.880  0.9406  0.3918  0.0169
17758TIP3    H174765   3.150   6.262   2.823  0.5485  3.3419  3.1765
17758TIP3    H274766   3.030   6.212   2.902  0.4710 -1.6648  0.3010
17759TIP3   OH274767   0.610   0.796  10.961  0.3941 -0.5777 -0.1828
17759TIP3    H174768   0.651   0.879  10.938 -1.1828  0.8800  1.9186
17759TIP3    H274769   0.517   0.807  10.937 -0.1768 -1.0348  1.6698
17760TIP3   OH274770   0.896   4.339  12.779  0.1668 -0.3393 -0.2641
17760TIP3    H174771   0.898   4.269  12.844  0.6574 -1.0732 -1.0378
17760TIP3    H274772   0.805   4.341  12.750 -0.4298  1.0853  1.5538
17761TIP3   OH274773   0.207   0.374   3.226 -0.1158 -0.4252  0.2626
17761TIP3    H174774   0.242   0.463   3.227 -0.5536 -0.2484  0.5916
17761TIP3    H274775   0.187   0.356   3.134 -1.7692  0.5314  0.3874
17762TIP3   OH274776   4.319   6.250  12.842 -1.1661 -0.1363 -0.3765
17762TIP3    H174777   4.270   6.331  12.827  0.3642  0.7453 -0.8635
17762TIP3    H274778   4.363   6.232  12.759  0.1191 -0.3113  0.3028
17763TIP3   OH274779   4.881   2.602  11.810  0.1318 -0.0243  0.6699
17763TIP3    H174780   4.794   2.589  11.847 -0.4360 -2.6535 -1.3242
17763TIP3    H274781   4.866   2.641  11.724  0.9471 -0.0233  0.5150
17764TIP3   OH274782   4.619   5.165   2.330  0.8585 -0.0209  0.2132
17764TIP3    H174783   4.682   5.163   2.258  0.5496 -0.3754 -0.0443
17764TIP3    H274784   4.586   5.255   2.330 -0.3863 -0.4353 -1.1672
17765TIP3   OH274785   6.103   5.442  15.896 -0.2049  0.1073 -0.3154
17765TIP3    H174786   6.153   5.388  15.834  0.5506 -0.3970  0.7128
17765TIP3    H274787   6.070   5.515  15.843 -0.4484 -0.8561 -1.5297
17766TIP3   OH274788   3.932   0.711   2.534 -0.3149  0.3356 -0.3559
17766TIP3    H174789   3.931   0.620   2.564 -0.4135  0.0354 -1.2235
17766TIP3    H274790   3.877   0.758   2.596 -0.3885 -0.2301  0.0087
17767TIP3   OH274791   2.459   1.883  14.327  0.1788 -0.1969 -0.0831
17767TIP3    H174792   2.373   1.862  14.292 -0.3814 -0.0729  1.1660
17767TIP3    H274793   2.519   1.823  14.282 -0.7864 -1.3866  0.1736
17768TIP3   OH274794   5.304   6.194   3.596  0.8747  0.1063 -0.1623
17768TIP3    H174795   5.342   6.246   3.667  0.0185 -0.0709  0.4500
17768TIP3    H274796   5.228   6.151   3.636  0.6785 -0.4091 -1.0548
17769TIP3   OH274797   0.465   5.182   1.973 -0.3961 -0.1322 -0.0959
17769TIP3    H174798   0.408   5.129   1.918 -0.2365 -0.2967 -0.1047
17769TIP3    H274799   0.426   5.269   1.971 -0.1417 -0.0282 -0.8361
17770TIP3   OH274800   6.034   3.286   1.895  0.0866 -0.2972  0.7192
17770TIP3    H174801   6.031   3.359   1.833 -0.0376  0.0879  1.1752
17770TIP3    H274802   5.966   3.306   1.960  1.6350  0.4424  2.2091
17771TIP3   OH274803   1.615   0.706   4.343 -0.3931 -0.1687  0.1939
17771TIP3    H174804   1.663   0.656   4.410 -2.6541  0.2921  2.2871
17771TIP3    H274805   1.677   0.772   4.313  1.3782 -1.7304  0.2030
17772TIP3   OH274806   0.719   5.347  11.683 -0.3400  0.4842  0.0745
17772TIP3    H174807   0.700   5.261  11.720  1.0478 -0.6133 -1.6249
17772TIP3    H274808   0.789   5.382  11.738 -3.3426  2.3057  3.1357
17773TIP3   OH274809   5.081   1.593   2.716  0.0660 -0.1614  0.1896
17773TIP3    H174810   5.169   1.620   2.691  0.0374 -1.1880 -1.1351
17773TIP3    H274811   5.051   1.539   2.643 -0.5934 -2.1589  1.8400
17774TIP3   OH274812   5.392   5.610  15.771 -0.1092  0.2296  0.0071
17774TIP3    H174813   5.461   5.651  15.719 -1.3768  0.8171 -1.2695
17774TIP3    H274814   5.353   5.545  15.713  0.1161 -0.9437  1.1139
17775TIP3   OH274815   6.400   6.819   3.519 -0.0415  0.1615 -0.0961
17775TIP3    H174816   6.358   6.744   3.561 -0.2998 -0.3732 -1.2572
17775TIP3    H274817   6.472   6.780   3.468  0.8572  0.8908  0.5758
17776TIP3   OH274818   6.756   0.867  11.366  0.2590 -0.1848  0.0060
17776TIP3    H174819   6.728   0.954  11.393 -0.6830 -0.5346  0.1970
17776TIP3    H274820   6.851   0.875  11.352  0.3304  0.6447  0.8754
17777TIP3   OH274821   3.111   0.907   3.668  0.6903  0.0716  0.3268
17777TIP3    H174822   3.196   0.881   3.704  0.7292 -1.0131 -0.4771
17777TIP3    H274823   3.104   1.000   3.687  2.2211  0.2617  0.1056
17778TIP3   OH274824   6.400   5.793   3.642  0.1485 -0.2337  0.3997
17778TIP3    H174825   6.405   5.801   3.737 -0.4102 -1.5062  0.5539
17778TIP3    H274826   6.319   5.746   3.626  1.2016 -1.7943 -0.5953
17779TIP3   OH274827   3.048   5.447   2.124 -0.2831  0.9396  0.0331
17779TIP3    H174828   3.041   5.423   2.031 -0.8954  0.2633  0.2491
17779TIP3    H274829   3.055   5.542   2.123 -0.8297  0.9827 -0.6889
17780TIP3   OH274830   1.061   5.938   3.949 -0.4845  0.7126 -0.5100
17780TIP3    H174831   1.101   5.867   3.898 -0.3921  0.4597 -0.0948
17780TIP3    H274832   1.045   6.007   3.886  0.8124  0.9028 -0.6618
17781TIP3   OH274833   3.792   2.484  11.805  0.0482 -0.0035  0.3180
17781TIP3    H174834   3.813   2.564  11.757 -0.3772 -1.1978 -1.9786
17781TIP3    H274835   3.716   2.447  11.759 -0.3680 -1.2535  1.9025
17782TIP3   OH274836   1.814   2.676   1.710 -0.0079  0.3270  0.0558
17782TIP3    H174837   1.896   2.708   1.675 -0.5897  1.0048 -0.7226
17782TIP3    H274838   1.838   2.628   1.790  1.1587  0.1988 -0.3677
17783TIP3   OH274839   2.059   6.235  12.423  0.1726  0.5413  0.1513
17783TIP3    H174840   2.014   6.246  12.507 -1.4568  2.4783 -0.8745
17783TIP3    H274841   1.998   6.269  12.358  1.5258 -0.5500 -1.8231
17784TIP3   OH274842   5.745   5.740   1.960 -0.1252 -0.2099  0.6753
17784TIP3    H174843   5.654   5.713   1.963 -0.2407  0.1504  3.5869
17784TIP3    H274844   5.746   5.815   1.901 -1.5943 -0.5878  0.1410
17785TIP3   OH274845   2.269   4.273   2.209  0.0904 -0.1778  0.1282
17785TIP3    H174846   2.341   4.216   2.237  0.7649  0.8980  0.6954
17785TIP3    H274847   2.272   4.271   2.114  0.1089 -1.0695  0.1403
17786TIP3   OH274848   4.808   0.430   5.707  0.4554 -0.0312 -0.3797
17786TIP3    H174849   4.738   0.385   5.755  0.3175 -1.8626 -2.1357
17786TIP3    H274850   4.770   0.513   5.680  0.7310  1.3409  3.0501
17787TIP3   OH274851   0.925   4.841   2.805 -0.2423  0.0429  0.1608
17787TIP3    H174852   0.876   4.921   2.822  1.1116  1.1618 -0.9330
17787TIP3    H274853   0.924   4.831   2.710  1.5981  0.1186  0.0855
17788TIP3   OH274854   4.038   6.332   4.754  0.7700 -0.8038 -0.1177
17788TIP3    H174855   4.021   6.252   4.704  1.9681 -0.4232 -1.1791
17788TIP3    H274856   4.056   6.399   4.688  0.8547  0.0896  0.7823
17789TIP3   OH274857   0.989   6.263  16.527  0.2279  0.0360 -0.4911
17789TIP3    H174858   0.948   6.277  16.612 -0.0296 -1.3290 -0.3593
17789TIP3    H274859   1.046   6.338  16.515  1.0340 -0.2316  1.3433
17790TIP3   OH274860   5.191   5.400  13.332 -0.0277 -0.7694  0.7158
17790TIP3    H174861   5.225   5.311  13.335  0.2943 -0.6375  1.1470
17790TIP3    H274862   5.096   5.390  13.341 -0.1902 -1.1844 -1.1627
17791TIP3   OH274863   1.968   1.347   4.996  0.3884  0.0976 -0.1699
17791TIP3    H174864   2.025   1.279   5.033  0.6555  0.1142 -0.5504
17791TIP3    H274865   1.963   1.414   5.065  1.0662  0.2328 -0.2450
17792TIP3   OH274866   0.432   3.577   5.222  0.1182 -0.3575 -0.0746
17792TIP3    H174867   0.509   3.620   5.187 -1.7525  3.3110 -0.1357
17792TIP3    H274868   0.430   3.602   5.315 -0.2296 -1.6861  0.2989
17793TIP3   OH274869   5.125   5.318   4.933  1.0081  0.7075 -0.4120
17793TIP3    H174870   5.162   5.336   4.846  0.6654 -0.1341 -0.7423
17793TIP3    H274871   5.150   5.228   4.952  1.8032  1.1565  0.7496
17794TIP3   OH274872   3.571   4.128   3.625 -0.6389  0.1019 -0.0461
17794TIP3    H174873   3.579   4.062   3.555  1.3138  1.6976 -1.4465
17794TIP3    H274874   3.527   4.201   3.583 -1.6457  0.2038  1.1391
17795TIP3   OH274875   3.872   2.742   5.566 -0.4845 -0.6688  0.3348
17795TIP3    H174876   3.875   2.723   5.660  0.1031 -2.8781 -0.0561
17795TIP3    H274877   3.798   2.689   5.534  0.3882 -1.3042 -0.6818
17796TIP3   OH274878   4.750   3.601  17.030 -0.4648 -0.1155  0.1793
17796TIP3    H174879   4.735   3.649  16.949 -0.5763  0.3629  0.4753
17796TIP3    H274880   4.683   3.634  17.090  0.8258  1.0050  1.0776
17797TIP3   OH274881   6.281   1.784  13.041 -0.0814  0.0070  0.1133
17797TIP3    H174882   6.250   1.730  13.114  1.8444 -0.3817  0.7077
17797TIP3    H274883   6.279   1.874  13.075 -0.4562 -0.0292  0.1824
17798TIP3   OH274884   2.019   3.253   4.586 -0.1523  0.2612  0.3006
17798TIP3    H174885   2.106   3.249   4.545 -0.1862 -1.0842  0.3265
17798TIP3    H274886   2.021   3.333   4.638  0.1133  1.7208 -1.8302
17799TIP3   OH274887   5.029   3.088  13.805  0.3840 -0.1917  0.1244
17799TIP3    H174888   5.090   3.065  13.874 -1.1685 -0.7118  1.3696
17799TIP3    H274889   4.945   3.053  13.833 -0.8302  1.7523 -0.8084
17800TIP3   OH274890   3.437   6.812  12.010 -0.2540 -0.7087 -0.0368
17800TIP3    H174891   3.506   6.777  11.954 -1.0942 -1.2273 -0.7768
17800TIP3    H274892   3.357   6.805  11.957 -0.7561  0.6152  0.4945
17801TIP3   OH274893   1.900   3.832  15.020 -0.0841  0.5818  0.3787
17801TIP3    H174894   1.835   3.870  15.079 -1.1033 -0.2831 -0.1554
17801TIP3    H274895   1.853   3.819  14.937  1.2620  1.5999 -0.5879
17802TIP3   OH274896   4.411   1.037   5.898 -0.2358 -0.2489  0.2140
17802TIP3    H174897   4.505   1.053   5.906 -0.2911 -0.6537  2.1482
17802TIP3    H274898   4.370   1.115   5.934 -0.5987 -0.8319  1.1027
17803TIP3   OH274899   2.167   0.525  11.833 -0.5228 -0.8753  0.1267
17803TIP3    H174900   2.073   0.534  11.843 -0.8114 -2.8018 -0.3631
17803TIP3    H274901   2.190   0.447  11.883  0.8592 -0.3253  0.4162
17804TIP3   OH274902   2.017   3.753   5.930 -0.2292  0.2748  0.3001
17804TIP3    H174903   2.023   3.756   6.026  0.7129  0.4263  0.2517
17804TIP3    H274904   1.941   3.807   5.909 -0.1705  0.6266  0.9492
17805TIP3   OH274905   1.557   3.039  11.191 -1.0446  0.6968  0.0412
17805TIP3    H174906   1.553   3.065  11.283 -1.0164 -2.9434  1.2261
17805TIP3    H274907   1.651   3.042  11.170 -0.8294 -0.3491  0.7908
17806TIP3   OH274908   5.242   3.435   4.592  0.5109  0.0285  0.4387
17806TIP3    H174909   5.173   3.430   4.658  0.4169 -0.9788  0.2706
17806TIP3    H274910   5.249   3.528   4.572  0.2977  0.3168  1.6138
17807TIP3   OH274911   1.022   1.986   6.490 -0.5657  0.0405  0.4074
17807TIP3    H174912   1.056   2.052   6.429 -2.0563 -2.0547 -3.0301
17807TIP3    H274913   0.955   2.032   6.540 -1.4212  1.2620 -1.7445
17808TIP3   OH274914   1.633   5.841   4.182 -0.1220  0.3913 -0.1621
17808TIP3    H174915   1.557   5.853   4.239  0.3411 -0.5643  0.6797
17808TIP3    H274916   1.707   5.834   4.242  0.4505 -0.0892 -0.9089
17809TIP3   OH274917   5.232   4.372   0.514  0.0425  0.6676 -0.5652
17809TIP3    H174918   5.269   4.362   0.602  2.3429 -1.1670 -1.6199
17809TIP3    H274919   5.309   4.375   0.456 -1.3110 -3.2100 -2.9248
17810TIP3   OH274920   1.125   3.620  16.388  0.3094  0.4262  0.3062
17810TIP3    H174921   1.103   3.563  16.314  0.2115  0.0377  0.6278
17810TIP3    H274922   1.087   3.576  16.464 -0.0976  1.1206  0.5130
17811TIP3   OH274923   0.393   2.908  16.158 -0.1529 -0.0839  0.3725
17811TIP3    H174924   0.462   2.845  16.177 -0.1168 -0.0815  0.2463
17811TIP3    H274925   0.438   2.992  16.149 -0.1931 -0.0509  0.4691
17812TIP3   OH274926   0.009   6.766  16.208 -0.6953 -0.1035  0.2134
17812TIP3    H174927  -0.039   6.829  16.262 -0.7540 -1.2912  1.6044
17812TIP3    H274928   0.081   6.737  16.264  0.0618 -0.3576 -0.8635
17813TIP3   OH274929   6.765   1.655   2.298  0.0635 -0.6905 -0.1466
17813TIP3    H174930   6.675   1.625   2.314 -0.8532  0.7425 -2.1826
17813TIP3    H274931   6.800   1.594   2.233  0.9109 -1.7225  1.2167
17814TIP3   OH274932   0.296   6.499   5.177 -0.3272 -0.0123  0.5439
17814TIP3    H174933   0.331   6.423   5.130  0.2298  0.3407  0.3758
17814TIP3    H274934   0.312   6.572   5.118  0.7415  0.5002  1.4231
17815TIP3   OH274935   5.964   0.124   5.449  0.2105  0.6215  0.0635
17815TIP3    H174936   6.013   0.203   5.429  0.4708  0.0525 -1.7329
17815TIP3    H274937   5.910   0.147   5.524  1.3661  2.0348  0.4915
17816TIP3   OH274938   3.449   5.134   2.181 -0.3250 -0.5174 -0.1227
17816TIP3    H174939   3.382   5.160   2.117 -1.4681 -1.2128  0.7658
17816TIP3    H274940   3.461   5.040   2.167 -0.5852 -0.6753  0.6867
17817TIP3   OH274941   0.732   1.038  14.351  0.0985 -0.5513  0.5563
17817TIP3    H174942   0.739   1.132  14.367 -1.1849 -0.3809  0.1899
17817TIP3    H274943   0.789   1.023  14.275 -1.3466  0.3410 -0.7635
17818TIP3   OH274944   6.333   1.075   6.797  0.0024 -0.4601 -0.0812
17818TIP3    H174945   6.251   1.111   6.765  0.6086  1.2336  0.1575
17818TIP3    H274946   6.400   1.136   6.765  1.2786 -2.1886 -0.9301
17819TIP3   OH274947   5.675   3.637  15.447 -0.5555  0.0582 -0.4841
17819TIP3    H174948   5.589   3.595  15.459 -0.0095 -0.8311  0.5542
17819TIP3    H274949   5.707   3.602  15.364 -0.6564 -0.6113 -0.2495
17820TIP3   OH274950   4.929   1.913   4.009  0.3825  0.4002 -0.5231
17820TIP3    H174951   4.975   1.992   4.038 -0.5104  1.8787 -2.8719
17820TIP3    H274952   4.837   1.939   4.002 -0.0354 -1.0336 -0.8213
17821TIP3   OH274953   3.120   3.701  11.212 -0.2538 -0.4887 -0.5736
17821TIP3    H174954   3.055   3.757  11.255  0.4834 -1.2098  1.5993
17821TIP3    H274955   3.136   3.631  11.275  2.8952 -0.1689 -0.8784
17822TIP3   OH274956   3.656   6.459   2.718 -0.1203 -0.0910  0.1315
17822TIP3    H174957   3.662   6.483   2.626  0.5659 -0.8324 -0.0291
17822TIP3    H274958   3.631   6.540   2.762 -0.2167  0.3267 -0.6769
17823TIP3   OH274959   2.381   0.828  13.089  0.5494  0.5043  0.1667
17823TIP3    H174960   2.317   0.765  13.123  0.3190  0.3463 -0.5543
17823TIP3    H274961   2.328   0.896  13.048  0.8362  0.0036 -1.0867
17824TIP3   OH274962   0.941   2.317   2.634  0.3569 -0.1785  0.0684
17824TIP3    H174963   1.030   2.287   2.653  0.3014  0.0404  0.6949
17824TIP3    H274964   0.952   2.404   2.598  0.4498 -0.5099 -0.7188
17825TIP3   OH274965   1.767   2.946   6.027  0.4495 -0.5163 -0.9666
17825TIP3    H174966   1.738   2.881   6.091  1.6064  0.5475  0.7569
17825TIP3    H274967   1.714   2.930   5.949 -1.5330 -1.4471  0.4881
17826TIP3   OH274968   2.561   6.200   0.665  0.6047 -0.8048  0.2480
17826TIP3    H174969   2.589   6.193   0.574  1.3452 -2.3415  0.5493
17826TIP3    H274970   2.642   6.221   0.713  0.1150  0.6063  0.5135
17827TIP3   OH274971   6.400   5.114  14.771 -0.6122 -0.4878 -0.3293
17827TIP3    H174972   6.341   5.184  14.744  0.2418 -0.6171 -2.7278
17827TIP3    H274973   6.424   5.070  14.690  1.7655 -1.2561  0.7077
17828TIP3   OH274974   0.931   6.277   3.101  0.5277 -0.5348 -0.4885
17828TIP3    H174975   0.911   6.222   3.177 -0.1227  0.6549  0.2323
17828TIP3    H274976   1.025   6.265   3.088  1.2521  1.2406  2.2090
17829TIP3   OH274977   4.274   0.817   5.475  0.4704 -0.2440 -0.5198
17829TIP3    H174978   4.338   0.851   5.538  0.3679  0.4975 -0.8029
17829TIP3    H274979   4.294   0.864   5.394 -2.6523  2.7174  0.2190
17830TIP3   OH274980   5.074   0.107  16.181  0.1314  0.4107  0.4877
17830TIP3    H174981   5.053   0.067  16.097 -0.9612  0.1428  0.8754
17830TIP3    H274982   4.994   0.152  16.207  0.6112  0.8984  1.1634
17831TIP3   OH274983   3.012   5.033  15.614 -0.3409  0.7227  0.5317
17831TIP3    H174984   2.951   4.963  15.595  0.1045  0.4124  0.2202
17831TIP3    H274985   3.097   4.990  15.621 -0.0530  1.2378  0.2615
17832TIP3   OH274986   5.542   5.507  16.785 -0.3213  0.3196  0.2631
17832TIP3    H174987   5.482   5.582  16.776 -0.8717 -0.2209 -0.6497
17832TIP3    H274988   5.583   5.521  16.870 -1.5997  0.8109  0.8311
17833TIP3   OH274989   5.930   6.642  12.828  0.0750  0.0790  0.1471
17833TIP3    H174990   5.909   6.607  12.742  0.1758 -1.4740  0.7129
17833TIP3    H274991   5.886   6.583  12.889  0.6266  0.7022  1.1843
17834TIP3   OH274992   0.678   3.642  14.025 -0.2243  0.1411 -0.3789
17834TIP3    H174993   0.623   3.712  14.059 -1.6897 -1.2816  0.3037
17834TIP3    H274994   0.624   3.563  14.032  1.7168 -1.2382 -0.1711
17835TIP3   OH274995   2.327   3.007   5.374  0.3241 -0.1438 -0.5657
17835TIP3    H174996   2.366   3.001   5.461  1.8980  0.2887 -1.1909
17835TIP3    H274997   2.233   3.000   5.388  0.5669 -0.2850  1.1368
17836TIP3   OH274998   0.934   4.503  11.389  0.1773  0.2708  0.4689
17836TIP3    H174999   0.990   4.580  11.385  0.5135  0.0207  0.3514
17836TIP3    H275000   0.922   4.477  11.297  1.4349 -0.7968  0.5641
17837TIP3   OH275001   3.967   3.665   0.347  0.6377 -0.3953  0.6392
17837TIP3    H175002   4.037   3.602   0.368  1.0101 -0.1519  0.1645
17837TIP3    H275003   3.903   3.655   0.417  0.3918 -1.7534  0.2490
17838TIP3   OH275004   2.898   1.336  12.623  0.1146 -0.0727 -0.1300
17838TIP3    H175005   2.885   1.335  12.528 -3.0467 -1.9505  0.1702
17838TIP3    H275006   2.906   1.243  12.646  2.3058  0.4133  1.3590
17839TIP3   OH275007   1.005   4.794  16.379  0.4646  0.2945 -0.0102
17839TIP3    H175008   1.009   4.719  16.437  3.1739  0.4132  0.0758
17839TIP3    H275009   0.915   4.827  16.387 -0.3970 -2.1088  0.9310
17840TIP3   OH275010   6.499   4.390  16.166 -0.2669  0.0517 -0.1599
17840TIP3    H175011   6.505   4.378  16.072 -0.9577  1.0546 -0.3395
17840TIP3    H275012   6.548   4.316  16.203  2.3016  1.0608 -1.3359
17841TIP3   OH275013   6.301   2.745   3.292 -0.5487  0.3296 -0.3075
17841TIP3    H175014   6.246   2.774   3.365  1.4698  1.5945  0.8064
17841TIP3    H275015   6.334   2.659   3.320 -0.9192  0.1562 -0.3964
17842TIP3   OH275016   0.939   0.721  14.672  0.3954  0.0914  0.2383
17842TIP3    H175017   0.852   0.681  14.674  0.3346  0.1120 -1.0897
17842TIP3    H275018   0.964   0.720  14.579  1.0194  1.8001  0.3539
17843TIP3   OH275019   5.268   5.484   4.743 -0.4768 -0.1756 -0.1676
17843TIP3    H175020   5.278   5.525   4.657 -0.2254 -4.0472 -2.2195
17843TIP3    H275021   5.324   5.407   4.739 -0.1050 -0.3118  3.7305
17844TIP3   OH275022   0.743   4.880   3.410 -0.1524 -0.5112 -0.2876
17844TIP3    H175023   0.656   4.892   3.370 -0.1802 -1.2043 -0.4420
17844TIP3    H275024   0.766   4.789   3.391  1.9343  0.4184 -2.8634
17845TIP3   OH275025   3.903   0.721  12.107 -0.1189 -0.0234  0.4820
17845TIP3    H175026   3.948   0.744  12.026  0.0884 -0.4906  0.4617
17845TIP3    H275027   3.812   0.709  12.081 -0.1019  0.0969  0.3663
17846TIP3   OH275028   4.280   2.638  16.733 -0.1419  0.5788  0.2253
17846TIP3    H175029   4.341   2.713  16.738  0.3529  0.2837 -1.0774
17846TIP3    H275030   4.263   2.616  16.825  0.9917  1.2576  0.6267
17847TIP3   OH275031   5.457   3.423   4.848  0.5606 -0.6459 -0.0034
17847TIP3    H175032   5.410   3.447   4.928  0.0222  1.2869 -0.8309
17847TIP3    H275033   5.516   3.352   4.875  1.3285  0.7861  2.4320
17848TIP3   OH275034   1.667   2.088  16.097 -0.3331 -0.1237  0.2547
17848TIP3    H175035   1.758   2.117  16.107 -0.8096  1.1346  1.1801
17848TIP3    H275036   1.669   2.031  16.019  1.8097 -2.7251  2.0270
17849TIP3   OH275037   0.959   6.286  11.146 -0.3073  0.3699 -0.2286
17849TIP3    H175038   1.048   6.253  11.157 -0.4869  0.0416  0.2874
17849TIP3    H275039   0.970   6.374  11.108  0.2275  0.2875 -0.2635
17850TIP3   OH275040   1.865   1.324   5.768 -0.3026  0.0686 -0.0703
17850TIP3    H175041   1.930   1.275   5.719 -0.2391  0.6006 -0.5276
17850TIP3    H275042   1.857   1.407   5.721  1.4609  1.5720  2.1119
17851TIP3   OH275043   2.064   2.926  16.479 -0.3013 -0.4645  0.1195
17851TIP3    H175044   1.989   2.866  16.477  0.2698 -1.1835 -0.4551
17851TIP3    H275045   2.124   2.891  16.412  0.3370  0.3676  0.2428
17852TIP3   OH275046   6.180   4.647  15.636 -0.3498  0.1674 -0.0025
17852TIP3    H175047   6.235   4.620  15.563 -0.3419  0.0687  0.0393
17852TIP3    H275048   6.241   4.670  15.705 -0.2686  2.5817 -0.8002
17853TIP3   OH275049   4.991   5.272  11.557  0.0427  0.2121  0.2505
17853TIP3    H175050   4.950   5.191  11.589  0.2411 -0.3918 -0.9471
17853TIP3    H275051   5.013   5.321  11.636 -1.7005 -0.0907  0.9565
17854TIP3   OH275052   1.652   4.874  14.074  0.1236 -0.1517  0.8646
17854TIP3    H175053   1.562   4.893  14.101  0.2234 -0.4241  1.4224
17854TIP3    H275054   1.650   4.876  13.979 -0.5428 -0.4597  0.8648
17855TIP3   OH275055   0.598   5.762   3.701  0.3098  0.0422  0.2132
17855TIP3    H175056   0.515   5.719   3.681 -0.6087  1.3365  1.0784
17855TIP3    H275057   0.605   5.832   3.636 -0.4594  1.4117  1.5609
17856TIP3   OH275058   6.469   4.108   3.884  0.5501  0.2521 -0.0879
17856TIP3    H175059   6.521   4.153   3.816  2.1227  0.4535  1.1763
17856TIP3    H275060   6.466   4.017   3.855  0.1135  0.5603 -1.0510
17857TIP3   OH275061   5.324   3.643  10.660  0.1114 -0.5658  0.1658
17857TIP3    H175062   5.302   3.668  10.750  0.0213 -0.7331  0.1924
17857TIP3    H275063   5.385   3.570  10.670 -0.0020 -0.6731  0.0943
17858TIP3   OH275064   4.011   5.751   0.212  0.1426  0.2361  0.2076
17858TIP3    H175065   4.104   5.736   0.192  0.0686  0.2289 -0.1368
17858TIP3    H275066   4.009   5.835   0.257 -0.0687  2.1438 -3.0646
17859TIP3   OH275067   3.010   3.370  16.375 -0.1725  0.5344 -0.2131
17859TIP3    H175068   3.080   3.343  16.315  1.6829  1.5146  1.3880
17859TIP3    H275069   2.943   3.407  16.318  0.3030 -0.9848 -1.8658
17860TIP3   OH275070   6.835   3.938   2.838  0.4130  0.3620 -0.6982
17860TIP3    H175071   6.771   3.919   2.906 -0.5388  0.9848 -1.3806
17860TIP3    H275072   6.818   3.872   2.770  1.7443 -0.6262 -0.1120
17861TIP3   OH275073   5.249   6.076   2.995 -0.0561 -0.0305  0.7071
17861TIP3    H175074   5.259   6.023   3.074  0.7163 -0.7628  0.1219
17861TIP3    H275075   5.155   6.097   2.992 -0.0958 -0.0044  1.8037
17862TIP3   OH275076   2.541   5.376   3.810 -0.5513 -0.4845  0.2944
17862TIP3    H175077   2.519   5.341   3.724  0.7812  0.4899 -0.4730
17862TIP3    H275078   2.456   5.386   3.854 -1.2162 -1.4083 -0.7263
17863TIP3   OH275079   0.063   0.873   2.076  0.5296 -0.5950  0.1124
17863TIP3    H175080   0.094   0.801   2.130  0.8189 -0.7803 -0.2970
17863TIP3    H275081   0.019   0.932   2.137  2.1834 -0.0349  0.8214
17864TIP3   OH275082   5.488   3.276  15.396 -0.2642  0.1336  0.5327
17864TIP3    H175083   5.430   3.350  15.377 -0.3475 -0.4110 -1.6114
17864TIP3    H275084   5.428   3.205  15.418 -0.3160  0.0875  0.2501
17865TIP3   OH275085   2.136   2.894   4.003  0.3259 -0.2282 -0.0254
17865TIP3    H175086   2.090   2.812   3.982  2.1398 -1.5012  0.7274
17865TIP3    H275087   2.189   2.872   4.079 -0.3571  2.1398  1.2218
17866TIP3   OH275088   1.405   5.433   0.325 -0.0342 -0.0685  0.4277
17866TIP3    H175089   1.399   5.509   0.384 -0.4617 -0.6998  1.2248
17866TIP3    H275090   1.315   5.401   0.319  0.1353 -0.4816  0.0471
17867TIP3   OH275091   6.300   2.278  16.574 -0.3193 -0.0164 -0.6413
17867TIP3    H175092   6.315   2.345  16.640 -1.7962  1.1592 -1.4469
17867TIP3    H275093   6.287   2.197  16.625  3.4232 -0.2385  0.2872
17868TIP3   OH275094   2.951   6.727   4.318 -0.5125  0.0209 -0.4412
17868TIP3    H175095   3.024   6.681   4.277 -0.6735  1.1034 -2.0242
17868TIP3    H275096   2.980   6.743   4.408  1.0241  0.0798 -0.9158
17869TIP3   OH275097   0.928   6.084  13.407  0.2071  0.2663 -0.3050
17869TIP3    H175098   0.975   6.115  13.485 -1.2513 -1.6073  1.4256
17869TIP3    H275099   0.955   5.992  13.399  0.3585  0.4385 -2.0702
17870TIP3   OH275100   1.555   5.467   1.105 -0.0551  0.0463 -0.1377
17870TIP3    H175101   1.525   5.454   1.195  2.2058  0.3429  0.7091
17870TIP3    H275102   1.541   5.383   1.062  1.1759 -0.8977  1.2341
17871TIP3   OH275103   1.456   3.756  12.598  0.0064  0.6430 -0.1776
17871TIP3    H175104   1.455   3.713  12.684  0.0515 -0.2497 -0.6189
17871TIP3    H275105   1.369   3.739  12.562  0.5584 -0.4781 -1.0303
17872TIP3   OH275106   3.046   1.559   3.500  0.1306 -0.5613 -0.1844
17872TIP3    H175107   2.978   1.614   3.539 -0.1174 -1.0400  0.0811
17872TIP3    H275108   3.105   1.539   3.573  0.4300 -0.3431 -0.3618
17873TIP3   OH275109   1.383   2.106   0.241 -0.4565  0.3321 -0.5742
17873TIP3    H175110   1.455   2.146   0.193  1.7991 -0.6750  1.6925
17873TIP3    H275111   1.425   2.040   0.296 -2.9753  0.4398  1.7042
17874TIP3   OH275112   3.371   2.652   4.330 -0.5597  0.3503 -0.0500
17874TIP3    H175113   3.372   2.747   4.315  3.0868  0.6699  1.2080
17874TIP3    H275114   3.318   2.642   4.409 -0.6499  1.3972  0.0445
17875TIP3   OH275115   2.485   3.665   0.383  0.1702 -0.1164  0.1287
17875TIP3    H175116   2.400   3.688   0.420  0.5570 -1.4327  2.0382
17875TIP3    H275117   2.538   3.744   0.391  0.1990 -0.2917  2.4779
17876TIP3   OH275118   6.467   4.028  13.092 -0.4808 -0.4311  0.1744
17876TIP3    H175119   6.452   3.984  13.175 -1.4315 -0.1960  0.1401
17876TIP3    H275120   6.531   3.973  13.046  1.0333  0.0992  1.5616
17877TIP3   OH275121   1.238   0.662   3.051  0.1038  0.2102 -0.4754
17877TIP3    H175122   1.235   0.629   2.961  0.5175 -0.6676 -0.1772
17877TIP3    H275123   1.328   0.692   3.063  0.3687 -0.7265 -0.0030
17878TIP3   OH275124   6.112   3.737   4.352 -0.0799 -0.1498 -0.3561
17878TIP3    H175125   6.089   3.761   4.262  2.9226  2.0514 -0.7115
17878TIP3    H275126   6.204   3.711   4.347  0.0896 -0.2462  2.0491
17879TIP3   OH275127   4.570   0.243  16.615  0.1778  0.0676 -0.4792
17879TIP3    H175128   4.539   0.254  16.705 -1.1342 -1.1332 -0.7377
17879TIP3    H275129   4.572   0.332  16.579 -0.3634  0.4545  0.4031
17880TIP3   OH275130   4.798   3.397   5.978 -0.7160 -0.1520  0.4165
17880TIP3    H175131   4.818   3.304   5.986 -0.9130 -0.1464  1.0166
17880TIP3    H275132   4.880   3.441   6.000 -1.1029 -0.1504  1.9383
17881TIP3   OH275133   2.250   3.829  14.111  0.5167  0.0249 -0.4168
17881TIP3    H175134   2.303   3.858  14.037  1.5332 -1.7455 -0.4509
17881TIP3    H275135   2.252   3.902  14.173  0.0578  1.3439 -1.8981
17882TIP3   OH275136   3.055   2.222  12.883 -0.2210  1.0835  0.0279
17882TIP3    H175137   3.038   2.297  12.939 -1.1288  0.6824  0.3132
17882TIP3    H275138   3.095   2.157  12.941  3.1693  2.2688 -0.7833
17883TIP3   OH275139   4.452   0.522  14.001 -0.3115  0.2827 -0.1106
17883TIP3    H175140   4.496   0.583  13.942 -1.2776  2.6882  1.4810
17883TIP3    H275141   4.515   0.451  14.013  2.1565  2.3326  0.1328
17884TIP3   OH275142   1.430   5.001   1.803  0.3461  0.0883  0.1007
17884TIP3    H175143   1.415   4.906   1.803  0.8713 -0.0320  1.7121
17884TIP3    H275144   1.345   5.039   1.783 -0.2276 -0.7117  0.9058
17885TIP3   OH275145   2.411   3.972  16.672 -0.3840 -0.1926 -0.3946
17885TIP3    H175146   2.317   3.980  16.653 -0.5080 -0.6318  0.0128
17885TIP3    H275147   2.454   4.001  16.592 -0.8400  1.6424 -0.0445
17886TIP3   OH275148   1.768   6.783   4.853 -0.1619 -0.4794  0.0208
17886TIP3    H175149   1.808   6.866   4.877  2.6196 -0.8655 -2.6455
17886TIP3    H275150   1.797   6.722   4.920 -1.0465  0.3466  1.2080
17887TIP3   OH275151   4.160   5.261  14.129 -0.4340 -0.3513 -0.3932
17887TIP3    H175152   4.195   5.252  14.041  1.2851  0.8600  0.1253
17887TIP3    H275153   4.201   5.190  14.178  1.5832  1.1669  0.2540
17888TIP3   OH275154   2.639   1.923   4.332 -0.5867  0.2545 -0.0712
17888TIP3    H175155   2.654   1.835   4.297  2.4086  1.1071 -1.2444
17888TIP3    H275156   2.590   1.968   4.263 -2.2612 -0.4853  0.5955
17889TIP3   OH275157   2.390   0.719  12.318  0.2786 -0.1566  0.0536
17889TIP3    H175158   2.309   0.689  12.359 -0.7008  2.9744  0.7099
17889TIP3    H275159   2.445   0.749  12.390  1.9718 -1.9469 -0.4109
17890TIP3   OH275160   0.029   0.480  15.972  0.0433  0.2860  1.0852
17890TIP3    H175161   0.034   0.405  16.032 -0.0780 -2.7449 -2.3680
17890TIP3    H275162  -0.060   0.513  15.983 -1.2103 -2.5006  0.1906
17891TIP3   OH275163   6.157   4.222   1.327  0.4552 -0.1005  0.0685
17891TIP3    H175164   6.225   4.180   1.274  1.6378 -0.5520  1.8745
17891TIP3    H275165   6.178   4.315   1.323  0.6202 -0.1448 -0.1247
17892TIP3   OH275166   1.219   2.410  11.696  0.1800 -0.4123  0.1231
17892TIP3    H175167   1.252   2.364  11.773  1.8467  1.9078  0.9291
17892TIP3    H275168   1.298   2.446  11.654 -0.7917 -0.6220 -2.0148
17893TIP3   OH275169   5.883   2.319   1.929 -0.1554  0.2411  0.4071
17893TIP3    H175170   5.933   2.391   1.969 -1.4097  0.2218  2.1337
17893TIP3    H275171   5.940   2.243   1.938  1.4941  1.0657 -2.0847
17894TIP3   OH275172   2.680   4.800  11.356  0.0704 -0.1167  0.3249
17894TIP3    H175173   2.661   4.767  11.269  0.3255  1.4169 -0.3481
17894TIP3    H275174   2.740   4.735  11.394  0.0409 -0.7435 -0.6714
17895TIP3   OH275175   3.105   1.684   5.845  0.6302  0.2047  0.1393
17895TIP3    H175176   3.078   1.624   5.775  0.4871  1.1927 -0.6781
17895TIP3    H275177   3.040   1.754   5.843  1.5775  1.1256  0.0918
17896TIP3   OH275178   4.037   3.691  14.752  0.0234 -0.4942 -0.4374
17896TIP3    H175179   4.124   3.653  14.755  0.3923  0.3751  0.9580
17896TIP3    H275180   4.029   3.739  14.834 -1.8390 -0.6844 -0.4641
17897TIP3   OH275181   3.740   1.850   1.207 -0.6901  0.1738  0.6944
17897TIP3    H175182   3.649   1.821   1.208 -0.6322 -0.2285 -1.4853
17897TIP3    H275183   3.735   1.944   1.191 -0.7201  0.1008  0.2721
17898TIP3   OH275184   5.269   3.073  15.456 -0.1606  0.1677 -0.4235
17898TIP3    H175185   5.311   3.113  15.532 -0.6241  0.0060 -0.0775
17898TIP3    H275186   5.176   3.073  15.478 -0.2577 -0.2152 -0.8346
17899TIP3   OH275187   1.300   5.747  11.082  0.1400  0.3671 -0.4601
17899TIP3    H175188   1.314   5.810  11.012  2.3207  1.1245  0.5753
17899TIP3    H275189   1.331   5.664  11.046  2.3933  0.9809 -0.0698
17900TIP3   OH275190   3.491   2.341   4.924  0.8094 -0.4756 -0.5857
17900TIP3    H175191   3.507   2.296   5.007  0.4736 -0.3644 -0.4592
17900TIP3    H275192   3.417   2.294   4.886 -1.4260  1.6401  0.8299
17901TIP3   OH275193   4.118   3.225   0.969 -0.2774  1.0755 -0.0277
17901TIP3    H175194   4.087   3.164   0.902 -1.4801  0.6624  0.8844
17901TIP3    H275195   4.164   3.170   1.033 -1.5962  1.0599  0.9331
17902TIP3   OH275196   3.378   6.358  16.923  0.3223 -0.3007 -0.8408
17902TIP3    H175197   3.289   6.369  16.957  0.2612 -3.1732  0.1818
17902TIP3    H275198   3.434   6.372  16.999  0.6148 -0.3812 -1.0416
17903TIP3   OH275199   4.716   5.293   0.716  0.1373  0.2543  0.3978
17903TIP3    H175200   4.811   5.301   0.709  0.1196 -0.4537 -0.9691
17903TIP3    H275201   4.689   5.368   0.769  1.4145  0.6922  0.4466
17904TIP3   OH275202   3.037   4.574  15.135 -0.3573  0.2483 -0.4693
17904TIP3    H175203   3.130   4.551  15.136 -0.6429 -1.0330  1.1742
17904TIP3    H275204   2.993   4.495  15.103 -0.9936  0.3069  0.2443
17905TIP3   OH275205   2.304   3.633   4.567  0.6700  0.3534 -0.1919
17905TIP3    H175206   2.380   3.605   4.618  0.0911 -2.3661 -0.6203
17905TIP3    H275207   2.331   3.625   4.476 -0.1475 -0.8795 -0.3516
17906TIP3   OH275208   0.772   5.012   5.053  0.0234 -0.0185 -1.3295
17906TIP3    H175209   0.808   4.953   4.987 -0.3641 -0.3294 -1.2706
17906TIP3    H275210   0.679   4.989   5.058  0.1908 -0.5395 -0.1176
17907TIP3   OH275211   1.161   3.906  16.426 -0.8716  0.2296  0.6359
17907TIP3    H175212   1.224   3.956  16.373 -2.3788  0.1702 -1.3366
17907TIP3    H275213   1.193   3.816  16.422 -1.6517 -0.0153 -1.3995
17908TIP3   OH275214   0.156   1.340  10.533  0.0126  0.0388 -0.0616
17908TIP3    H175215   0.109   1.393  10.468 -4.8787 -0.3410  2.7497
17908TIP3    H275216   0.205   1.404  10.585 -0.7883  1.0470 -0.5221
17909TIP3   OH275217   6.176   1.983  10.254 -0.8408 -0.1717  0.4888
17909TIP3    H175218   6.191   2.039  10.178  1.3570 -0.4624  0.6406
17909TIP3    H275219   6.115   1.916  10.224  1.9953 -1.9025 -1.9329
17910TIP3   OH275220   4.148   2.924  12.714 -0.4499  0.2068  0.2833
17910TIP3    H175221   4.224   2.882  12.672 -0.4132  0.7092 -0.1800
17910TIP3    H275222   4.148   3.013  12.677 -1.2347  0.2266  0.3192
17911TIP3   OH275223   0.568   6.449  16.631  0.3980  0.8040  0.3658
17911TIP3    H175224   0.611   6.366  16.651  0.4295  0.8481  0.4800
17911TIP3    H275225   0.639   6.514  16.633  0.2165  0.9851  1.2295
17912TIP3   OH275226   5.880   0.775  11.756  0.0883  0.4290 -0.1564
17912TIP3    H175227   5.970   0.783  11.724  0.5231 -2.1403  0.1500
17912TIP3    H275228   5.826   0.801  11.681  1.1075 -1.0480 -1.4802
17913TIP3   OH275229   1.682   5.308  16.831 -0.2933  0.3094  0.5051
17913TIP3    H175230   1.721   5.243  16.890 -0.8535  0.3946  0.9732
17913TIP3    H275231   1.712   5.392  16.863  0.5084  0.2915 -0.1573
17914TIP3   OH275232   2.200   5.096   2.294  0.2856 -0.1138  0.0196
17914TIP3    H175233   2.219   5.042   2.218 -0.3929  0.0044 -0.2349
17914TIP3    H275234   2.155   5.173   2.259  0.5416  0.2472  0.4681
17915TIP3   OH275235   3.295   2.100   1.968 -0.0307 -0.0553  0.0051
17915TIP3    H175236   3.303   2.178   1.912  1.6855 -0.8654 -0.9794
17915TIP3    H275237   3.213   2.112   2.015 -0.2752  1.8889 -0.8270
17916TIP3   OH275238   2.634   3.244  15.777 -0.0842  0.2658  0.0259
17916TIP3    H175239   2.685   3.303  15.722  0.4684 -1.3796 -1.3052
17916TIP3    H275240   2.625   3.163  15.726 -1.6234 -0.5027  1.3778
17917TIP3   OH275241   1.888   3.629   0.909 -0.0607 -0.4095  0.5629
17917TIP3    H175242   1.930   3.653   0.991  1.3089 -0.3843 -0.1136
17917TIP3    H275243   1.828   3.558   0.932 -0.4703  0.2913  1.7409
17918TIP3   OH275244   1.889   0.605  16.811 -0.2314 -0.2089  0.3984
17918TIP3    H175245   1.846   0.595  16.896 -2.3219 -1.2085 -0.6969
17918TIP3    H275246   1.824   0.651  16.757 -0.2460 -2.3379 -1.5295
17919TIP3   OH275247   4.087   5.806   5.850  0.8587  0.4621 -0.2863
17919TIP3    H175248   4.097   5.711   5.856 -0.5117  0.2903 -0.4616
17919TIP3    H275249   4.155   5.832   5.787  1.8305 -0.2711  0.4202
17920TIP3   OH275250   2.366   0.119   3.850  0.5375  0.2843  0.2193
17920TIP3    H175251   2.442   0.063   3.832  1.2319  0.8169  1.3292
17920TIP3    H275252   2.307   0.063   3.901  0.1142 -0.1699 -0.7539
17921TIP3   OH275253   0.047   0.477   5.826 -0.0950  0.0616  0.0234
17921TIP3    H175254   0.092   0.506   5.747 -0.6768 -0.2486 -0.4343
17921TIP3    H275255  -0.029   0.534   5.833  1.1162  1.5646  1.6208
17922TIP3   OH275256   2.533   5.806   2.240 -0.1662  0.2053 -0.5951
17922TIP3    H175257   2.508   5.725   2.286  0.5551 -1.0220 -2.2621
17922TIP3    H275258   2.469   5.814   2.169  1.1829 -0.2951 -1.9284
17923TIP3   OH275259   4.666   2.704  16.473 -0.1880  0.6128 -0.1470
17923TIP3    H175260   4.668   2.800  16.476 -1.3493  0.6878 -1.2086
17923TIP3    H275261   4.702   2.682  16.387 -2.5003  0.2521 -1.0964
17924TIP3   OH275262   4.323   5.871   4.064  0.2045  0.1656 -0.1709
17924TIP3    H175263   4.295   5.882   4.155  2.1938  1.0248  0.3885
17924TIP3    H275264   4.247   5.898   4.013 -0.3633  1.4436  1.2525
17925TIP3   OH275265   2.626   6.404   4.600 -0.5491  0.4880 -0.2684
17925TIP3    H175266   2.665   6.336   4.655 -2.4692  0.0952  0.6912
17925TIP3    H275267   2.696   6.468   4.588  1.1042 -1.2872 -0.6377
17926TIP3   OH275268   0.378   0.140   5.330  0.6525  0.1961  0.0575
17926TIP3    H175269   0.349   0.100   5.412  0.2642  0.3248 -0.0109
17926TIP3    H275270   0.467   0.169   5.347  0.9213 -0.6694  0.1144
17927TIP3   OH275271   4.812   3.494  12.066 -0.9105 -0.1497  0.2514
17927TIP3    H175272   4.803   3.587  12.043 -0.5072  0.3341  1.9055
17927TIP3    H275273   4.767   3.448  11.996 -1.8972  1.3438 -0.1540
17928TIP3   OH275274   2.551   6.361   4.049  0.1135 -0.3508 -0.1965
17928TIP3    H175275   2.539   6.282   4.101 -1.8919  0.3547  0.5014
17928TIP3    H275276   2.502   6.429   4.097  0.0337  0.8339 -1.8624
17929TIP3   OH275277   1.717   5.190  11.845  0.2178  0.2272 -0.3699
17929TIP3    H175278   1.742   5.247  11.772 -0.2341  1.1323  0.1719
17929TIP3    H275279   1.706   5.103  11.805  0.5934  0.5819 -1.2605
17930TIP3   OH275280   2.221   1.972  13.297 -0.3651  0.5196  0.2304
17930TIP3    H175281   2.253   1.882  13.303 -2.8976 -0.4567  0.4984
17930TIP3    H275282   2.213   1.989  13.203 -1.1281 -0.0502  0.1839
17931TIP3   OH275283   1.967   5.532   0.657  0.3136 -0.4148  0.3311
17931TIP3    H175284   2.060   5.541   0.676  0.6487 -0.7273 -1.0255
17931TIP3    H275285   1.929   5.616   0.681  1.0566 -0.0722  0.3230
17932TIP3   OH275286   0.597   4.650   0.003  0.0351  0.5570 -0.2458
17932TIP3    H175287   0.585   4.569   0.053 -1.3657  0.3639 -0.8572
17932TIP3    H275288   0.552   4.635  -0.080 -0.4963  2.0600 -0.2675
17933TIP3   OH275289   1.659   4.456   5.195 -0.4393 -0.4084  0.3313
17933TIP3    H175290   1.582   4.408   5.165  0.5296 -1.9418  0.1537
17933TIP3    H275291   1.728   4.389   5.201  0.6911  0.7719  1.1751
17934TIP3   OH275292   2.111   5.736   0.208 -0.0580  0.1716  0.3086
17934TIP3    H175293   2.166   5.731   0.130 -2.6093 -0.5410 -1.6008
17934TIP3    H275294   2.155   5.679   0.272  1.7394  0.1824 -0.8483
17935TIP3   OH275295   1.205   0.984  10.571  0.9738 -0.2464 -0.1458
17935TIP3    H175296   1.123   0.950  10.606  0.3334  1.9500  0.6371
17935TIP3    H275297   1.188   0.993  10.477  0.5941 -0.5168 -0.1064
17936TIP3   OH275298   3.896   0.518   2.063 -0.1438  0.1991  0.5400
17936TIP3    H175299   3.959   0.528   2.135  1.2905 -0.3374 -0.5865
17936TIP3    H275300   3.864   0.428   2.072 -0.0697  0.1776  0.5922
17937TIP3   OH275301   6.269   2.048   1.702  0.5746 -0.2187  0.1304
17937TIP3    H175302   6.212   1.999   1.761  0.8464  0.4061  0.9436
17937TIP3    H275303   6.209   2.102   1.651  0.2454 -1.6345 -1.0366
17938TIP3   OH275304   5.579   4.277   5.330  0.2392  0.3140 -0.2718
17938TIP3    H175305   5.570   4.362   5.372 -0.4289  0.0425  0.1445
17938TIP3    H275306   5.566   4.214   5.400  1.2280 -0.1443 -0.4755
17939TIP3   OH275307   0.042   5.481   0.908 -0.1254  0.1488 -0.0129
17939TIP3    H175308   0.122   5.531   0.889  0.2266 -0.4680 -0.1733
17939TIP3    H275309   0.023   5.435   0.827 -1.8981  1.9596 -0.7077
17940TIP3   OH275310   0.692   3.622  16.579  0.2525 -0.4600 -0.4035
17940TIP3    H175311   0.750   3.692  16.547  0.6444 -0.6156 -0.0421
17940TIP3    H275312   0.642   3.664  16.649 -0.2944 -0.2424 -0.9087
17941TIP3   OH275313   4.273   0.807  10.985 -0.3984 -0.4026  0.0420
17941TIP3    H175314   4.362   0.777  11.002 -0.1983  0.2425  0.1487
17941TIP3    H275315   4.219   0.755  11.044 -0.1892 -1.3680 -0.5861
17942TIP3   OH275316   0.344   2.187   4.250  0.0842 -0.5446  0.0238
17942TIP3    H175317   0.266   2.242   4.243  0.1036 -0.4420  0.5837
17942TIP3    H275318   0.412   2.236   4.203  0.3032  0.3007  1.1800
17943TIP3   OH275319   3.575   0.216   3.054  0.7007  0.0145 -0.2246
17943TIP3    H175320   3.609   0.296   3.094  1.4776  1.2124 -3.0653
17943TIP3    H275321   3.646   0.153   3.062  0.0910 -0.4927  2.0133
17944TIP3   OH275322   2.580   5.589  11.892 -0.3277  0.2911  0.2278
17944TIP3    H175323   2.565   5.585  11.986 -2.5694  0.1811 -0.0966
17944TIP3    H275324   2.583   5.683  11.872 -0.5745  0.3143  0.3044
17945TIP3   OH275325   5.624   3.874  13.638 -0.0146  0.1093  0.5439
17945TIP3    H175326   5.565   3.940  13.603 -0.9790 -0.6773  0.6320
17945TIP3    H275327   5.710   3.897  13.603 -0.5729  0.6031 -0.5598
17946TIP3   OH275328   0.866   3.031   1.731 -0.1763  0.3678  0.1844
17946TIP3    H175329   0.847   3.004   1.640 -0.3819 -0.2597  0.4078
17946TIP3    H275330   0.805   2.979   1.784  0.5443  0.0929  0.7478
17947TIP3   OH275331   5.258   6.668   2.594  0.5297  1.0449  0.3243
17947TIP3    H175332   5.332   6.642   2.540 -0.4416  0.6482 -0.8523
17947TIP3    H275333   5.253   6.600   2.661  1.9332  1.7085  1.1587
17948TIP3   OH275334   5.592   5.096   6.601 -0.1912  0.0216 -0.6641
17948TIP3    H175335   5.583   5.041   6.523 -0.6872 -0.4312 -0.2925
17948TIP3    H275336   5.679   5.076   6.635  0.0901  0.3352 -1.1868
17949TIP3   OH275337   1.338   4.286  16.454  0.3647  0.1165 -0.5032
17949TIP3    H175338   1.309   4.213  16.508  0.3277  1.3434  1.2225
17949TIP3    H275339   1.261   4.313  16.405  0.1224 -0.3231 -0.3667
17950TIP3   OH275340   4.074   6.137   1.598 -0.7276  0.3147 -0.0373
17950TIP3    H175341   4.116   6.170   1.519  0.4079 -0.4875  0.2186
17950TIP3    H275342   4.121   6.179   1.670 -0.8986  0.0283  0.2445
17951TIP3   OH275343   6.372   2.761  16.539 -0.2059 -0.0438  0.7148
17951TIP3    H175344   6.374   2.854  16.561 -0.6060  0.0443  0.3815
17951TIP3    H275345   6.288   2.729  16.572 -0.7814  0.0730 -0.5867
17952TIP3   OH275346   6.519   2.494  15.828  0.6597  0.6045 -0.0352
17952TIP3    H175347   6.567   2.577  15.830 -1.1157  1.7544 -1.4211
17952TIP3    H275348   6.583   2.429  15.799  2.6125  1.0222  2.9803
17953TIP3   OH275349   1.704   0.542   2.833  0.1128  0.3100 -0.2492
17953TIP3    H175350   1.720   0.599   2.758  0.8313  0.5394  0.0733
17953TIP3    H275351   1.663   0.599   2.898 -1.6475 -0.1577 -0.8820
17954TIP3   OH275352   0.521   1.730  16.061 -0.0810 -0.1925 -0.1094
17954TIP3    H175353   0.489   1.646  16.093 -0.3177 -0.7745 -1.7613
17954TIP3    H275354   0.571   1.708  15.982 -1.1168  1.2881 -1.2509
17955TIP3   OH275355   2.279   3.266  12.230 -0.0564 -0.0689 -0.2296
17955TIP3    H175356   2.313   3.338  12.177  1.4233 -0.4869  0.1056
17955TIP3    H275357   2.269   3.193  12.169 -1.4660  0.3538 -0.5500
17956TIP3   OH275358   3.084   0.732  15.974 -0.7129 -0.0443 -0.2307
17956TIP3    H175359   3.101   0.826  15.979 -2.0146  0.2185 -0.3535
17956TIP3    H275360   3.096   0.710  15.882 -2.2794  0.4179 -0.5805
17957TIP3   OH275361   3.245   0.677   2.232 -0.0229  0.5384 -0.2505
17957TIP3    H175362   3.338   0.688   2.208 -0.0216  0.9468 -0.0688
17957TIP3    H275363   3.238   0.585   2.257  0.4677  0.6390  0.2934
17958TIP3   OH275364   1.737   2.687  11.969 -0.0631 -0.3955  0.3043
17958TIP3    H175365   1.787   2.741  12.030  1.9183 -1.7421 -0.0729
17958TIP3    H275366   1.760   2.722  11.882 -1.1267  0.0474  0.1746
17959TIP3   OH275367   6.335   4.010   2.668  0.4353 -0.5815  0.6785
17959TIP3    H175368   6.288   3.961   2.734  0.4236 -0.0470  1.0760
17959TIP3    H275369   6.428   3.991   2.685  0.4143 -0.7371  0.6155
17960TIP3   OH275370   0.471   6.285   3.581 -0.1417  0.4925  0.4254
17960TIP3    H175371   0.417   6.265   3.505 -2.4015 -0.1645  2.1291
17960TIP3    H275372   0.410   6.291   3.654  2.1635 -1.3585  2.6852
17961TIP3   OH275373   5.457   0.557   5.830 -0.3616  0.3756 -0.2036
17961TIP3    H175374   5.439   0.600   5.746  0.0340  1.5241  0.2773
17961TIP3    H275375   5.381   0.578   5.884 -1.0406 -1.1147 -0.5267
17962TIP3   OH275376   4.878   5.114  14.817  0.3924  0.2020  0.0378
17962TIP3    H175377   4.873   5.198  14.771 -1.0378  0.1152 -0.0251
17962TIP3    H275378   4.868   5.048  14.749 -0.8332  0.0531  0.3398
17963TIP3   OH275379   5.122   3.325  15.079 -0.1652 -0.4807 -0.5645
17963TIP3    H175380   5.176   3.254  15.045  1.0298  1.2540 -2.4704
17963TIP3    H275381   5.161   3.346  15.164  1.3184 -0.1953 -1.2896
17964TIP3   OH275382   5.186   1.505   5.141  0.3313 -0.1112 -0.5618
17964TIP3    H175383   5.183   1.600   5.151 -0.6406 -0.1128 -0.7046
17964TIP3    H275384   5.276   1.486   5.115  1.0359  0.5837  1.2020
17965TIP3   OH275385   0.120   5.959   3.154 -0.0221  0.4094 -0.1496
17965TIP3    H175386   0.148   5.910   3.077 -1.4870 -0.9573  0.1264
17965TIP3    H275387   0.058   5.900   3.198  1.1002  0.9471  2.3181
17966TIP3   OH275388   2.024   4.656   3.373 -0.5838 -0.0051  0.4317
17966TIP3    H175389   1.963   4.715   3.328  1.9460  2.5419  0.0050
17966TIP3    H275390   2.106   4.667   3.326  0.4287 -2.7629  1.3769
17967TIP3   OH275391   6.093   4.743  14.981  0.2825  0.8522  0.5662
17967TIP3    H175392   6.165   4.807  14.986  1.9193 -0.9612  2.5362
17967TIP3    H275393   6.093   4.714  14.890  3.5630 -0.5761  0.8632
17968TIP3   OH275394   2.846   3.842   4.966 -0.5242  0.2355  0.2459
17968TIP3    H175395   2.862   3.776   4.899  1.4340  3.1124 -2.3766
17968TIP3    H275396   2.909   3.823   5.035  1.3283  0.3755 -1.3430
17969TIP3   OH275397   2.819   3.600  16.275 -0.2394 -0.1653 -0.1159
17969TIP3    H175398   2.861   3.659  16.337  0.2229 -0.3623 -0.2366
17969TIP3    H275399   2.732   3.637  16.261 -0.1987  0.1008  0.3366
17970TIP3   OH275400   4.646   3.028   5.395 -0.2549  0.5204 -0.0207
17970TIP3    H175401   4.732   3.021   5.436 -0.7574  1.9572  1.3905
17970TIP3    H275402   4.643   3.116   5.359 -0.5721 -0.0528 -1.4798
17971TIP3   OH275403   0.981   3.374  16.554 -0.2490 -0.0573 -0.0939
17971TIP3    H175404   0.984   3.458  16.600  1.8634 -0.1362 -0.0139
17971TIP3    H275405   0.984   3.308  16.623 -1.6914 -0.2470 -0.1694
17972TIP3   OH275406   1.223   3.601   3.737 -0.0883  0.2400  0.0666
17972TIP3    H175407   1.164   3.676   3.737  0.2844  0.5700 -1.2693
17972TIP3    H275408   1.299   3.630   3.685  0.0639 -1.0426 -0.4726
17973TIP3   OH275409   4.667   0.200   5.152 -0.3625 -0.0165 -0.0774
17973TIP3    H175410   4.697   0.159   5.071 -1.4664  1.3201 -1.2371
17973TIP3    H275411   4.705   0.288   5.150 -0.0880 -0.0966  1.0628
17974TIP3   OH275412   5.767   6.000   4.083 -0.3372  0.7362  0.1442
17974TIP3    H175413   5.707   6.054   4.134  0.1855  1.1007  0.3807
17974TIP3    H275414   5.775   5.919   4.132 -0.9625  0.5218 -0.1056
17975TIP3   OH275415   2.825   5.417   3.895 -0.4693 -0.1099 -0.1693
17975TIP3    H175416   2.748   5.383   3.849  0.2013 -1.8361 -0.0663
17975TIP3    H275417   2.790   5.450   3.978 -1.1476 -0.5134 -0.2899
17976TIP3   OH275418   5.981   3.408   3.862  0.3531 -1.0360 -0.6451
17976TIP3    H175419   5.916   3.477   3.872 -0.0360 -1.2211 -1.7337
17976TIP3    H275420   6.018   3.396   3.950  0.0605  0.1817 -0.3392
17977TIP3   OH275421   2.025   0.732   4.086  0.1655  0.1324 -0.5534
17977TIP3    H175422   2.099   0.727   4.026  0.8429  2.1404  0.0701
17977TIP3    H275423   2.057   0.691   4.167  1.4819  2.9951  0.4925
17978TIP3   OH275424   1.046   4.345   4.373  0.3096 -0.6367 -0.4615
17978TIP3    H175425   1.045   4.341   4.468 -1.4097  0.5859 -0.3804
17978TIP3    H275426   1.115   4.284   4.347  0.9933 -0.7880  1.5567
17979TIP3   OH275427   6.580   4.495  17.012  0.0958 -0.3365  0.5440
17979TIP3    H175428   6.655   4.546  16.981 -0.2938 -0.8356 -1.3531
17979TIP3    H275429   6.563   4.528  17.100  1.5889  0.8343  0.4285
17980TIP3   OH275430   4.001   4.726   2.772 -0.4445  0.3689 -0.8536
17980TIP3    H175431   3.963   4.798   2.823 -0.7976 -0.2314 -0.2422
17980TIP3    H275432   3.973   4.742   2.682 -0.3423  1.1091 -0.7552
17981TIP3   OH275433   5.000   2.357  13.311 -0.0744 -0.5416  0.4811
17981TIP3    H175434   4.926   2.375  13.369 -0.1903 -0.5248  0.3299
17981TIP3    H275435   5.077   2.365  13.367 -0.1748 -0.3718  0.5964
17982TIP3   OH275436   5.840   6.539  14.290  0.2207  0.2453 -0.0294
17982TIP3    H175437   5.884   6.571  14.212  1.6897  1.2679  1.1552
17982TIP3    H275438   5.840   6.444  14.280  1.4975  0.2920 -0.7307
17983TIP3   OH275439   1.711   0.024   4.295 -0.5289  0.0167  0.2147
17983TIP3    H175440   1.763   0.001   4.218 -1.3306  0.8736 -0.6086
17983TIP3    H275441   1.776   0.054   4.359 -0.0046  2.2597 -1.2124
17984TIP3   OH275442   0.651   5.056   3.025  0.0548  0.0434  0.5150
17984TIP3    H175443   0.684   5.054   2.935 -0.6937  0.1865  0.2254
17984TIP3    H275444   0.698   5.128   3.066  0.4066 -0.0265  0.2386
17985TIP3   OH275445   1.315   5.675   4.841 -0.1641 -0.2573  0.1704
17985TIP3    H175446   1.309   5.597   4.896  0.1651  0.2090  0.8777
17985TIP3    H275447   1.385   5.655   4.779 -0.3313 -0.6651  0.1088
17986TIP3   OH275448   6.581   1.137  12.423  0.0103  0.5805 -0.0453
17986TIP3    H175449   6.621   1.220  12.397  0.1486  0.2594 -0.8874
17986TIP3    H275450   6.646   1.071  12.401 -0.1505  0.2286  0.5071
17987TIP3   OH275451   5.258   6.245  14.336 -0.3314 -0.0737  0.6108
17987TIP3    H175452   5.276   6.232  14.429 -1.2898 -2.3729  0.5378
17987TIP3    H275453   5.306   6.325  14.314  2.0802 -0.8694  2.4599
17988TIP3   OH275454   5.270   2.040   2.805  0.0346 -0.3200 -0.5960
17988TIP3    H175455   5.299   2.027   2.896 -0.1745 -3.8824 -0.8949
17988TIP3    H275456   5.350   2.055   2.756  0.2489  0.6002  0.0159
17989TIP3   OH275457   3.243   0.576   1.904 -0.4835 -0.9526  0.5138
17989TIP3    H175458   3.294   0.654   1.926 -1.2476 -0.5717  0.9732
17989TIP3    H275459   3.305   0.518   1.860 -0.7375  1.4887 -3.5906
17990TIP3   OH275460   1.591   4.061   4.334  0.1785  0.1895  0.3226
17990TIP3    H175461   1.576   4.153   4.356 -1.2248  0.1374 -0.3270
17990TIP3    H275462   1.531   4.012   4.391 -1.7047 -0.0857 -1.7469
17991TIP3   OH275463   4.281   4.826   4.540  0.3677 -0.4267 -0.2069
17991TIP3    H175464   4.237   4.868   4.466 -1.3189  2.8548  2.3883
17991TIP3    H275465   4.363   4.873   4.549  0.5030 -0.7158  0.0875
17992TIP3   OH275466   5.841   6.844   4.563 -0.2570  0.1661  0.1152
17992TIP3    H175467   5.895   6.907   4.514 -1.0133 -0.1965 -1.2419
17992TIP3    H275468   5.832   6.770   4.504 -1.8551  0.0267  0.4930
17993TIP3   OH275469   0.491   3.023  14.547 -0.1335 -0.3687 -0.4713
17993TIP3    H175470   0.508   3.045  14.455  1.4920  0.0060 -0.1186
17993TIP3    H275471   0.567   3.057  14.593 -0.8098 -0.7895  0.9911
17994TIP3   OH275472   1.249   2.476   0.768  0.4013  0.4003  0.3151
17994TIP3    H175473   1.159   2.444   0.770  0.2520  0.7855  2.3741
17994TIP3    H275474   1.303   2.397   0.761 -0.0682  0.2216 -1.9012
17995TIP3   OH275475   6.134   1.956   0.242 -0.2540  0.1138 -0.2307
17995TIP3    H175476   6.138   1.974   0.336 -0.2370 -3.1073  0.4923
17995TIP3    H275477   6.154   2.040   0.201  0.5528  1.4465  2.6288
17996TIP3   OH275478   6.749   5.130  11.877 -0.1038  0.3881 -0.0296
17996TIP3    H175479   6.756   5.140  11.972  1.3866 -0.8336  0.0312
17996TIP3    H275480   6.678   5.189  11.852 -0.1555  1.1627  1.7628
17997TIP3   OH275481   0.154   1.434   4.543  0.1937 -0.3334 -0.1407
17997TIP3    H175482   0.222   1.378   4.508 -1.0016 -3.1436  1.6715
17997TIP3    H275483   0.072   1.400   4.506 -0.5273  0.7551  0.3717
17998TIP3   OH275484   6.252   1.375  12.328  0.0216  0.1335  0.5313
17998TIP3    H175485   6.249   1.430  12.406  1.2789  1.4862 -0.3218
17998TIP3    H275486   6.336   1.396  12.286 -0.5426 -0.6578 -1.1016
17999TIP3   OH275487   4.201   2.595  11.973  0.5042 -0.0406 -0.3899
17999TIP3    H175488   4.194   2.688  11.994  0.3365 -0.3950  1.2414
17999TIP3    H275489   4.202   2.592  11.877  0.4355  1.6238 -0.4673
18000TIP3   OH275490   1.645   2.096  13.049 -0.0534  0.6454 -0.9212
18000TIP3    H175491   1.661   2.184  13.016  1.7233  0.0599 -1.7336
18000TIP3    H275492   1.694   2.092  13.131 -0.4083  0.5031 -0.7118
18001TIP3   OH275493   4.921   5.435  12.611 -0.1545  0.0321  0.2374
18001TIP3    H175494   4.968   5.356  12.637 -3.1515 -1.8761  0.2184
18001TIP3    H275495   4.891   5.416  12.522 -1.2769  1.0239  0.3877
18002TIP3   OH275496   2.597   6.373   3.783 -0.1879  0.2354  0.0509
18002TIP3    H175497   2.589   6.373   3.879 -0.0027  0.4440  0.0670
18002TIP3    H275498   2.510   6.348   3.752 -0.3381  0.4741  0.2683
18003TIP3   OH275499   3.912   4.655  13.575  0.1389  0.0084  0.1378
18003TIP3    H175500   3.959   4.579  13.542  0.6574 -0.0369  0.9489
18003TIP3    H275501   3.974   4.700  13.632 -0.3557  0.7100  0.1474
18004TIP3   OH275502   5.931   4.965  13.707 -0.0451 -0.7865 -0.1274
18004TIP3    H175503   5.922   4.904  13.635  1.0024  0.2967 -1.2098
18004TIP3    H275504   5.900   5.049  13.672 -1.4055 -0.6273  1.3043
18005TIP3   OH275505   6.278   3.170   3.942  0.5967 -0.4860  0.5194
18005TIP3    H175506   6.322   3.144   3.861  2.2002 -1.4846  1.6664
18005TIP3    H275507   6.219   3.097   3.962  0.4380 -0.3808  0.4453
18006TIP3   OH275508   0.031   0.408   2.929  0.3046  0.1539  0.2505
18006TIP3    H175509   0.093   0.440   2.863  0.9191 -1.2310  0.1085
18006TIP3    H275510   0.059   0.318   2.946 -0.4329  0.1719  1.7118
18007TIP3   OH275511   6.672   2.983  13.822 -0.0935 -0.1052 -0.6009
18007TIP3    H175512   6.658   2.888  13.819  0.0200 -0.1594  0.3681
18007TIP3    H275513   6.622   3.016  13.747  0.5222 -0.9991 -1.4522
18008TIP3   OH275514   3.560   4.893   4.992 -0.8999 -0.0266 -0.5341
18008TIP3    H175515   3.638   4.937   5.026 -1.1113 -0.3754  0.4527
18008TIP3    H275516   3.578   4.879   4.899 -1.0028  2.5294 -1.0180
18009TIP3   OH275517   4.197   5.970  14.050  0.0314  0.3544 -0.7767
18009TIP3    H175518   4.210   5.877  14.069 -0.4476  0.0817 -1.7596
18009TIP3    H275519   4.158   6.006  14.130 -2.4286 -0.8685 -1.3317
18010TIP3   OH275520   5.204   2.088  15.169  0.2669 -0.2540  0.0271
18010TIP3    H175521   5.201   2.149  15.096 -0.1875 -1.3807 -0.9241
18010TIP3    H275522   5.211   2.002  15.129 -1.0294 -0.9904  1.2619
18011TIP3   OH275523   2.184   5.367   3.160 -0.6751  0.6527  0.0592
18011TIP3    H175524   2.115   5.388   3.096 -0.6564  0.1755 -0.1237
18011TIP3    H275525   2.246   5.440   3.153 -1.1709  1.1009  0.2432
18012TIP3   OH275526   6.068   0.763  11.136 -0.2147 -0.1627 -0.5386
18012TIP3    H175527   6.157   0.736  11.112 -0.0010 -0.4708  0.5171
18012TIP3    H275528   6.042   0.825  11.068 -0.3397 -2.2531 -2.5336
18013TIP3   OH275529   0.745   3.345   3.588  0.4580 -0.0582 -0.2118
18013TIP3    H175530   0.675   3.352   3.653  0.6182  1.6168 -0.1838
18013TIP3    H275531   0.721   3.268   3.536 -0.9971  0.0253  0.2727
18014TIP3   OH275532   2.201   0.782   5.526 -0.1966 -0.2440 -0.3204
18014TIP3    H175533   2.274   0.791   5.588  0.6606  0.5445 -1.4178
18014TIP3    H275534   2.216   0.698   5.484  0.9702  0.5598 -1.6072
18015TIP3   OH275535   2.727   6.624   5.975  0.6905 -0.0976  0.4010
18015TIP3    H175536   2.679   6.550   6.014 -1.2362  0.4762 -0.7517
18015TIP3    H275537   2.682   6.702   6.009  1.2178  0.4844 -0.2175
18016TIP3   OH275538   2.647   0.872  11.433 -0.5436  0.0271  0.0314
18016TIP3    H175539   2.606   0.931  11.496 -0.5335 -0.0784  0.1372
18016TIP3    H275540   2.624   0.784  11.463  0.8821 -0.0928  0.8864
18017TIP3   OH275541   6.174   0.088  11.654 -0.0950 -0.2017  0.1235
18017TIP3    H175542   6.190   0.154  11.721 -1.2170 -0.6551  0.8736
18017TIP3    H275543   6.255   0.085  11.603  1.1296 -0.4597  1.9898
18018TIP3   OH275544   6.449   6.567   2.231  0.2236 -0.0005 -0.3118
18018TIP3    H175545   6.388   6.507   2.186  1.4929 -0.4494 -1.5118
18018TIP3    H275546   6.417   6.570   2.321 -2.9274  1.5221 -1.3019
18019TIP3   OH275547   6.150   6.002   1.076  0.0527 -0.6575 -0.1589
18019TIP3    H175548   6.117   5.967   0.993  0.4468  0.3570 -0.7530
18019TIP3    H275549   6.203   5.931   1.112  0.0903 -1.0117 -0.8911
18020TIP3   OH275550   1.953   0.662  14.324  0.0051  0.1228 -0.0493
18020TIP3    H175551   1.879   0.706  14.365  0.4765 -1.3258  2.6185
18020TIP3    H275552   1.973   0.590  14.384  1.5103 -1.5022 -2.3726
18021TIP3   OH275553   2.477   0.811   2.022  0.4180  0.2257 -0.8744
18021TIP3    H175554   2.457   0.878   2.087  1.2216 -0.6566  0.3415
18021TIP3    H275555   2.569   0.824   2.001  0.3640  0.0126 -1.2613
18022TIP3   OH275556   2.308   6.534   1.266  0.0260 -0.1141  0.1458
18022TIP3    H175557   2.322   6.629   1.261 -0.9646  0.1682  2.1262
18022TIP3    H275558   2.361   6.506   1.341 -0.7989 -0.9018  0.4461
18023TIP3   OH275559   3.687   3.539   3.438 -0.3385 -0.0722  0.2960
18023TIP3    H175560   3.727   3.454   3.452  1.2558  0.3025 -1.5091
18023TIP3    H275561   3.713   3.564   3.349  1.2440  3.3154  1.5241
18024TIP3   OH275562   2.230   6.010  11.167 -0.5125 -0.0870 -0.2222
18024TIP3    H175563   2.210   5.949  11.238 -0.6933  0.4113  0.1567
18024TIP3    H275564   2.202   6.095  11.200  0.7574  0.3776 -0.3129
18025TIP3   OH275565   3.375   4.084   0.013  0.6397 -0.2635  0.0684
18025TIP3    H175566   3.451   4.072   0.070  0.3058  0.1606  0.6188
18025TIP3    H275567   3.326   4.002   0.021 -0.8891  0.7503  2.6855
18026TIP3   OH275568   3.030   2.690  10.858 -0.0822 -0.6664  0.5270
18026TIP3    H175569   3.027   2.613  10.802 -0.3579 -1.0477  1.0627
18026TIP3    H275570   2.950   2.738  10.838 -1.0720 -1.6946  1.8397
18027TIP3   OH275571   6.740   0.105  16.354  0.0977  0.0492 -0.2299
18027TIP3    H175572   6.659   0.080  16.399 -1.0452  1.6540 -1.2742
18027TIP3    H275573   6.780   0.169  16.412  0.3322 -0.3274  0.0260
18028TIP3   OH275574   3.096   1.753  16.253 -0.1457  0.2505 -0.1891
18028TIP3    H175575   3.018   1.722  16.300 -0.4281  0.7647 -0.3077
18028TIP3    H275576   3.086   1.848  16.252 -0.0588  0.2560 -1.1466
18029TIP3   OH275577   5.183   2.606  10.966  0.7191 -0.2298 -0.0729
18029TIP3    H175578   5.130   2.678  11.000  1.5980  0.2122  0.4107
18029TIP3    H275579   5.265   2.648  10.939  0.0985 -0.5658 -2.7452
18030TIP3   OH275580   2.586   0.022   3.728 -0.3153  0.0696 -0.5267
18030TIP3    H175581   2.630  -0.062   3.730  0.1580  0.3274  0.4943
18030TIP3    H275582   2.657   0.087   3.727 -0.6696  0.4662 -0.4911
18031TIP3   OH275583   4.438   3.350  14.092  0.2961 -0.2699 -0.0116
18031TIP3    H175584   4.526   3.319  14.070  0.2947  0.2866 -0.8771
18031TIP3    H275585   4.437   3.441  14.062 -0.2963 -0.0099  0.7900
18032TIP3   OH275586   3.378   3.080   4.948 -0.0162  0.0029 -0.0752
18032TIP3    H175587   3.428   3.135   4.887  0.1551  0.8514  0.7989
18032TIP3    H275588   3.365   2.997   4.901  1.3751  0.1077 -0.6953
18033TIP3   OH275589   5.561   1.531  14.995 -0.0774  0.2613  0.3626
18033TIP3    H175590   5.573   1.476  15.073 -1.4123  0.0099  0.4149
18033TIP3    H275591   5.469   1.556  14.997  0.3925  2.1806  0.1030
18034TIP3   OH275592   1.953   1.273  15.910 -0.2440  0.6818 -0.0263
18034TIP3    H175593   1.897   1.214  15.959  2.2156 -1.1552  0.7770
18034TIP3    H275594   1.931   1.257  15.818 -2.2526  1.4087  0.2777
18035TIP3   OH275595   3.397   4.449   5.083 -0.2350 -0.1388 -0.4434
18035TIP3    H175596   3.435   4.411   5.004 -1.3935 -0.7332 -0.7410
18035TIP3    H275597   3.345   4.523   5.051  0.8910  0.8727 -0.0097
18036TIP3   OH275598   1.548   3.842  11.376 -0.3083 -1.0191 -0.6276
18036TIP3    H175599   1.494   3.920  11.389  1.4193  0.0735  0.2966
18036TIP3    H275600   1.523   3.784  11.447  1.2419  0.3978  1.1688
18037TIP3   OH275601   4.034   2.790   4.759 -0.5579 -0.1657 -0.4040
18037TIP3    H175602   4.017   2.713   4.704  0.7186  0.8779 -2.3738
18037TIP3    H275603   3.972   2.855   4.728 -2.1271 -0.5369  1.7432
18038TIP3   OH275604   5.431   5.620   5.695  0.2554 -0.3399  0.8372
18038TIP3    H175605   5.497   5.683   5.723  1.5644 -1.6101  0.7461
18038TIP3    H275606   5.382   5.599   5.774  0.8097 -0.3589  1.1725
18039TIP3   OH275607   5.164   6.048  14.112 -0.0123 -0.2520  0.0259
18039TIP3    H175608   5.223   6.123  14.107 -0.2202  0.0033  1.0312
18039TIP3    H275609   5.177   6.015  14.201 -0.7214 -0.7392 -0.0516
18040TIP3   OH275610   5.904   6.199  14.845 -0.0868 -0.1554  0.1729
18040TIP3    H175611   5.941   6.256  14.777  1.0836 -0.1661  0.7700
18040TIP3    H275612   5.980   6.156  14.884 -0.6424  0.4382  2.0166
18041TIP3   OH275613   0.181   5.736   2.249  0.5338 -0.0623 -0.0151
18041TIP3    H175614   0.147   5.819   2.215 -3.2338 -0.7560  1.5721
18041TIP3    H275615   0.264   5.759   2.290  0.2321  2.6493 -0.7511
18042TIP3   OH275616   0.928   3.621  10.746  0.4504  0.0945  0.0644
18042TIP3    H175617   0.902   3.531  10.762  1.4345 -0.0919  0.6584
18042TIP3    H275618   0.988   3.617  10.671  0.8345  0.1986  0.3625
18043TIP3   OH275619   2.866   1.746  13.436  0.5208 -0.5655  0.2284
18043TIP3    H175620   2.946   1.771  13.482  1.1538 -1.0446 -0.5676
18043TIP3    H275621   2.885   1.659  13.400 -0.7667 -1.1724  0.9488
18044TIP3   OH275622   5.911   5.638  16.426  0.6930 -0.0639  0.0316
18044TIP3    H175623   5.978   5.703  16.446  0.9303  0.1851 -1.5304
18044TIP3    H275624   5.868   5.670  16.348 -0.2393 -1.0032  0.1377
18045TIP3   OH275625   3.414   1.011   1.168 -0.3309  0.6445  0.0141
18045TIP3    H175626   3.327   1.036   1.134  0.3090  0.9609 -1.4955
18045TIP3    H275627   3.407   0.917   1.185 -0.8544  0.5767 -0.5196
18046TIP3   OH275628   1.598   6.263   6.036 -0.6509  0.1610  0.0454
18046TIP3    H175629   1.688   6.284   6.059 -0.7927  0.6185  0.1884
18046TIP3    H275630   1.605   6.202   5.962 -0.2345  0.6258 -0.3014
18047TIP3   OH275631   2.738   4.392  14.441  0.6285  0.2636  0.1977
18047TIP3    H175632   2.772   4.445  14.369  2.1643 -0.2000  0.5464
18047TIP3    H275633   2.797   4.410  14.514  0.1255 -0.5838  0.8323
18048TIP3   OH275634   3.330   1.924  15.934  0.0942 -0.1618  0.8198
18048TIP3    H175635   3.321   1.905  15.841 -0.2805 -0.5903  0.9389
18048TIP3    H275636   3.395   1.995  15.938  0.0879 -0.1160  0.2356
18049TIP3   OH275637   4.401   1.146   3.312 -0.5024  0.1416 -0.7550
18049TIP3    H175638   4.454   1.159   3.233  0.4684 -0.1056 -0.1602
18049TIP3    H275639   4.455   1.181   3.383 -0.2208 -1.9218  0.1369
18050TIP3   OH275640   5.017   0.908  14.569  0.1726 -0.1720  0.2003
18050TIP3    H175641   4.960   0.879  14.640  0.6018  1.5963  1.3411
18050TIP3    H275642   5.106   0.896  14.603  0.3698  1.8355  0.5073
18051TIP3   OH275643   2.463   1.881   0.065  0.0023  0.4452  0.3836
18051TIP3    H175644   2.417   1.849  -0.013 -0.3345  1.7195  0.0403
18051TIP3    H275645   2.461   1.807   0.126  1.4934 -1.0819 -1.2956
18052TIP3   OH275646   4.750   4.789   5.103 -0.5545  0.0210 -0.6065
18052TIP3    H175647   4.665   4.803   5.143 -0.6809 -1.5606 -0.2500
18052TIP3    H275648   4.730   4.751   5.017 -0.2305  1.0237 -1.1361
18053TIP3   OH275649   6.394   6.197   3.695 -0.1455  0.6538 -0.5463
18053TIP3    H175650   6.307   6.157   3.700 -0.5472  1.6513  1.9201
18053TIP3    H275651   6.454   6.123   3.683 -1.0593 -0.4692  1.3887
18054TIP3   OH275652   3.838   4.545  15.868  0.1851 -0.2780 -0.6717
18054TIP3    H175653   3.781   4.592  15.807  0.0741  0.5193  0.0314
18054TIP3    H275654   3.913   4.517  15.815  0.4403  1.0290 -1.0222
18055TIP3   OH275655   1.275   2.301  16.166  0.0841 -0.4091  0.0576
18055TIP3    H175656   1.210   2.371  16.160  0.0163 -0.5719 -1.3918
18055TIP3    H275657   1.278   2.280  16.260 -1.1066  0.3762  0.3017
18056TIP3   OH275658   3.073   2.543  16.911  0.2915 -0.0296 -0.3757
18056TIP3    H175659   3.008   2.474  16.915 -0.5981  0.7910 -0.2048
18056TIP3    H275660   3.022   2.624  16.918  1.4398  0.6080  1.3504
18057TIP3   OH275661   2.213   1.827   0.745 -0.0059 -0.3584 -0.1617
18057TIP3    H175662   2.264   1.857   0.820  1.7243 -2.1808 -0.5347
18057TIP3    H275663   2.131   1.795   0.784  0.7019 -0.9226  0.9269
18058TIP3   OH275664   0.548   4.592  16.619  0.2738 -0.1552 -0.0945
18058TIP3    H175665   0.573   4.558  16.533 -0.5140 -0.2284 -0.3013
18058TIP3    H275666   0.491   4.667  16.600 -1.3628 -1.2495  0.3447
18059TIP3   OH275667   5.569   2.994   1.739 -0.0581 -0.5592  0.0798
18059TIP3    H175668   5.661   2.999   1.764 -0.2383  0.1956  0.6132
18059TIP3    H275669   5.522   2.983   1.822 -0.6754  1.9993  0.1594
18060TIP3   OH275670   0.126   3.900  15.103  0.0404  0.0922  0.1288
18060TIP3    H175671   0.129   3.994  15.122 -0.2049  0.4539 -1.5380
18060TIP3    H275672   0.106   3.894  15.010  0.1603 -1.6259  0.1764
18061TIP3   OH275673   2.962   2.844   5.583  0.2154 -0.2468  0.4932
18061TIP3    H175674   3.030   2.898   5.623 -0.0940  1.0441 -0.6449
18061TIP3    H275675   2.900   2.907   5.546  1.2494 -1.2372 -3.3647
18062TIP3   OH275676   1.155   5.620   4.262  1.1447 -0.1234  0.0656
18062TIP3    H175677   1.207   5.700   4.261  0.0733  0.5871 -1.0030
18062TIP3    H275678   1.064   5.650   4.268  0.6178 -1.1584 -1.9075
18063TIP3   OH275679   2.729   6.502   2.829  0.6102  0.3161  0.6552
18063TIP3    H175680   2.690   6.577   2.784  1.0944  0.6520  0.7877
18063TIP3    H275681   2.657   6.464   2.879 -0.2695 -0.8268 -1.3385
18064TIP3   OH275682   2.851   5.062  12.100  0.4795 -0.5544 -0.6066
18064TIP3    H175683   2.923   5.071  12.162  0.8590 -0.0276 -1.1154
18064TIP3    H275684   2.786   5.126  12.129  1.8547  1.8196 -2.3770
18065TIP3   OH275685   4.899   6.772   4.809 -0.2038 -0.8924  0.1261
18065TIP3    H175686   4.899   6.685   4.849 -1.6737 -0.8441  0.2877
18065TIP3    H275687   4.938   6.759   4.723  1.7929 -1.2423  1.0229
18066TIP3   OH275688   6.047   2.082  12.993  0.0109  0.4147 -0.4791
18066TIP3    H175689   6.024   1.989  12.995 -1.8185  0.7661 -1.6359
18066TIP3    H275690   6.123   2.087  12.936  1.6328 -0.5807  1.4952
18067TIP3   OH275691   5.533   6.801  13.867 -0.6635  0.3577 -0.6836
18067TIP3    H175692   5.501   6.824  13.780 -1.4840  1.0171 -0.2162
18067TIP3    H275693   5.479   6.851  13.927 -0.8300 -0.9234  0.2705
18068TIP3   OH275694   6.344   1.526  11.123 -0.2689  0.4939 -0.2592
18068TIP3    H175695   6.416   1.544  11.062  1.9542 -0.6379  1.8276
18068TIP3    H275696   6.354   1.591  11.192  0.1559 -0.9434  1.1145
18069TIP3   OH275697   6.764   6.153   2.374 -0.5913  0.0410 -0.8588
18069TIP3    H175698   6.802   6.214   2.310 -2.5687  1.8992 -0.3726
18069TIP3    H275699   6.679   6.190   2.395 -1.0806 -1.9139  0.9542
18070TIP3   OH275700   2.253   3.498   3.562  0.2293  0.0807 -0.0834
18070TIP3    H175701   2.346   3.517   3.552  0.4702 -0.7479  0.4382
18070TIP3    H275702   2.219   3.573   3.612  0.7223  0.1400  0.1743
18071TIP3   OH275703   1.014   4.290   2.111  0.4011 -0.1072 -0.7022
18071TIP3    H175704   0.932   4.336   2.129  0.5535 -0.3561  0.6782
18071TIP3    H275705   0.993   4.198   2.120  0.5443 -0.2357 -1.6014
18072TIP3   OH275706   1.149   1.713   3.721 -0.0779  0.0500  0.4819
18072TIP3    H175707   1.178   1.644   3.780  0.7027 -0.2427 -0.2238
18072TIP3    H275708   1.230   1.751   3.687 -0.5001  1.1771  0.6988
18073TIP3   OH275709   0.209   6.778  15.122 -0.0787  0.0511 -0.1733
18073TIP3    H175710   0.228   6.836  15.196  1.4932  0.8766 -1.1621
18073TIP3    H275711   0.146   6.826  15.069 -0.7566 -0.2904  0.3007
18074TIP3   OH275712   0.223   1.430  12.371  0.3634 -0.5100  0.9363
18074TIP3    H175713   0.255   1.516  12.345  0.3249 -0.5339  0.8104
18074TIP3    H275714   0.233   1.429  12.467  1.1969 -0.7018  0.8565
18075TIP3   OH275715   5.751   1.394   1.302  0.0141 -0.4053 -0.3698
18075TIP3    H175716   5.804   1.425   1.229  0.2863  0.5240  0.2100
18075TIP3    H275717   5.747   1.468   1.363  0.9739 -1.5822  1.2335
18076TIP3   OH275718   5.554   4.820  14.333  0.0464 -0.6014 -0.0863
18076TIP3    H175719   5.601   4.856  14.258  0.3275  0.3420  0.5222
18076TIP3    H275720   5.469   4.863  14.331 -0.1355 -0.9646 -0.1607
18077TIP3   OH275721   0.235   5.506  12.231  0.9885  0.0341 -0.3820
18077TIP3    H175722   0.252   5.569  12.301  1.0413  1.0464 -1.2699
18077TIP3    H275723   0.221   5.423  12.276  0.8378  0.6910  0.8352
18078TIP3   OH275724   2.511   4.016   3.159 -0.1069 -0.2004  0.3166
18078TIP3    H175725   2.418   4.037   3.160 -0.3847 -1.2479 -0.8597
18078TIP3    H275726   2.540   4.027   3.249 -1.0783  1.3596  0.4616
18079TIP3   OH275727   3.399   4.912  11.374  0.0237 -0.1551 -0.3225
18079TIP3    H175728   3.311   4.912  11.413  0.3727  1.7138  0.6008
18079TIP3    H275729   3.384   4.917  11.280 -0.9141  1.7489 -0.1226
18080TIP3   OH275730   2.279   4.859   2.104  0.0698 -0.4511 -0.5900
18080TIP3    H175731   2.282   4.794   2.174 -0.5892  0.6004  0.4338
18080TIP3    H275732   2.223   4.818   2.037 -1.3299 -0.4792  0.5519
18081TIP3   OH275733   5.992   1.513   4.628 -0.1842  0.3054 -0.5795
18081TIP3    H175734   5.974   1.419   4.633  0.6533  0.1370 -0.5027
18081TIP3    H275735   5.908   1.553   4.607 -0.5325 -0.4712 -0.6906
18082TIP3   OH275736   2.214   2.142   2.470 -0.1943 -0.1359  0.1622
18082TIP3    H175737   2.270   2.157   2.394 -0.1766 -2.4431 -0.3311
18082TIP3    H275738   2.267   2.170   2.545  0.5713  0.2341 -0.5033
18083TIP3   OH275739   0.538   5.721   5.787  0.0023  0.4137 -0.0086
18083TIP3    H175740   0.479   5.675   5.847 -1.3785  0.8638 -0.9502
18083TIP3    H275741   0.607   5.657   5.768 -0.6739 -0.4720  0.4329
18084TIP3   OH275742   2.393   3.716  16.487  0.5021  0.0545 -0.6783
18084TIP3    H175743   2.307   3.744  16.518  1.3834 -0.7433  2.8196
18084TIP3    H275744   2.378   3.631  16.447 -0.7456  1.3229 -3.1554
18085TIP3   OH275745   4.554   0.118  14.523 -0.2493  0.6210  0.0905
18085TIP3    H175746   4.558   0.211  14.545  1.8089  0.3662  1.0329
18085TIP3    H275747   4.503   0.115  14.442 -0.8544  2.4940  0.3550
18086TIP3   OH275748   0.927   6.793  13.700  0.2630  0.1514 -0.2313
18086TIP3    H175749   0.870   6.870  13.708  0.1858  0.2766 -1.6815
18086TIP3    H275750   0.996   6.821  13.640  0.6481 -0.6907 -0.1931
18087TIP3   OH275751   4.932   1.311  11.532 -0.2963 -0.0261 -0.0441
18087TIP3    H175752   4.992   1.242  11.504 -0.3234  0.5511 -1.6189
18087TIP3    H275753   4.936   1.309  11.628  1.7512 -0.4307 -0.0850
18088TIP3   OH275754   4.381   5.318   5.748  0.0206  0.5681 -0.0824
18088TIP3    H175755   4.325   5.304   5.672 -0.6406  2.6753 -0.0424
18088TIP3    H275756   4.321   5.339   5.819  0.7351  0.2532  0.6298
18089TIP3   OH275757   3.250   0.541  11.789 -0.4716  0.2427  0.0872
18089TIP3    H175758   3.343   0.562  11.799 -0.2679  0.0952 -1.3580
18089TIP3    H275759   3.243   0.451  11.822  0.2206 -0.3107 -1.1803
18090TIP3   OH275760   0.829   3.696   4.341 -0.1382 -0.1285 -0.6119
18090TIP3    H175761   0.761   3.763   4.338 -1.3861 -1.3579 -0.6947
18090TIP3    H275762   0.826   3.654   4.255  1.6026  0.6086 -1.0649
18091TIP3   OH275763   5.264   4.455  16.314  0.1016 -0.6062 -0.5179
18091TIP3    H175764   5.194   4.417  16.367  1.7149 -0.1727  2.0891
18091TIP3    H275765   5.291   4.385  16.255 -1.0472 -1.4724 -0.0478
18092TIP3   OH275766   1.775   1.388  14.930  0.0496 -0.2237 -0.4611
18092TIP3    H175767   1.690   1.350  14.952  0.8959 -1.2193  1.2799
18092TIP3    H275768   1.830   1.371  15.007  2.0627 -0.2838 -1.8356
18093TIP3   OH275769   4.970   5.541  10.415 -0.0582 -0.1169 -0.0312
18093TIP3    H175770   4.944   5.619  10.464 -1.2182 -0.2098 -0.4723
18093TIP3    H275771   5.046   5.569  10.364 -1.1188  1.0676 -1.0264
18094TIP3   OH275772   1.747   3.004  11.493 -0.2500  0.0731  0.3578
18094TIP3    H175773   1.800   2.939  11.448 -0.8216 -0.1693  0.0299
18094TIP3    H275774   1.809   3.051  11.549  0.3182 -0.1582 -0.0747
18095TIP3   OH275775   5.209   1.185   2.914 -0.1389  0.0497 -0.6926
18095TIP3    H175776   5.303   1.186   2.933 -0.6633  1.6830  2.4442
18095TIP3    H275777   5.188   1.093   2.903  1.3424 -0.7074  1.8657
18096TIP3   OH275778   3.128   5.125  11.673 -0.6159 -0.0898 -0.5190
18096TIP3    H175779   3.060   5.163  11.618  0.9248 -1.1674 -3.4028
18096TIP3    H275780   3.205   5.180  11.656 -0.1470 -0.3433  0.7391
18097TIP3   OH275781   1.169   3.519  16.956 -0.5052 -0.2762  0.2088
18097TIP3    H175782   1.133   3.553  17.038 -1.2762 -0.7095  0.0564
18097TIP3    H275783   1.236   3.583  16.932 -1.5998  0.9118  0.1731
18098TIP3   OH275784   1.571   0.316   1.019 -0.0919 -0.5438 -0.8278
18098TIP3    H175785   1.481   0.307   0.988 -0.3668 -0.3980 -0.0695
18098TIP3    H275786   1.567   0.295   1.112  0.1708  2.0947 -0.1584
18099TIP3   OH275787   1.068   0.599   5.911 -0.8383  0.1896 -0.6756
18099TIP3    H175788   1.114   0.516   5.919 -2.7473 -0.8280  0.5881
18099TIP3    H275789   1.132   0.665   5.938  0.2414 -1.0268 -0.1716
18100TIP3   OH275790   0.908   3.797  16.545 -0.1287  0.0477 -0.2130
18100TIP3    H175791   0.992   3.822  16.506  0.9780 -0.7164  1.5215
18100TIP3    H275792   0.930   3.723  16.603 -2.1550 -0.7227 -0.3334
18101TIP3   OH275793   1.485   5.799  15.533  0.1734 -0.8212 -0.0690
18101TIP3    H175794   1.545   5.819  15.605 -0.9575  1.5799  0.3257
18101TIP3    H275795   1.522   5.846  15.458 -1.1054  0.6548  0.1679
18102TIP3   OH275796   5.947   3.571   0.309 -0.0533  0.4786  0.3203
18102TIP3    H175797   5.949   3.478   0.287 -1.8353  0.7103 -1.0304
18102TIP3    H275798   6.025   3.607   0.267  1.1033 -0.4817  1.5276
18103TIP3   OH275799   3.474   6.284   4.413  0.6363 -0.0303  0.2398
18103TIP3    H175800   3.502   6.374   4.397  0.1559 -0.0446 -0.7862
18103TIP3    H275801   3.553   6.231   4.404  0.7551  0.1970 -0.0462
18104TIP3   OH275802   3.957   3.172   2.691  0.6730 -0.4059  0.7526
18104TIP3    H175803   3.946   3.084   2.727  1.7274 -0.6469  0.5197
18104TIP3    H275804   3.925   3.230   2.760  0.6338 -0.9451  1.1977
18105TIP3   OH275805   2.768   0.350   1.732 -0.4668 -0.1713 -0.4838
18105TIP3    H175806   2.772   0.317   1.822 -1.0111 -1.0741 -0.7703
18105TIP3    H275807   2.800   0.278   1.679 -0.0376  0.4017 -1.0104
18106TIP3   OH275808   6.078   1.058   6.631  0.1078 -0.2458  0.3269
18106TIP3    H175809   6.132   1.008   6.570  0.2299  1.9248 -1.4746
18106TIP3    H275810   5.993   1.014   6.629  0.2930 -0.5960 -0.9509
18107TIP3   OH275811   3.317   5.038   2.403 -0.8935  0.2534  0.0056
18107TIP3    H175812   3.223   5.058   2.404 -0.6825  1.3342 -0.7004
18107TIP3    H275813   3.354   5.097   2.338  0.4458  0.5811  1.0105
18108TIP3   OH275814   1.066   4.989  12.917  0.2188  0.0282 -0.5404
18108TIP3    H175815   1.075   4.960  13.007  1.9052  0.4632 -0.5458
18108TIP3    H275816   0.977   5.025  12.912 -0.0390 -0.3848  0.8156
18109TIP3   OH275817   1.601   2.667   3.011 -0.1314 -0.0468 -0.1145
18109TIP3    H175818   1.537   2.602   2.983 -1.2887  1.5044 -1.2874
18109TIP3    H275819   1.685   2.621   3.009 -1.0855 -1.9100  0.6869
18110TIP3   OH275820   6.782   1.875   0.416  0.3991 -0.2603  0.2890
18110TIP3    H175821   6.747   1.893   0.329 -1.1566 -2.1959  0.4470
18110TIP3    H275822   6.790   1.780   0.419  2.9049 -0.1076  1.3870
18111TIP3   OH275823   4.823   5.494   5.502  0.6051 -0.4714  0.2410
18111TIP3    H175824   4.776   5.493   5.418  0.5472 -0.7740  0.2782
18111TIP3    H275825   4.850   5.585   5.512  0.4589 -0.3967 -0.0224
18112TIP3   OH275826   5.949   1.907  16.327 -0.1997  1.1109  0.2076
18112TIP3    H175827   5.867   1.932  16.370  0.4706  0.9449  1.6452
18112TIP3    H275828   6.003   1.871  16.398  0.9097  0.7115 -0.8116
18113TIP3   OH275829   6.404   3.744   3.159  0.5168  0.4738  0.4081
18113TIP3    H175830   6.319   3.721   3.196  1.6245 -3.3808  1.0163
18113TIP3    H275831   6.407   3.698   3.075  1.4497  1.8233 -0.3450
18114TIP3   OH275832   6.419   6.363  13.984  0.2787  0.4403 -0.1810
18114TIP3    H175833   6.472   6.430  14.027  0.8833  0.3834 -0.8229
18114TIP3    H275834   6.365   6.411  13.921  0.9496  0.3100 -0.8771
18115TIP3   OH275835   0.917   0.467  13.887 -0.3585 -0.3809  0.4951
18115TIP3    H175836   0.869   0.384  13.880  0.6494 -0.8671 -1.2741
18115TIP3    H275837   0.903   0.510  13.803 -0.1280  0.8470  1.0631
18116TIP3   OH275838   6.708   1.030  15.206 -0.4251 -0.2834 -0.2916
18116TIP3    H175839   6.749   0.996  15.126 -1.2929 -1.6369 -0.2009
18116TIP3    H275840   6.772   1.093  15.241 -0.5207  1.2318 -2.6330
18117TIP3   OH275841   0.219   2.155   1.743  0.2501  0.0125  0.4505
18117TIP3    H175842   0.273   2.184   1.669  0.4392  0.1659  0.6467
18117TIP3    H275843   0.129   2.161   1.710  0.3170  0.3217  0.3124
18118TIP3   OH275844   4.973   1.421   4.030  0.5843 -0.3077  0.1521
18118TIP3    H175845   4.966   1.328   4.053 -0.6346  0.0620  1.4218
18118TIP3    H275846   5.055   1.450   4.069  1.4592 -1.0549 -1.0805
18119TIP3   OH275847   2.591   0.722   1.357  0.0547  0.3590 -0.0880
18119TIP3    H175848   2.650   0.688   1.290  0.1497  0.3569 -0.0025
18119TIP3    H275849   2.601   0.817   1.352 -0.8662  0.4347 -0.9362
18120TIP3   OH275850   4.293   0.628  11.967  0.0298 -0.1415 -0.4023
18120TIP3    H175851   4.291   0.683  11.889  0.5245  0.1869 -0.1918
18120TIP3    H275852   4.306   0.540  11.934 -1.0589 -0.1832 -0.7619
18121TIP3   OH275853   1.007   0.706  14.386 -0.2951 -0.0440  0.4851
18121TIP3    H175854   1.018   0.669  14.298 -0.1475 -0.1241  0.5377
18121TIP3    H275855   0.914   0.729  14.390 -0.5257 -0.9709  0.6673
18122TIP3   OH275856   3.459   5.462  13.101 -0.3068 -0.7170 -0.0653
18122TIP3    H175857   3.501   5.385  13.139  0.3188 -0.2331  0.2398
18122TIP3    H275858   3.523   5.495  13.037  1.2327  1.8263  2.5355
18123TIP3   OH275859   1.461   1.992   0.749  0.1804 -0.0360 -0.1732
18123TIP3    H175860   1.523   2.008   0.819  0.9100  0.3472 -0.8935
18123TIP3    H275861   1.513   1.991   0.669 -0.7668  0.6203 -0.8323
18124TIP3   OH275862   2.248   0.037   0.902  0.1654  0.6222  0.0093
18124TIP3    H175863   2.187  -0.021   0.947  1.4682 -0.0641  0.9863
18124TIP3    H275864   2.195   0.084   0.837 -1.0789 -1.0563 -0.2419
18125TIP3   OH275865   2.132   2.880  14.320 -0.4412  0.2840 -0.1582
18125TIP3    H175866   2.135   2.885  14.415  1.5726  0.2457 -0.1764
18125TIP3    H275867   2.116   2.787  14.301 -0.3883  0.2098  0.1539
18126TIP3   OH275868   4.052   4.551   0.532  0.1846 -0.1047 -0.3448
18126TIP3    H175869   4.096   4.478   0.576 -1.1546  1.0045  3.2154
18126TIP3    H275870   4.122   4.598   0.488  1.5560 -1.7877 -0.0666
18127TIP3   OH275871   5.036   2.589  16.695 -0.1950 -0.0983 -0.4514
18127TIP3    H175872   4.969   2.527  16.725  0.4554 -1.0367 -0.8956
18127TIP3    H275873   5.045   2.571  16.601 -0.3929  1.0620 -0.7065
18128TIP3   OH275874   3.448   6.847  10.861 -0.1562  0.3557 -0.2217
18128TIP3    H175875   3.522   6.818  10.807 -0.1496 -0.4580  0.2082
18128TIP3    H275876   3.488   6.876  10.943 -0.3813 -1.1956  0.4694
18129TIP3   OH275877   5.757   2.227   0.181  0.6113 -0.1649 -0.1748
18129TIP3    H175878   5.699   2.155   0.208 -0.7123  0.7184 -0.5459
18129TIP3    H275879   5.805   2.192   0.106  0.9274 -1.0830  0.4409
18130TIP3   OH275880   6.810   6.011  12.184 -0.2710 -0.1776  0.2395
18130TIP3    H175881   6.740   5.947  12.175  1.1135 -1.8271  0.6544
18130TIP3    H275882   6.860   5.981  12.260  1.1052  0.7159 -0.2754
18131TIP3   OH275883   6.137   2.208  14.672 -0.0610 -0.0241 -0.4162
18131TIP3    H175884   6.205   2.240  14.612  1.4734  0.7513  1.6178
18131TIP3    H275885   6.059   2.259  14.649  1.4484  2.9376  0.5429
18132TIP3   OH275886   3.382   4.095   3.829 -0.1090  0.3272  1.0552
18132TIP3    H175887   3.452   4.033   3.845  0.4496  1.1937  2.0973
18132TIP3    H275888   3.387   4.113   3.735  0.6980 -0.0454  1.0192
18133TIP3   OH275889   6.381   1.453  15.726 -0.1363  0.1752  0.6048
18133TIP3    H175890   6.463   1.492  15.756 -0.3347  1.6133 -0.6470
18133TIP3    H275891   6.312   1.503  15.771 -0.3687  0.0081  0.4391
18134TIP3   OH275892   0.833   4.318   1.275  0.1277  0.4774  0.0518
18134TIP3    H175893   0.888   4.277   1.342 -0.7910 -0.7444  0.1108
18134TIP3    H275894   0.886   4.389   1.239  1.3562 -0.0562  0.7610
18135TIP3   OH275895   0.852   1.313   2.928 -0.1778 -0.3859  0.3137
18135TIP3    H175896   0.853   1.222   2.899 -1.0320 -0.2197 -0.3105
18135TIP3    H275897   0.769   1.321   2.976 -0.4634  0.2384 -0.2735
18136TIP3   OH275898   5.973   3.146  14.668 -0.0797  0.3273  1.2040
18136TIP3    H175899   5.954   3.067  14.720 -0.0559  0.3801  1.2924
18136TIP3    H275900   6.034   3.115  14.601 -0.9100  0.0358  0.5765
18137TIP3   OH275901   3.368   5.595   1.621 -0.4907  0.3535  0.3139
18137TIP3    H175902   3.438   5.655   1.594  0.4569  0.4363  2.7409
18137TIP3    H275903   3.402   5.508   1.602  1.4397  0.2344  3.6249
18138TIP3   OH275904   3.467   4.433  12.993 -0.0456  0.2186 -0.2177
18138TIP3    H175905   3.404   4.484  12.943 -0.7501  0.5206  0.9303
18138TIP3    H275906   3.543   4.490  13.004  0.3042 -0.0153 -1.2977
18139TIP3   OH275907   1.023   4.752  11.310 -0.2811  0.0030 -0.1073
18139TIP3    H175908   0.945   4.772  11.257  0.9511  0.3664 -1.8653
18139TIP3    H275909   1.040   4.833  11.358 -1.7671 -0.5200  1.3979
18140TIP3   OH275910   6.446   5.578  16.029  0.3377  0.1039 -0.3580
18140TIP3    H175911   6.504   5.521  16.079  0.6759 -0.4733 -1.3980
18140TIP3    H275912   6.484   5.581  15.941 -0.7542  0.3692 -0.8410
18141TIP3   OH275913   5.949   6.769  16.235 -0.3996 -0.1418  0.3593
18141TIP3    H175914   6.029   6.769  16.287  1.0593  0.7878 -1.7359
18141TIP3    H275915   5.946   6.856  16.196 -2.9273  0.1512  1.0018
18142TIP3   OH275916   4.544   2.977   0.440 -0.6748 -0.3096  0.2721
18142TIP3    H175917   4.560   3.070   0.456  0.7534 -0.7935  2.0698
18142TIP3    H275918   4.618   2.949   0.386 -1.0162 -0.4360 -0.1330
18143TIP3   OH275919   1.125   5.160  15.003 -0.2697  0.8739  0.3134
18143TIP3    H175920   1.203   5.140  15.054  1.8562 -0.0219 -2.9620
18143TIP3    H275921   1.122   5.255  14.999  0.5625  0.9223  0.6474
18144TIP3   OH275922   1.040   1.070  13.479 -0.3900 -0.2599  0.0647
18144TIP3    H175923   1.127   1.092  13.512  0.9486 -2.5735 -1.6146
18144TIP3    H275924   1.027   0.979  13.504 -2.0920 -0.1498 -0.2850
18145TIP3   OH275925   1.984   5.413   2.599 -0.7729 -0.5966 -0.0873
18145TIP3    H175926   1.922   5.449   2.536 -0.0947  0.8012 -0.0100
18145TIP3    H275927   1.930   5.377   2.669 -1.6507  2.8796  1.2689
18146TIP3   OH275928   2.333   4.748   6.312 -0.7609 -0.9618 -0.0941
18146TIP3    H175929   2.344   4.731   6.219 -0.4399 -2.4353  0.1899
18146TIP3    H275930   2.411   4.797   6.337 -1.1119 -0.0767 -0.6991
18147TIP3   OH275931   1.377   1.080  13.140  0.3077  0.8329  0.3758
18147TIP3    H175932   1.337   1.131  13.211 -2.3616 -0.6859  0.0953
18147TIP3    H275933   1.464   1.059  13.172 -0.3368  1.2913  2.6440
18148TIP3   OH275934   4.667   5.331   4.647  0.2907  0.0655  0.1153
18148TIP3    H175935   4.686   5.422   4.671  0.1090  0.0774  0.2175
18148TIP3    H275936   4.706   5.279   4.717 -2.0650  0.1830  1.6253
18149TIP3   OH275937   6.210   6.307   2.555  0.2112  0.1978  0.2595
18149TIP3    H175938   6.137   6.333   2.498 -1.0232  0.1619  1.7450
18149TIP3    H275939   6.276   6.375   2.542  0.3056 -0.2196 -1.7600
18150TIP3   OH275940   4.527   2.893  14.361 -0.1564  0.5071  0.0139
18150TIP3    H175941   4.434   2.897  14.338 -0.4559 -0.0816  1.1013
18150TIP3    H275942   4.534   2.942  14.443  0.6791  1.4228 -0.5763
18151TIP3   OH275943   2.879   5.950   1.730  0.3027  0.1848  0.2696
18151TIP3    H175944   2.840   5.867   1.759 -0.7571  0.9584  1.1459
18151TIP3    H275945   2.972   5.942   1.752  0.2831 -0.9118 -0.0048
18152TIP3   OH275946   3.745   4.767  16.333 -0.4490  0.3829 -0.0022
18152TIP3    H175947   3.715   4.775  16.243 -2.2887 -2.2644  0.2714
18152TIP3    H275948   3.836   4.737  16.325 -0.7855 -0.4303 -1.0024
18153TIP3   OH275949   5.194   3.668  14.883  0.2260  0.1792  0.1631
18153TIP3    H175950   5.238   3.645  14.801  0.0491  2.1037 -0.5179
18153TIP3    H275951   5.260   3.655  14.950  0.6988 -0.4125 -0.4039
18154TIP3   OH275952   6.319   1.709  16.456  0.0988  0.0556  0.2677
18154TIP3    H175953   6.229   1.720  16.487  0.0312 -0.9074  0.4454
18154TIP3    H275954   6.314   1.727  16.362  0.2658  2.7970  0.7164
18155TIP3   OH275955   5.438   3.703  12.548 -0.0334 -0.3089 -0.1323
18155TIP3    H175956   5.450   3.663  12.634 -0.7417  1.1933  0.7021
18155TIP3    H275957   5.344   3.720  12.542 -0.0566 -0.7853 -1.3980
18156TIP3   OH275958   1.231   4.748  12.257  0.5814 -0.2825 -0.3145
18156TIP3    H175959   1.242   4.653  12.250 -0.7536 -0.5764  1.1553
18156TIP3    H275960   1.137   4.761  12.258  0.7371  1.2008 -1.7938
18157TIP3   OH275961   2.788   5.350  11.344  0.2910 -0.3933  0.0703
18157TIP3    H175962   2.828   5.414  11.285  1.0119 -0.6615  0.2574
18157TIP3    H275963   2.702   5.387  11.363  0.1711 -0.1446 -0.8885
18158TIP3   OH275964   2.843   5.910   0.359 -0.1855  0.1013 -0.3618
18158TIP3    H175965   2.896   5.960   0.296  0.2362 -0.8286 -0.7627
18158TIP3    H275966   2.774   5.971   0.386  1.9318  1.9291  1.3624
18159TIP3   OH275967   1.069   3.496  12.709  0.4892 -0.3382 -0.4907
18159TIP3    H175968   1.034   3.426  12.764 -0.9382 -0.4715 -1.4856
18159TIP3    H275969   1.084   3.569  12.769 -0.6633 -0.5990  0.1540
18160TIP3   OH275970   0.149   2.109  15.967  0.7271 -0.0103 -0.5197
18160TIP3    H175971   0.167   2.078  15.878 -0.9207  1.4851 -1.4355
18160TIP3    H275972   0.093   2.041  16.005 -0.2372  0.2643 -1.3843
18161TIP3   OH275973   2.950   2.014  15.724  0.2419 -0.0397  0.1232
18161TIP3    H175974   2.956   2.028  15.818 -1.3280 -2.3379  0.6477
18161TIP3    H275975   2.981   1.924  15.711 -0.3987 -0.0668 -1.4290
18162TIP3   OH275976   0.086   5.343  11.603 -0.1738 -0.2272 -0.2125
18162TIP3    H175977   0.099   5.396  11.682 -1.4520  0.7239 -0.6025
18162TIP3    H275978   0.114   5.400  11.531 -0.0027 -0.6952 -0.5174
18163TIP3   OH275979   6.497   0.735  10.245 -0.6927 -0.3459  0.1757
18163TIP3    H175980   6.442   0.735  10.324 -1.9205  1.3279 -0.6177
18163TIP3    H275981   6.438   0.706  10.175 -0.0017 -0.4660 -0.3694
18164TIP3   OH275982   0.465   4.778  15.729  0.0180  0.0208 -0.0436
18164TIP3    H175983   0.530   4.846  15.749 -0.8945  0.8917  0.0723
18164TIP3    H275984   0.450   4.786  15.635  0.4696 -0.5369 -0.1630
18165TIP3   OH275985   5.866   0.784  12.482 -0.0425 -0.2949 -0.6443
18165TIP3    H175986   5.833   0.812  12.567  0.7066 -1.7125  0.1518
18165TIP3    H275987   5.839   0.853  12.421  2.9129  2.9206  1.3833
18166TIP3   OH275988   3.136   4.450   1.426  0.0836 -0.0714  0.6018
18166TIP3    H175989   3.114   4.409   1.342 -0.9334  0.4561  0.5866
18166TIP3    H275990   3.117   4.383   1.491  0.0416 -0.1892  0.4695
18167TIP3   OH275991   1.243   4.649   4.758 -0.2333 -0.1226  0.7645
18167TIP3    H175992   1.232   4.559   4.725 -1.5820  0.5572 -0.7463
18167TIP3    H275993   1.189   4.652   4.837 -0.5987 -0.5040  0.5339
18168TIP3   OH275994   6.089   2.274  15.624  0.1717  0.7278 -0.5153
18168TIP3    H175995   6.098   2.272  15.719  0.3953 -0.7794 -0.5528
18168TIP3    H275996   6.164   2.327  15.595  1.1856 -0.3662  0.0432
18169TIP3   OH275997   5.357   6.195   5.948 -0.3099 -0.1224 -0.4182
18169TIP3    H175998   5.377   6.221   5.858  0.0077 -1.0817 -0.6362
18169TIP3    H275999   5.389   6.268   6.001 -0.3548  0.3856 -1.0667
18170TIP3   OH276000   1.460   3.768   4.303 -0.2061 -0.2615 -0.2990
18170TIP3    H176001   1.548   3.806   4.305 -0.9296  1.7223 -2.2454
18170TIP3    H276002   1.440   3.758   4.210 -2.0440 -0.6817  0.1030
18171TIP3   OH276003   6.143   4.483   1.289  0.6753  0.2144  0.1463
18171TIP3    H176004   6.072   4.505   1.229  0.8172 -1.1870 -0.5762
18171TIP3    H276005   6.220   4.526   1.252  0.4266  0.8097  0.3101
18172TIP3   OH276006   6.595   3.409  12.933  0.7992  0.0629  0.7084
18172TIP3    H176007   6.648   3.438  12.858  1.0456 -0.1369  0.8013
18172TIP3    H276008   6.535   3.344  12.896  0.8146  0.0791  0.6549
18173TIP3   OH276009   2.384   6.245  11.802  0.2449 -0.2788 -0.0569
18173TIP3    H176010   2.413   6.325  11.846 -0.0563  0.2211 -0.7464
18173TIP3    H276011   2.459   6.186  11.807 -0.0373 -0.5408  1.8153
18174TIP3   OH276012   4.926   3.983   0.828  0.4382  0.5597  0.7960
18174TIP3    H176013   5.021   3.980   0.817  0.6405  2.1151  1.7778
18174TIP3    H276014   4.914   4.016   0.917 -0.9804  3.1677 -0.2377
18175TIP3   OH276015   3.357   5.497  11.316  0.3658  0.0881  0.5021
18175TIP3    H176016   3.406   5.503  11.397  0.7033 -0.5448  0.3610
18175TIP3    H276017   3.342   5.403  11.305 -1.8569  0.3407  1.1062
18176TIP3   OH276018   3.124   5.209  16.850 -0.5351  0.2963 -0.1995
18176TIP3    H176019   3.077   5.133  16.815  0.5478 -0.0379 -0.9760
18176TIP3    H276020   3.164   5.178  16.931 -2.0459  0.7276  0.7408
18177TIP3   OH276021   0.892   0.190   3.192 -0.5012  0.3345  0.2122
18177TIP3    H176022   0.862   0.174   3.102 -3.5647  3.1847  0.5641
18177TIP3    H276023   0.832   0.139   3.246 -1.8949  2.4311  0.7487
18178TIP3   OH276024   2.940   2.103   4.165 -0.1960  0.4443 -0.8473
18178TIP3    H176025   3.023   2.055   4.166 -1.6140 -2.2225  0.4257
18178TIP3    H276026   2.908   2.094   4.075 -0.3623 -1.0057 -0.6765
18179TIP3   OH276027   4.178   5.479  12.293  0.4441 -0.2391 -0.6872
18179TIP3    H176028   4.215   5.424  12.224  2.0460 -0.7924  0.5605
18179TIP3    H276029   4.221   5.563  12.282  0.5797 -0.2785 -0.4518
18180TIP3   OH276030   6.091   4.192   0.255 -0.2224 -0.3065 -0.2894
18180TIP3    H176031   6.168   4.233   0.217 -0.3753  0.3436  0.0947
18180TIP3    H276032   6.019   4.216   0.197 -0.5444  1.1003  0.6350
18181TIP3   OH276033   2.486   2.723  14.477 -0.6488 -0.3116 -0.3289
18181TIP3    H176034   2.453   2.691  14.393 -0.8944  0.9052 -0.7209
18181TIP3    H276035   2.578   2.745  14.461 -1.1049  1.4223 -0.7456
18182TIP3   OH276036   2.713   5.264   2.410 -0.1036  0.3736  0.1017
18182TIP3    H176037   2.759   5.339   2.447 -0.5444 -0.2248  1.9544
18182TIP3    H276038   2.679   5.296   2.326  2.8725  1.0806 -0.9634
18183TIP3   OH276039   1.145   6.475  16.459  0.3662  0.0296 -0.0187
18183TIP3    H176040   1.123   6.490  16.367 -1.7414 -1.7073  0.1362
18183TIP3    H276041   1.221   6.531  16.474  1.3050 -0.2418 -3.0231
18184TIP3   OH276042   5.845   3.989   4.995  0.1361  0.0784  0.4132
18184TIP3    H176043   5.779   4.056   4.978  0.5272  0.1389 -1.0068
18184TIP3    H276044   5.926   4.026   4.960  0.0309 -1.8055 -2.0880
18185TIP3   OH276045   5.446   0.065   5.617  0.5387 -0.1958  0.5293
18185TIP3    H176046   5.501   0.141   5.637 -0.2598 -0.0261  2.2194
18185TIP3    H276047   5.370   0.102   5.573  0.2901 -0.0492  1.0799
18186TIP3   OH276048   5.951   1.817  11.386  0.5068 -0.2534 -0.3903
18186TIP3    H176049   5.863   1.853  11.377  0.8629  0.5111 -0.9572
18186TIP3    H276050   5.972   1.827  11.478  0.4653  0.6862 -0.4784
18187TIP3   OH276051   6.161   2.026   5.911 -0.1463 -0.0101  0.7262
18187TIP3    H176052   6.198   2.049   5.997 -0.7715  3.1574  0.2655
18187TIP3    H276053   6.067   2.019   5.927 -0.1670 -0.3677  0.4557
18188TIP3   OH276054   0.033   1.345  11.692 -0.4397  0.2614 -0.0410
18188TIP3    H176055   0.008   1.285  11.622 -2.0376  1.1667 -0.2998
18188TIP3    H276056   0.069   1.421  11.647 -1.3357  0.7846  0.1170
18189TIP3   OH276057   2.456   2.701   1.816 -0.1079 -0.3481  0.6238
18189TIP3    H176058   2.451   2.616   1.860 -1.0391 -0.8889 -0.4645
18189TIP3    H276059   2.421   2.685   1.729  0.7470  0.9228  0.0183
18190TIP3   OH276060   6.832   4.928  14.277 -0.4243 -0.1895 -0.1448
18190TIP3    H176061   6.901   4.975  14.230  1.6067 -1.4901  1.3119
18190TIP3    H276062   6.828   4.842  14.235 -0.9732 -0.2186 -0.0418
18191TIP3   OH276063   6.061   1.255  14.262 -0.1195 -0.2203 -0.2632
18191TIP3    H176064   6.141   1.230  14.307  0.5448  1.5550 -0.3608
18191TIP3    H276065   6.007   1.176  14.262  1.4304 -1.3179  0.2169
18192TIP3   OH276066   1.664   5.155   0.627  0.6850  0.0082  0.0265
18192TIP3    H176067   1.731   5.222   0.640 -0.7213  1.8138 -1.4118
18192TIP3    H276068   1.697   5.078   0.674  2.6146  1.5297  1.3162
18193TIP3   OH276069   2.495   0.780   5.143 -0.2964 -0.8647 -0.2790
18193TIP3    H176070   2.419   0.739   5.102  1.0237 -1.5086 -2.1902
18193TIP3    H276071   2.527   0.842   5.078  1.0892 -0.9296  0.3035
18194TIP3   OH276072   3.389   3.674   3.354 -0.3569 -0.6443 -0.2774
18194TIP3    H176073   3.309   3.656   3.403  0.3886 -0.8121  0.9191
18194TIP3    H276074   3.374   3.636   3.267 -1.5429 -0.7042 -0.0596
18195TIP3   OH276075   3.332   5.404   4.092  0.2150 -0.1594  0.6363
18195TIP3    H176076   3.329   5.322   4.142  0.5038 -0.6224 -0.0867
18195TIP3    H276077   3.255   5.399   4.035  0.9931 -0.5938 -0.4090
18196TIP3   OH276078   2.286   3.910   4.414 -0.2486  0.7353 -0.2149
18196TIP3    H176079   2.230   3.879   4.343  1.0284 -1.0878 -0.4877
18196TIP3    H276080   2.246   3.876   4.493 -0.5191  0.9772 -0.2467
18197TIP3   OH276081   0.316   3.804   3.262  0.8519  0.3438  0.2846
18197TIP3    H176082   0.270   3.720   3.263  2.4378 -0.5556  0.6992
18197TIP3    H276083   0.369   3.804   3.341  1.2343  1.5316  0.0483
18198TIP3   OH276084   1.472   4.719  13.377  0.0700 -0.1798 -0.4419
18198TIP3    H176085   1.460   4.813  13.360 -0.4990  0.0998  1.3326
18198TIP3    H276086   1.422   4.676  13.308 -0.4125  0.8310 -0.7445
18199TIP3   OH276087   3.241   5.221  14.740 -0.0420 -0.0918 -0.1837
18199TIP3    H176088   3.311   5.160  14.764  1.1067  1.1899 -0.1790
18199TIP3    H276089   3.265   5.303  14.782 -1.6247  0.3584 -0.0995
18200TIP3   OH276090   2.915   0.642  11.502 -0.0548  0.1158  0.2858
18200TIP3    H176091   2.910   0.562  11.450 -2.4363  0.1212  0.4155
18200TIP3    H276092   2.894   0.712  11.441  1.7541  0.6900  0.2366
18201TIP3   OH276093   2.580   4.701  16.781 -0.1544 -0.2028  0.0440
18201TIP3    H176094   2.506   4.746  16.740 -0.8346  2.1133  3.4289
18201TIP3    H276095   2.543   4.660  16.859  1.9675  0.3803  1.4161
18202TIP3   OH276096   1.329   3.794  14.774 -0.3602  1.0026 -0.1919
18202TIP3    H176097   1.259   3.733  14.797 -0.3114  1.5774  1.7075
18202TIP3    H276098   1.409   3.743  14.778 -0.5378  0.6324 -1.1298
18203TIP3   OH276099   1.251   6.015  14.586  0.0145 -0.4079  0.3456
18203TIP3    H176100   1.178   5.960  14.614  0.0914 -0.2447  0.8913
18203TIP3    H276101   1.217   6.066  14.513 -0.0441 -1.2050 -0.1892
18204TIP3   OH276102   2.463   0.143  11.388 -0.7630  0.1743  0.7255
18204TIP3    H176103   2.444   0.110  11.476 -1.5283  0.6293  0.7380
18204TIP3    H276104   2.506   0.228  11.403 -1.1342  0.3759  0.6630
18205TIP3   OH276105   0.735   2.347  17.101  0.0499 -0.8021 -0.3100
18205TIP3    H176106   0.802   2.298  17.150 -0.6069 -0.3414  1.0898
18205TIP3    H276107   0.706   2.285  17.034 -1.9713 -3.1300  2.4371
18206TIP3   OH276108   0.020   0.913  10.845  0.3343 -0.1896  0.2219
18206TIP3    H176109   0.029   0.995  10.798 -0.5134  0.0590  0.4791
18206TIP3    H276110   0.058   0.847  10.786  1.2715  0.4077  0.1335
18207TIP3   OH276111   6.032   0.861   2.606  0.0015 -0.6052 -0.2313
18207TIP3    H176112   6.099   0.846   2.673 -0.6000 -0.4382  0.4230
18207TIP3    H276113   6.029   0.956   2.595  0.2781 -0.6471 -0.6871
18208TIP3   OH276114   2.761   1.582  16.198  0.1530  0.6795 -0.2198
18208TIP3    H176115   2.676   1.578  16.154  0.2076 -2.3801 -0.2707
18208TIP3    H276116   2.824   1.560  16.130  0.4178 -2.1202  0.7914
18209TIP3   OH276117   3.454   5.883   0.985 -0.2203 -0.3343 -0.7316
18209TIP3    H176118   3.535   5.925   1.009  0.9445 -1.9308 -1.6244
18209TIP3    H276119   3.423   5.840   1.065  0.0785 -0.1169 -0.5026
18210TIP3   OH276120   0.204   5.048   3.972 -0.0635  0.2052 -0.6725
18210TIP3    H176121   0.265   5.114   4.005  1.4281 -0.8115 -1.2975
18210TIP3    H276122   0.218   4.972   4.027 -2.2854  0.5817  0.4956
18211TIP3   OH276123   5.459   5.551   6.261 -0.3606  0.5888 -0.1989
18211TIP3    H176124   5.554   5.561   6.260 -0.4685  1.8176  0.4115
18211TIP3    H276125   5.444   5.474   6.317  0.2145  1.2995  0.9595
18212TIP3   OH276126   4.134   2.620  15.138  0.3433 -0.0094 -0.1190
18212TIP3    H176127   4.132   2.526  15.154 -2.0255  0.0944  0.5575
18212TIP3    H276128   4.215   2.650  15.180  1.1169 -1.7077 -0.3173
18213TIP3   OH276129   3.614   2.068   5.528 -0.0463 -0.0757  0.6512
18213TIP3    H176130   3.632   1.977   5.550 -0.6128 -0.5074 -0.5572
18213TIP3    H276131   3.698   2.103   5.499 -0.3568 -1.1312 -1.8081
18214TIP3   OH276132   1.921   5.556  11.896 -0.0441  0.4765 -0.4522
18214TIP3    H176133   1.922   5.557  11.800 -1.7525  1.8232 -0.5002
18214TIP3    H276134   1.947   5.645  11.920  0.0649  0.2321  0.3488
18215TIP3   OH276135   4.429   5.162  15.868  0.2718 -0.6520 -0.3697
18215TIP3    H176136   4.464   5.248  15.891  1.7057 -1.6277  1.3942
18215TIP3    H276137   4.501   5.118  15.822 -0.0722 -1.2484 -0.3530
18216TIP3   OH276138   4.910   2.213  16.620  0.5924  0.4768  0.4611
18216TIP3    H176139   4.849   2.178  16.556 -0.4567  1.9821  0.5858
18216TIP3    H276140   4.994   2.218  16.574  0.1312  0.4014 -0.3933
18217TIP3   OH276141   1.995   1.848  15.363  0.2525  0.2238 -0.2940
18217TIP3    H176142   1.945   1.766  15.355  0.6602 -0.2194  1.2988
18217TIP3    H276143   1.930   1.917  15.353 -0.4346 -0.3385  0.1698
18218TIP3   OH276144   5.072   2.837  16.788 -0.3750  0.1076 -0.3245
18218TIP3    H176145   5.057   2.814  16.880 -0.8278 -1.2967 -0.7252
18218TIP3    H276146   5.055   2.756  16.740 -1.0908  1.0663 -1.7534
18219TIP3   OH276147   4.047   3.646   3.433 -0.4111 -0.0070 -0.0312
18219TIP3    H176148   4.001   3.717   3.387  0.4630  0.3504 -0.3862
18219TIP3    H276149   4.051   3.575   3.369  0.1125  0.2100 -0.2526
18220TIP3   OH276150   1.375   4.564  12.746  0.3163 -0.8678  0.4162
18220TIP3    H176151   1.313   4.626  12.709  0.4271 -0.5880  0.6881
18220TIP3    H276152   1.362   4.483  12.697  0.7287 -0.3949 -0.4839
18221TIP3   OH276153   3.237   4.909   1.355  0.3498 -0.0341 -0.1351
18221TIP3    H176154   3.272   4.857   1.283 -0.0692  1.2325 -1.2876
18221TIP3    H276155   3.288   4.882   1.431 -0.0073 -2.2908 -0.6123
18222TIP3   OH276156   1.201   2.428   5.446 -0.2300 -0.0554  0.7183
18222TIP3    H176157   1.139   2.498   5.466  0.8503  0.7911  1.2017
18222TIP3    H276158   1.184   2.362   5.513  0.6271  1.0009  2.0318
18223TIP3   OH276159   6.641   0.578  10.784  0.2660 -0.5376 -0.0512
18223TIP3    H176160   6.717   0.521  10.776 -0.9341 -2.1575 -0.4153
18223TIP3    H276161   6.619   0.603  10.695  1.6426  1.8088  0.1627
18224TIP3   OH276162   3.258   1.233   5.444 -0.1339  0.0059  0.0233
18224TIP3    H176163   3.257   1.327   5.461  2.4651 -0.2632  2.3633
18224TIP3    H276164   3.311   1.196   5.514  1.0710 -2.9370 -2.2045
18225TIP3   OH276165   5.105   0.764  11.635 -0.2210 -0.5416  0.4268
18225TIP3    H176166   5.176   0.813  11.676  0.3341  0.0327 -1.1856
18225TIP3    H276167   5.027   0.790  11.684 -0.1877  3.0206 -1.1339
18226TIP3   OH276168   5.330   1.921  13.916 -1.2524 -0.1856  0.2461
18226TIP3    H176169   5.293   1.938  14.003 -1.0860 -1.7870  0.6554
18226TIP3    H276170   5.362   1.831  13.921 -1.3011 -0.3207 -1.5057
18227TIP3   OH276171   3.570   5.201  14.948  0.4763 -0.3092  0.2840
18227TIP3    H176172   3.508   5.176  14.879  0.5794  0.8213 -0.2337
18227TIP3    H276173   3.621   5.272  14.910  0.2696  0.6124  1.6726
18228TIP3   OH276174   5.926   4.013  13.068  0.1280 -0.0891 -0.1828
18228TIP3    H176175   5.861   4.058  13.122 -0.3023 -1.7134  0.7349
18228TIP3    H276176   5.875   3.946  13.020  1.2511 -2.6796  1.9720
18229TIP3   OH276177   6.649   0.916  17.065 -0.0033  0.6450  0.2244
18229TIP3    H176178   6.636   0.841  17.007  2.0353 -0.8841  1.6004
18229TIP3    H276179   6.680   0.986  17.008  0.6380 -0.3816 -0.7238
18230TIP3   OH276180   1.534   6.204  11.341 -0.5331  0.6159  0.0015
18230TIP3    H176181   1.513   6.121  11.299 -2.8392  0.8296  0.6131
18230TIP3    H276182   1.570   6.180  11.426  0.4709  0.2552 -0.5045
18231TIP3   OH276183   1.962   3.447  11.272 -0.0245  0.7545 -0.2422
18231TIP3    H176184   1.897   3.391  11.316  1.3406 -0.8775 -0.2040
18231TIP3    H276185   1.988   3.511  11.338  0.9429 -0.7759  0.9264
18232TIP3   OH276186   4.106   2.568  13.460 -0.2706  0.3017 -0.6414
18232TIP3    H176187   4.192   2.605  13.482 -0.1329  0.1362 -0.8903
18232TIP3    H276188   4.087   2.506  13.530  0.4445 -0.6821 -1.3037
18233TIP3   OH276189   2.850   2.315  13.549 -0.1109  0.2937  0.2667
18233TIP3    H176190   2.834   2.315  13.455  0.8290 -1.8663  0.0355
18233TIP3    H276191   2.912   2.386  13.563  0.8857 -0.2889 -1.0027
18234TIP3   OH276192   2.042   6.743   2.660  0.4667 -0.5440  0.2017
18234TIP3    H176193   1.983   6.700   2.598 -0.2951 -1.3043  1.3974
18234TIP3    H276194   2.001   6.828   2.677  0.4182 -0.5324  0.0260
18235TIP3   OH276195   6.247   6.083  16.818 -0.0056  0.3688 -0.2085
18235TIP3    H176196   6.203   6.092  16.733  1.7921  0.8689 -1.1338
18235TIP3    H276197   6.323   6.027  16.800  0.9141  1.2289  0.8717
18236TIP3   OH276198   6.585   1.769   5.942  0.3542  0.3182 -0.1252
18236TIP3    H176199   6.585   1.864   5.958  0.7247  0.1569  0.9596
18236TIP3    H276200   6.671   1.740   5.972  0.2020 -0.3820 -0.3496
18237TIP3   OH276201   3.815   5.519   2.825 -0.2170 -0.9682  0.6770
18237TIP3    H176202   3.815   5.576   2.748 -2.5452 -1.7502  0.0406
18237TIP3    H276203   3.854   5.437   2.794  0.5306 -0.6947  0.8560
18238TIP3   OH276204   4.816   2.489   4.892 -0.3383  0.5473 -0.0148
18238TIP3    H176205   4.780   2.452   4.972 -0.8132  2.4154  0.6894
18238TIP3    H276206   4.739   2.520   4.843  0.0759  2.6052  0.5061
18239TIP3   OH276207   3.862   0.202   2.460  0.3170  0.4006  0.0554
18239TIP3    H176208   3.924   0.153   2.407  0.9953  1.2229  0.0616
18239TIP3    H276209   3.786   0.214   2.403  1.1643  1.5500 -0.8702
18240TIP3   OH276210   3.799   0.318  12.208 -0.0082 -0.2771 -0.4340
18240TIP3    H176211   3.740   0.304  12.282  0.5568 -2.2694 -0.2827
18240TIP3    H276212   3.855   0.390  12.236  0.4185 -1.2026  1.2801
18241TIP3   OH276213   5.245   0.262  15.540  1.3291 -0.3769  0.4711
18241TIP3    H176214   5.264   0.283  15.449  1.7179  0.1862  0.6732
18241TIP3    H276215   5.169   0.317  15.562 -0.6047 -2.5522 -0.3106
18242TIP3   OH276216   4.229   0.159  16.003 -0.3780 -0.3451 -0.2763
18242TIP3    H176217   4.196   0.156  15.913  1.6969 -0.7022 -1.0734
18242TIP3    H276218   4.241   0.253  16.021 -0.9875 -0.2608 -0.2595
18243TIP3   OH276219   0.486   5.721   0.671  0.2368  0.4207 -0.1343
18243TIP3    H176220   0.522   5.760   0.751  0.9774 -0.4241 -0.0333
18243TIP3    H276221   0.405   5.679   0.700  0.4798  0.1541  0.1767
18244TIP3   OH276222   4.401   5.577   1.512 -0.4012  0.2614 -0.8703
18244TIP3    H176223   4.353   5.657   1.535  0.3748  1.5919 -3.5149
18244TIP3    H276224   4.476   5.608   1.461  0.7289 -2.0868 -0.7479
18245TIP3   OH276225   1.863   4.594  15.920 -0.6866  0.1678 -0.5264
18245TIP3    H176226   1.938   4.614  15.975 -1.8717  0.5319  1.0406
18245TIP3    H276227   1.798   4.556  15.980 -1.4894 -0.8282 -1.9595
18246TIP3   OH276228   5.883   0.227  15.868 -0.3480  0.2302  0.0923
18246TIP3    H176229   5.833   0.266  15.939 -2.1966  0.5732 -1.3363
18246TIP3    H276230   5.826   0.233  15.792  2.4200  1.9892 -2.0144
18247TIP3   OH276231   0.901   4.934  15.204  0.6516  0.2675 -0.5037
18247TIP3    H176232   0.985   4.942  15.249  1.3560  0.3960 -1.7897
18247TIP3    H276233   0.852   5.011  15.232  0.7845 -0.0234  0.5894
18248TIP3   OH276234   1.927   3.417   4.277  0.5360  0.3691  0.3311
18248TIP3    H176235   1.960   3.501   4.312 -1.3483  1.7323 -0.9745
18248TIP3    H276236   1.841   3.408   4.317  0.2573 -0.3705 -0.4320
18249TIP3   OH276237   6.656   5.876   2.919 -0.2561 -0.3117 -0.4093
18249TIP3    H176238   6.706   5.954   2.893  1.1132 -1.2463 -0.6578
18249TIP3    H276239   6.663   5.817   2.844  0.9633 -1.7258  0.7562
18250TIP3   OH276240   1.292   3.482  12.523  0.1107  0.2851  0.1167
18250TIP3    H176241   1.264   3.474  12.614  1.3680 -0.0930  0.4910
18250TIP3    H276242   1.214   3.512  12.477 -0.2471  1.6564  1.5082
18251TIP3   OH276243   0.155   4.390   2.192 -0.4177  0.1324 -0.0071
18251TIP3    H176244   0.127   4.300   2.175 -1.1864  0.5245 -0.9523
18251TIP3    H276245   0.119   4.440   2.119  0.4972  1.1179  0.1893
18252TIP3   OH276246   2.081   1.819   0.036  0.0064  0.0034  0.1094
18252TIP3    H176247   2.013   1.778  -0.017 -1.4142  0.1731  1.7362
18252TIP3    H276248   2.127   1.745   0.077  0.2580 -0.0748 -0.2997
18253TIP3   OH276249   2.431   2.304   3.244 -0.2473 -0.7899  0.5640
18253TIP3    H176250   2.457   2.376   3.301  0.0265 -0.4133 -0.0363
18253TIP3    H276251   2.482   2.316   3.164 -2.8686  0.5369 -1.0537
18254TIP3   OH276252   4.609   3.757  15.447 -0.1624 -0.1534  0.9896
18254TIP3    H176253   4.684   3.744  15.389  0.5481  1.9099  1.3635
18254TIP3    H276254   4.605   3.852  15.461 -3.8754  0.0846 -0.3841
18255TIP3   OH276255   5.764   1.425   5.205  0.1027  0.4046 -0.4151
18255TIP3    H176256   5.676   1.412   5.241  0.5433  0.6717  0.8367
18255TIP3    H276257   5.760   1.510   5.162 -0.3462  0.2601 -0.6609
18256TIP3   OH276258   6.591   1.924   4.645 -0.0465  0.2686 -0.6643
18256TIP3    H176259   6.560   2.014   4.640 -0.2580  0.2628  0.2154
18256TIP3    H276260   6.593   1.893   4.555 -0.5739  0.9542 -0.9159
18257TIP3   OH276261   0.686   5.052   5.315  0.0907 -0.1238  0.4643
18257TIP3    H176262   0.641   5.136   5.310 -3.2131 -1.6768  1.0437
18257TIP3    H276263   0.726   5.040   5.229 -1.4670  0.9837 -0.4572
18258TIP3   OH276264   6.046   2.101   1.970  0.3026  0.4538 -0.0824
18258TIP3    H176265   6.139   2.119   1.981  0.4088  0.2028 -0.5579
18258TIP3    H276266   6.042   2.012   1.935 -0.0670  0.8236 -1.0099
18259TIP3   OH276267   0.618   0.993  12.850  0.1918  0.2493  0.1911
18259TIP3    H176268   0.600   0.909  12.807 -0.3183  0.9678 -1.0785
18259TIP3    H276269   0.708   1.014  12.826 -0.0042  0.5204 -0.3327
18260TIP3   OH276270   6.594   4.232  13.313  0.0696  0.4083 -0.2775
18260TIP3    H176271   6.660   4.234  13.244  0.0769  0.5819 -0.2642
18260TIP3    H276272   6.581   4.323  13.337  1.8866  0.2424  1.6787
18261TIP3   OH276273   2.699   6.586  12.738 -0.6078  0.5904 -0.5797
18261TIP3    H176274   2.667   6.528  12.668 -0.8030  2.0305 -1.7422
18261TIP3    H276275   2.757   6.647  12.693  1.0217  0.2225  0.9146
18262TIP3   OH276276   2.416   1.657   0.236  0.2554 -0.0684 -0.6868
18262TIP3    H176277   2.413   1.657   0.332  1.1535 -1.9294 -0.6088
18262TIP3    H276278   2.344   1.599   0.210  0.9283 -0.7524 -1.0567
18263TIP3   OH276279   6.615   3.051   1.697 -0.0950 -0.3978 -0.2505
18263TIP3    H176280   6.588   3.141   1.682 -0.7166 -0.6115 -0.4220
18263TIP3    H276281   6.635   3.047   1.791  2.1834  0.5031 -0.6207
18264TIP3   OH276282   2.445   5.614  14.469  0.5330  0.6010 -0.9841
18264TIP3    H176283   2.476   5.575  14.388  0.7531  1.6762 -1.4198
18264TIP3    H276284   2.401   5.695  14.443 -1.1178  0.0022 -0.2238
18265TIP3   OH276285   1.736   0.009   1.671  0.1152  0.2624 -0.0708
18265TIP3    H176286   1.811   0.053   1.631 -1.7736  2.5252 -1.4017
18265TIP3    H276287   1.684   0.081   1.707 -0.8866 -1.3387  1.8296
18266TIP3   OH276288   5.816   2.550  11.380 -0.0564  0.4230  0.5166
18266TIP3    H176289   5.762   2.495  11.322  0.3717  2.4427 -1.9535
18266TIP3    H276290   5.823   2.499  11.461 -1.1932 -2.3023 -0.9618
18267TIP3   OH276291   5.567   0.949   4.148 -0.0630  0.0656  0.0888
18267TIP3    H176292   5.489   0.901   4.122 -1.2573  0.7896  2.1592
18267TIP3    H276293   5.571   0.941   4.243  1.5501  1.2885  0.1787
18268TIP3   OH276294   5.730   1.743  14.267 -0.3310  0.2044 -0.2672
18268TIP3    H176295   5.823   1.722  14.279 -0.6944 -0.9008  0.8385
18268TIP3    H276296   5.726   1.839  14.271  0.6775  0.2330  0.3422
18269TIP3   OH276297   3.481   4.423   0.146  0.2590 -0.0725  0.4981
18269TIP3    H176298   3.556   4.388   0.193 -1.0217 -1.4523  1.6192
18269TIP3    H276299   3.460   4.357   0.081 -0.3262  0.0212  0.5792
18270TIP3   OH276300   3.647   0.878  10.747  0.7547  0.6397  0.2196
18270TIP3    H176301   3.599   0.830  10.680  0.3134  1.5223 -0.1184
18270TIP3    H276302   3.605   0.964  10.750  0.2043  0.3629  2.2328
18271TIP3   OH276303   5.750   1.704  15.640 -0.3009  0.7195  0.2629
18271TIP3    H176304   5.702   1.772  15.687  2.4875  1.4496  2.3101
18271TIP3    H276305   5.766   1.636  15.705 -0.3331 -0.4568 -0.9203
18272TIP3   OH276306   2.253   1.551  16.323 -0.2502  0.4076 -0.3186
18272TIP3    H176307   2.207   1.587  16.247 -0.3378 -1.0073 -0.9611
18272TIP3    H276308   2.183   1.524  16.383 -0.1847  2.3268  0.7138
18273TIP3   OH276309   2.886   6.827   1.552 -0.1215  0.0694  0.0199
18273TIP3    H176310   2.922   6.746   1.517  1.3513 -0.0868  1.7384
18273TIP3    H276311   2.791   6.811   1.556 -0.0799 -0.7716 -1.5163
18274TIP3   OH276312   1.906   4.137  14.837  0.3090  0.2552 -0.8250
18274TIP3    H176313   1.973   4.206  14.835  1.8989 -1.2503 -1.4802
18274TIP3    H276314   1.919   4.088  14.756 -1.7386  0.0001 -1.0612
18275TIP3   OH276315   2.361   0.313  12.827 -0.5420  0.1754  0.2349
18275TIP3    H176316   2.310   0.383  12.786  1.1972  0.7700 -1.0130
18275TIP3    H276317   2.307   0.234  12.816 -1.5746  0.9303 -0.2626
18276TIP3   OH276318   1.273   4.253   3.815 -0.5162 -0.0655 -0.1444
18276TIP3    H176319   1.180   4.237   3.836 -0.7706 -0.5416 -1.5288
18276TIP3    H276320   1.277   4.346   3.792 -0.8732 -0.2875 -1.1348
18277TIP3   OH276321   6.589   5.996   3.654 -0.6107 -0.4129 -0.4517
18277TIP3    H176322   6.680   5.965   3.653 -0.7756 -1.2714  2.0761
18277TIP3    H276323   6.537   5.917   3.638 -0.9276 -0.1301 -0.8287
18278TIP3   OH276324   5.658   0.432  13.825  0.3602 -0.0779  0.2712
18278TIP3    H176325   5.576   0.450  13.872 -0.3634 -1.9216 -0.2089
18278TIP3    H276326   5.677   0.513  13.778 -1.9247 -0.0110 -0.6495
18279TIP3   OH276327   1.171   6.411  10.987 -0.2675  0.3543  0.0361
18279TIP3    H176328   1.196   6.480  11.049  0.7579  0.0240  0.0073
18279TIP3    H276329   1.220   6.334  11.017 -0.0852  0.0864 -0.9414
18280TIP3   OH276330   4.496   2.731   6.532  0.1244 -0.1653 -0.1530
18280TIP3    H176331   4.547   2.654   6.506  0.8148  0.5345 -0.9487
18280TIP3    H276332   4.561   2.801   6.539 -0.2555  0.0366  2.0427
18281TIP3   OH276333   1.358   0.210   3.503  0.2326 -0.3269 -0.3727
18281TIP3    H176334   1.306   0.147   3.453 -0.4743  0.0018 -0.0550
18281TIP3    H276335   1.396   0.267   3.436 -1.4406  0.6775 -0.5117
18282TIP3   OH276336   3.761   6.398  12.531 -0.2502 -0.2369  0.2826
18282TIP3    H176337   3.768   6.332  12.601 -1.6027  0.5858  1.2514
18282TIP3    H276338   3.754   6.481  12.577  1.1209  0.5856 -0.9225
18283TIP3   OH276339   5.627   4.528   5.437  0.2485  0.4471 -0.0318
18283TIP3    H176340   5.599   4.529   5.528 -1.2110  1.9774 -0.4491
18283TIP3    H276341   5.696   4.595   5.432  0.3928  0.2995 -0.0430
18284TIP3   OH276342   6.026   0.315  11.839 -0.7520 -0.1483 -0.2574
18284TIP3    H176343   5.968   0.366  11.895 -0.8169 -2.0961  1.5736
18284TIP3    H276344   6.108   0.365  11.836 -1.3632  0.8801  0.0501
18285TIP3   OH276345   6.333   1.496  14.086 -0.2406  0.3050 -0.0686
18285TIP3    H176346   6.238   1.500  14.075 -0.3237  1.1042  0.7977
18285TIP3    H276347   6.362   1.586  14.072  0.2277  0.3244  0.9483
18286TIP3   OH276348   2.124   3.910   5.614  0.3380 -0.1430 -0.1599
18286TIP3    H176349   2.142   3.833   5.560  1.2924  0.4478 -0.7253
18286TIP3    H276350   2.161   3.889   5.699 -1.1243 -1.0621  0.2893
18287TIP3   OH276351   0.875   4.370   3.174  0.1871  0.4520 -0.2568
18287TIP3    H176352   0.923   4.346   3.095 -0.4171  0.3274 -0.5882
18287TIP3    H276353   0.815   4.439   3.146 -0.9266 -0.4684 -0.1967
18288TIP3   OH276354   2.147   6.201  16.374 -0.4162 -0.3936 -0.1018
18288TIP3    H176355   2.212   6.270  16.377 -0.9045  0.0396  1.9735
18288TIP3    H276356   2.127   6.191  16.281  0.2925  1.6458 -0.5247
18289TIP3   OH276357   3.427   6.354   1.868  0.6255  0.8249  0.9042
18289TIP3    H176358   3.461   6.270   1.898 -1.1220 -0.4301 -0.4175
18289TIP3    H276359   3.474   6.371   1.787 -0.7254 -0.1724 -0.1390
18290TIP3   OH276360   6.783   5.722   3.304  0.6393  0.1341  0.3517
18290TIP3    H176361   6.707   5.672   3.334 -0.4045  0.9047 -0.9168
18290TIP3    H276362   6.823   5.757   3.384  1.2246 -2.4054  1.2667
18291TIP3   OH276363   0.572   5.468   1.091  0.2391 -0.5444  0.1619
18291TIP3    H176364   0.643   5.527   1.117  0.7940 -1.4094  0.6844
18291TIP3    H276365   0.493   5.510   1.124  0.4626  0.5517 -0.6214
18292TIP3   OH276366   1.431   0.995   1.419  0.2177  1.0309  0.1730
18292TIP3    H176367   1.527   0.993   1.424  0.1545 -0.6251  1.8198
18292TIP3    H276368   1.410   0.944   1.341  0.6822  0.0726  0.6497
18293TIP3   OH276369   1.639   1.670   5.472 -0.3492 -0.4319 -0.2223
18293TIP3    H176370   1.592   1.713   5.543 -0.5629 -1.2320  0.1279
18293TIP3    H276371   1.627   1.577   5.488 -0.2649 -0.6260 -1.2169
18294TIP3   OH276372   1.292   2.089  15.297  0.1412 -0.1306  0.2171
18294TIP3    H176373   1.373   2.139  15.294  2.0579 -2.9821  0.8407
18294TIP3    H276374   1.280   2.059  15.207 -0.4419  0.5253  0.0629
18295TIP3   OH276375   3.512   1.472   2.027  0.3779  1.0456  0.1705
18295TIP3    H176376   3.507   1.554   2.075 -0.5557  0.8742  0.3799
18295TIP3    H276377   3.490   1.495   1.936 -0.8714  0.8866  0.4107
18296TIP3   OH276378   4.762   3.512   2.874  0.0746  1.0110  0.0570
18296TIP3    H176379   4.721   3.473   2.796  0.9222 -0.6082  0.3723
18296TIP3    H276380   4.831   3.569   2.839  0.5206  0.2156 -0.4061
18297TIP3   OH276381   0.115   2.734  11.941 -0.4694 -0.1338  0.7818
18297TIP3    H176382   0.061   2.674  11.890 -0.1076 -0.1074  0.3582
18297TIP3    H276383   0.054   2.802  11.970 -0.2437  1.4700 -2.0735
18298TIP3   OH276384   6.359   3.989  14.656 -0.9825  0.2366  0.1285
18298TIP3    H176385   6.388   3.922  14.718  1.0421  0.0327 -0.9600
18298TIP3    H276386   6.326   4.060  14.711  1.2103  0.2697  1.5402
18299TIP3   OH276387   3.611   6.850  14.578 -0.0708  0.1655  0.1184
18299TIP3    H176388   3.652   6.819  14.659  0.3287  0.9054  0.2067
18299TIP3    H276389   3.651   6.935  14.563  0.3123 -0.2234 -1.1872
18300TIP3   OH276390   4.545   5.952   5.220  0.4740  0.4666  0.0550
18300TIP3    H176391   4.550   6.029   5.163 -1.1266  0.6792  0.1616
18300TIP3    H276392   4.543   5.988   5.309  0.4597  0.2650  0.1359
18301TIP3   OH276393   5.625   0.398  10.419  0.0719 -0.4284  0.3766
18301TIP3    H176394   5.546   0.374  10.369  0.8049  0.1937 -1.1440
18301TIP3    H276395   5.615   0.492  10.435 -0.0266 -0.5706  1.2128
18302TIP3   OH276396   2.564   5.232   4.169  0.6886 -0.1152  0.0902
18302TIP3    H176397   2.550   5.201   4.259  0.1165 -1.1571 -0.3438
18302TIP3    H276398   2.482   5.211   4.124  1.6323 -1.2521 -1.1373
18303TIP3   OH276399   5.840   6.756  16.865  0.1264 -0.0343 -0.1257
18303TIP3    H176400   5.900   6.722  16.798  0.1262 -0.8499  0.2716
18303TIP3    H276401   5.896   6.795  16.931  0.1368  0.5893 -0.4968
18304TIP3   OH276402   4.674   5.992  12.836 -0.0446  0.3987 -0.0368
18304TIP3    H176403   4.680   6.086  12.852  0.4502  0.3573  0.0447
18304TIP3    H276404   4.751   5.972  12.782  0.1573 -0.0484  0.4040
18305TIP3   OH276405   3.334   1.882   3.327 -0.2260 -0.4268  0.3143
18305TIP3    H176406   3.270   1.816   3.299 -1.7112  0.8273  0.5899
18305TIP3    H276407   3.412   1.864   3.274 -1.5625 -0.6188 -1.7104
18306TIP3   OH276408   3.471   6.558   0.689 -0.7347  0.0388  0.3342
18306TIP3    H176409   3.530   6.623   0.728  0.5210 -2.1768  2.5072
18306TIP3    H276410   3.405   6.543   0.756  0.2525 -2.3857  0.8628
18307TIP3   OH276411   3.252   2.843   3.050  0.2219 -0.1691  0.4203
18307TIP3    H176412   3.208   2.922   3.082 -1.4722 -0.7076 -0.4694
18307TIP3    H276413   3.192   2.772   3.069  1.1934 -1.0931  0.1229
18308TIP3   OH276414   2.056   3.223  13.463  0.0799 -0.2002  0.0887
18308TIP3    H176415   2.102   3.306  13.463 -1.7334  0.8691  1.0158
18308TIP3    H276416   2.078   3.183  13.548 -1.1500  0.6404  0.8498
18309TIP3   OH276417   4.038   0.638  13.814 -0.6690  0.3093  0.4284
18309TIP3    H176418   4.090   0.605  13.741 -2.1777 -0.6144 -0.2780
18309TIP3    H276419   4.071   0.726  13.829  2.1314 -0.7145  1.0248
18310TIP3   OH276420   5.643   4.479   4.736 -0.3750  0.4696 -0.4355
18310TIP3    H176421   5.555   4.517   4.741 -0.9624 -0.9285  0.4172
18310TIP3    H276422   5.700   4.553   4.717 -1.6107  1.5642 -0.0136
18311TIP3   OH276423   6.169   0.553  15.084 -0.4260 -0.2216  0.7586
18311TIP3    H176424   6.176   0.514  14.998  0.0767 -0.7312  1.0257
18311TIP3    H276425   6.254   0.596  15.098 -0.5437 -0.0487  0.9568
18312TIP3   OH276426   0.176   5.390   1.148  0.3418  0.5502 -0.1601
18312TIP3    H176427   0.104   5.335   1.180  1.0586 -0.5660 -0.4082
18312TIP3    H276428   0.163   5.395   1.054  1.0055 -0.3179 -0.3151
18313TIP3   OH276429   2.347   3.368  16.137 -0.2950 -0.0006  0.8109
18313TIP3    H176430   2.400   3.293  16.109 -0.5517  0.3707 -0.7686
18313TIP3    H276431   2.269   3.329  16.176  0.0852 -0.5537  1.0355
18314TIP3   OH276432   5.672   6.727  12.648 -0.9234 -0.3907  0.0524
18314TIP3    H176433   5.645   6.638  12.668  0.5245 -0.5266  1.5876
18314TIP3    H276434   5.732   6.718  12.573 -0.9757 -0.6722  0.0431
18315TIP3   OH276435   1.225   2.683   1.461 -0.3376 -0.2512  0.2255
18315TIP3    H176436   1.263   2.750   1.518 -0.7387  0.2764 -0.1220
18315TIP3    H276437   1.280   2.606   1.477 -1.8655 -0.8877  3.1447
18316TIP3   OH276438   5.083   1.307  13.635 -0.0078  0.2259 -0.0681
18316TIP3    H176439   4.988   1.295  13.634  0.1079 -1.0232 -1.6733
18316TIP3    H276440   5.102   1.348  13.551  0.8128  1.1623  0.5605
18317TIP3   OH276441   3.202   2.951  12.061  0.0763 -0.1339  0.4704
18317TIP3    H176442   3.224   2.868  12.018  0.8065 -0.3477  1.2442
18317TIP3    H276443   3.108   2.944  12.079  0.3693 -1.3573  1.7049
18318TIP3   OH276444   5.985   5.041  13.348 -0.2311 -0.0581  0.4142
18318TIP3    H176445   5.934   5.081  13.418 -0.8978  1.0829 -0.6824
18318TIP3    H276446   5.988   5.107  13.279 -0.6839 -1.5745 -1.1666
18319TIP3   OH276447   0.737   5.467   4.265 -0.6342  0.3799 -0.6205
18319TIP3    H176448   0.693   5.416   4.197 -1.1463  0.4926 -0.3766
18319TIP3    H276449   0.830   5.452   4.249 -0.7794 -1.1264 -0.1887
18320TIP3   OH276450   4.591   4.995  13.592  0.0034  0.1019 -0.4423
18320TIP3    H176451   4.568   4.919  13.646  0.2393 -0.0319 -0.5257
18320TIP3    H276452   4.595   4.960  13.503 -1.0076  0.4530 -0.6355
18321TIP3   OH276453   0.538   0.387   5.116 -0.4694  0.2035 -0.7287
18321TIP3    H176454   0.449   0.407   5.086 -0.6506 -1.2768 -1.2890
18321TIP3    H276455   0.591   0.386   5.037 -0.1315  0.2136 -0.5048
18322TIP3   OH276456   4.091   4.440  13.511 -0.1740  0.2935 -0.1137
18322TIP3    H176457   4.092   4.503  13.439 -0.8118 -0.3174 -0.6710
18322TIP3    H276458   4.180   4.441  13.546 -0.2918  1.8679  0.2166
18323TIP3   OH276459   4.827   2.637   0.801 -0.3196  0.6430  0.0437
18323TIP3    H176460   4.777   2.688   0.738  1.9597  0.8349 -1.7503
18323TIP3    H276461   4.904   2.691   0.820 -0.3767  0.0788  2.1585
18324TIP3   OH276462   1.687   3.310   5.770 -0.0872  0.5324  0.2066
18324TIP3    H176463   1.603   3.345   5.799 -1.1699 -2.0844  0.4728
18324TIP3    H276464   1.715   3.253   5.841  0.6362 -0.6063 -0.9579
18325TIP3   OH276465   2.306   4.051   2.821  0.1149 -0.6232  0.4289
18325TIP3    H176466   2.293   4.031   2.729  2.1630 -1.7824  0.3335
18325TIP3    H276467   2.218   4.051   2.859 -0.7413 -0.2497 -1.4762
18326TIP3   OH276468   1.779   3.314  11.443  0.1110  0.0433  0.2558
18326TIP3    H176469   1.855   3.262  11.469  2.4552  3.1428  0.2159
18326TIP3    H276470   1.736   3.336  11.525  1.0525  0.7231  0.5885
18327TIP3   OH276471   6.640   5.658   2.410  0.1885 -0.2114  0.2404
18327TIP3    H176472   6.724   5.634   2.369 -0.5881 -3.7440  0.3879
18327TIP3    H276473   6.574   5.613   2.358 -1.3593 -0.0760  1.9766
18328TIP3   OH276474   1.491   2.936  13.307  0.1455 -0.7261 -0.3962
18328TIP3    H176475   1.472   2.842  13.313 -1.7566 -0.3576  0.3374
18328TIP3    H276476   1.447   2.964  13.227 -0.6833 -0.1971  0.2310
18329TIP3   OH276477   2.962   2.511   2.358  0.6504 -0.3316  0.1879
18329TIP3    H176478   3.018   2.475   2.427  0.8658  0.1992  0.2973
18329TIP3    H276479   2.999   2.476   2.276 -0.6614 -2.3822  0.4218
18330TIP3   OH276480   4.338   5.969   4.522  0.3243  0.0584  0.4332
18330TIP3    H176481   4.360   5.974   4.615 -0.2660 -0.5410  0.6191
18330TIP3    H276482   4.277   6.042   4.507 -1.1769 -1.0341  1.0060
18331TIP3   OH276483   6.300   2.824  12.545  0.2433 -0.1688  0.6811
18331TIP3    H176484   6.266   2.752  12.491 -0.4292  0.8043 -0.2198
18331TIP3    H276485   6.384   2.791  12.577 -0.0698 -1.3766  0.3277
18332TIP3   OH276486   0.291   5.649  15.706  0.3462  0.0137 -0.6552
18332TIP3    H176487   0.313   5.573  15.653  4.1471 -1.5345  2.6853
18332TIP3    H276488   0.238   5.614  15.778  1.1373  0.7090  0.2852
18333TIP3   OH276489   3.029   4.600  11.795 -0.2552 -0.0674 -0.9621
18333TIP3    H176490   3.019   4.507  11.775  1.7341 -0.4681 -0.3464
18333TIP3    H276491   2.982   4.611  11.878  3.0539 -1.6385  1.3721
18334TIP3   OH276492   5.591   0.573   3.784  0.1720 -1.0975 -0.1265
18334TIP3    H176493   5.520   0.515   3.809  1.5733 -2.6752  0.3606
18334TIP3    H276494   5.558   0.620   3.708 -1.7106 -1.0970  0.6317
18335TIP3   OH276495   6.511   1.987  12.144 -0.0883  0.2677 -0.0606
18335TIP3    H176496   6.495   1.894  12.160  0.5892  0.0716 -0.4880
18335TIP3    H276497   6.548   2.019  12.226  1.2112 -0.2189 -0.4320
18336TIP3   OH276498   2.368   5.397   1.795  0.2261 -0.0273 -0.1013
18336TIP3    H176499   2.450   5.380   1.839  0.6267  1.9298  0.0117
18336TIP3    H276500   2.301   5.386   1.862  0.6064  0.4576  0.3656
18337TIP3   OH276501   5.815   2.536   1.784 -0.8685  0.0186 -0.3706
18337TIP3    H176502   5.768   2.520   1.702  1.0646 -0.6588 -1.4381
18337TIP3    H276503   5.830   2.448   1.820  1.5116 -0.0194 -1.2754
18338TIP3   OH276504   5.568   1.139  13.010  0.3423  0.6812 -0.1096
18338TIP3    H176505   5.478   1.156  12.984  0.7796  0.9518 -1.5590
18338TIP3    H276506   5.604   1.085  12.939  1.6739  1.6283 -0.1930
18339TIP3   OH276507   5.009   1.704   0.113 -0.0350  0.1186 -0.1848
18339TIP3    H176508   4.960   1.626   0.088 -0.5098  0.0066  1.0375
18339TIP3    H276509   4.967   1.734   0.194  1.7655  0.1409  0.7905
18340TIP3   OH276510   6.540   2.947  12.922 -0.0253 -0.4383  0.0700
18340TIP3    H176511   6.500   3.021  12.967  3.1474  2.4587 -1.4910
18340TIP3    H276512   6.598   2.908  12.987  1.1561  0.9030 -0.1453
18341TIP3   OH276513   6.382   6.245   1.597 -0.4240  0.1415 -0.1547
18341TIP3    H176514   6.404   6.313   1.533  1.1826 -0.1926 -0.0118
18341TIP3    H276515   6.294   6.267   1.626 -0.8370  0.8476 -1.7789
18342TIP3   OH276516   4.133   6.630  16.637 -0.5108  0.0865  0.5228
18342TIP3    H176517   4.111   6.591  16.552 -1.9172 -0.1517  0.9693
18342TIP3    H276518   4.126   6.558  16.699 -1.5866  0.6989  1.1321
18343TIP3   OH276519   6.798   5.444  12.565  0.0093  0.0420 -0.3273
18343TIP3    H176520   6.867   5.403  12.513  1.4895 -1.3204  2.5132
18343TIP3    H276521   6.738   5.372  12.586 -0.4671  0.5290  0.0171
18344TIP3   OH276522   2.451   3.492   1.218  0.0571 -0.2671 -0.3354
18344TIP3    H176523   2.520   3.439   1.176 -0.9875 -0.2950 -2.1149
18344TIP3    H276524   2.370   3.444   1.199 -0.5318  0.0631  1.2356
18345TIP3   OH276525   6.202   3.035   6.211  0.2752  0.2445  0.2785
18345TIP3    H176526   6.194   3.001   6.122 -2.0554  0.0057  0.5076
18345TIP3    H276527   6.224   3.127   6.200  1.5796 -0.1288 -0.4730
18346TIP3   OH276528   3.608   3.981  14.497  0.0255 -0.0324  0.3235
18346TIP3    H176529   3.702   3.991  14.512  0.4839 -1.1450 -1.4460
18346TIP3    H276530   3.584   3.905  14.550  0.0761  0.3878  0.9523
18347TIP3   OH276531   2.807   4.718   1.955 -0.2090  0.3141  0.0684
18347TIP3    H176532   2.809   4.800   2.005 -0.1505  0.3450  0.0171
18347TIP3    H276533   2.735   4.668   1.992 -0.3709  0.4730 -0.0314
18348TIP3   OH276534   5.118   2.687  13.375  0.0296  0.2742  0.2216
18348TIP3    H176535   5.188   2.624  13.357 -0.7652 -0.4353 -0.5002
18348TIP3    H276536   5.120   2.699  13.470  1.3102  0.4957  0.1797
18349TIP3   OH276537   5.196   5.121   1.249  0.5137  1.0208  0.1337
18349TIP3    H176538   5.204   5.202   1.299  2.3558  0.1227  1.4093
18349TIP3    H276539   5.283   5.081   1.253 -0.5178 -1.4249  0.3058
18350TIP3   OH276540   2.083   0.686  10.387  0.0490  0.5108 -0.2794
18350TIP3    H176541   2.094   0.630  10.310  0.3432  2.6044 -1.8700
18350TIP3    H276542   2.084   0.626  10.461  0.4079 -1.5478 -1.8556
18351TIP3   OH276543   2.157   0.398  14.900 -0.4741  0.4928 -0.1986
18351TIP3    H176544   2.193   0.372  14.815  1.1548 -2.0181  1.0937
18351TIP3    H276545   2.087   0.335  14.917  0.7582 -0.5812  1.2377
18352TIP3   OH276546   4.462   0.991   0.868  0.1420 -0.2085  0.5263
18352TIP3    H176547   4.438   0.902   0.842  0.5754 -0.1383 -0.1467
18352TIP3    H276548   4.555   0.997   0.849  0.3335  0.0764  1.4997
18353TIP3   OH276549   1.611   4.653   3.307 -0.3634 -0.6990 -0.7634
18353TIP3    H176550   1.680   4.628   3.245  0.8389 -2.0779  1.0148
18353TIP3    H276551   1.549   4.580   3.303  0.8109 -1.8715  1.1240
18354TIP3   OH276552   4.329   0.030   3.611 -0.1512  0.2332  0.0946
18354TIP3    H176553   4.257   0.093   3.604 -1.4304 -1.0848  0.9750
18354TIP3    H276554   4.384   0.049   3.535 -1.0843  1.6753 -0.2614
18355TIP3   OH276555   3.380   1.348   4.629 -0.0698  0.3738  0.2616
18355TIP3    H176556   3.464   1.327   4.588 -0.5273  0.6875 -0.8835
18355TIP3    H276557   3.343   1.263   4.653  0.5152  0.2279  0.6661
18356TIP3   OH276558   3.910   6.617  14.227  0.2180  0.6059  0.5211
18356TIP3    H176559   3.890   6.540  14.279  0.7835 -0.5567 -0.8926
18356TIP3    H276560   3.859   6.605  14.147  0.9036  1.3081 -0.0340
18357TIP3   OH276561   1.337   3.131   0.033 -0.3341 -0.2395 -0.2348
18357TIP3    H176562   1.313   3.147   0.125  1.2304  0.9477  0.0156
18357TIP3    H276563   1.255   3.139  -0.015 -0.9546  0.6142  0.9058
18358TIP3   OH276564   4.576   1.397  13.974 -0.2290  0.1085  0.3053
18358TIP3    H176565   4.533   1.335  13.914 -2.9792  3.2147 -1.2403
18358TIP3    H276566   4.543   1.372  14.060 -1.8085 -0.2508 -0.3540
18359TIP3   OH276567   6.259   1.376  14.646 -0.3576  0.3800  0.6408
18359TIP3    H176568   6.164   1.384  14.652 -0.4247 -0.1535  0.4101
18359TIP3    H276569   6.288   1.460  14.613 -0.6173  0.9984  1.9235
18360TIP3   OH276570   5.420   6.194  11.986  0.2087 -0.0467 -0.3983
18360TIP3    H176571   5.508   6.218  12.016  0.2350  0.0431 -0.5473
18360TIP3    H276572   5.412   6.235  11.900  0.0294 -0.0742 -0.3951
18361TIP3   OH276573   5.529   1.934  15.752  0.8110 -0.2926 -0.2437
18361TIP3    H176574   5.580   1.983  15.688  0.6270  0.6910  0.3416
18361TIP3    H276575   5.439   1.964  15.740  0.4106 -1.7204 -0.9942
18362TIP3   OH276576   6.761   6.087   2.787 -0.0499  0.3660 -0.2802
18362TIP3    H176577   6.800   6.059   2.704  0.0672 -0.1274 -0.0600
18362TIP3    H276578   6.779   6.181   2.790  0.2450  0.3268 -0.6583
18363TIP3   OH276579   5.874   2.986  16.415  0.2030 -0.0451 -0.2985
18363TIP3    H176580   5.803   2.935  16.453  1.6611 -0.6104  1.8247
18363TIP3    H276581   5.834   3.069  16.391 -1.7817 -1.3870 -1.9908
18364TIP3   OH276582   2.145   1.810   4.143 -0.6948 -0.2365  0.1520
18364TIP3    H176583   2.104   1.768   4.067 -0.7221 -1.3592  0.7545
18364TIP3    H276584   2.072   1.848   4.191 -0.5407  1.8760 -1.1455
18365TIP3   OH276585   3.187   3.739   5.432  0.8456 -0.1403 -0.0944
18365TIP3    H176586   3.113   3.794   5.457  0.6679 -0.6357  0.4883
18365TIP3    H276587   3.195   3.675   5.503  2.0713  0.1473  0.0594
18366TIP3   OH276588   5.883   5.450  13.190  0.4933 -0.3523  0.5992
18366TIP3    H176589   5.801   5.495  13.167  0.0151 -1.8653 -0.8511
18366TIP3    H276590   5.924   5.507  13.255 -1.3743  0.7955  0.8553
18367TIP3   OH276591   0.205   5.995  14.456 -0.1991 -0.1307  0.2868
18367TIP3    H176592   0.171   5.944  14.529 -1.7983 -1.9079 -1.5567
18367TIP3    H276593   0.133   6.053  14.430 -0.1577 -0.4697 -0.6580
18368TIP3   OH276594   2.532   0.710   1.754 -0.5466  0.3613  0.5686
18368TIP3    H176595   2.539   0.744   1.843 -1.2899 -0.3961  0.9331
18368TIP3    H276596   2.476   0.773   1.708 -0.1570  0.7559  0.6235
18369TIP3   OH276597   2.354   5.407  11.880  0.2216  0.5605 -0.1671
18369TIP3    H176598   2.413   5.483  11.883  0.9803 -0.0006 -0.3809
18369TIP3    H276599   2.413   5.333  11.864 -0.6138  0.0412 -0.8631
18370TIP3   OH276600   2.260   4.241   1.371 -0.4962  0.2319  0.6216
18370TIP3    H176601   2.190   4.199   1.320  0.5583 -0.8744  0.0172
18370TIP3    H276602   2.296   4.170   1.423  1.0054  0.4805 -0.0372
18371TIP3   OH276603   6.572   3.483   2.565 -0.4734 -0.3288  0.2333
18371TIP3    H176604   6.480   3.479   2.539 -0.4081  1.6733 -0.4649
18371TIP3    H276605   6.621   3.460   2.486 -0.3498  1.4400 -0.2298
18372TIP3   OH276606   4.093   0.361   3.297  0.7167 -0.3949 -0.6823
18372TIP3    H176607   4.187   0.354   3.314  0.8495  0.5139 -1.0144
18372TIP3    H276608   4.063   0.270   3.292  1.4536 -0.6960  0.0926
18373TIP3   OH276609   0.631   2.944  16.650 -0.6760  0.5619  0.3226
18373TIP3    H176610   0.641   3.039  16.655 -1.4471  0.7086 -0.5057
18373TIP3    H276611   0.549   2.932  16.601 -0.2620 -0.5264 -0.1200
18374TIP3   OH276612   0.484   1.205   3.870 -0.3023  0.0437  0.0199
18374TIP3    H176613   0.438   1.123   3.848 -1.1543  0.5442 -0.1005
18374TIP3    H276614   0.535   1.183   3.948 -0.3920 -0.6494 -0.1067
18375TIP3   OH276615   1.892   0.146   2.643  0.3237  0.8885 -0.5689
18375TIP3    H176616   1.901   0.213   2.710  1.3726 -0.2138  0.4674
18375TIP3    H276617   1.799   0.146   2.620 -0.3412  0.5009  1.7940
18376TIP3   OH276618   2.490   0.695   2.424  0.4834  0.3866 -0.0210
18376TIP3    H176619   2.415   0.684   2.366  1.6525  1.3505 -1.8002
18376TIP3    H276620   2.555   0.633   2.391  0.9477  0.5061  0.6597
18377TIP3   OH276621   1.719   5.981  16.276  0.0612 -0.3295  0.1979
18377TIP3    H176622   1.774   6.025  16.211  1.4430 -2.1471  0.0493
18377TIP3    H276623   1.659   5.928  16.223  0.7409 -1.2915  0.3637
18378TIP3   OH276624   0.747   1.447   1.562 -0.7020 -0.4079 -0.5553
18378TIP3    H176625   0.719   1.432   1.652 -0.5258  0.7067 -0.3104
18378TIP3    H276626   0.830   1.400   1.555 -1.6494 -2.1521 -0.7361
18379TIP3   OH276627   3.944   2.237   2.427  0.5366  0.2076  0.1517
18379TIP3    H176628   3.930   2.277   2.341  2.8017  0.8454  0.0185
18379TIP3    H276629   3.886   2.286   2.486 -0.7985 -0.0175 -0.9236
18380TIP3   OH276630   3.198   6.624  14.065  0.3092  0.6153 -0.7979
18380TIP3    H176631   3.243   6.698  14.106 -0.4431  1.3388 -1.2351
18380TIP3    H276632   3.205   6.553  14.129  0.6836  1.1901 -0.1863
18381TIP3   OH276633   3.138   4.230  14.380 -0.1991  0.1512  0.6203
18381TIP3    H176634   3.222   4.211  14.420  0.8887 -0.1514 -1.6637
18381TIP3    H276635   3.140   4.184  14.296 -2.5898  0.2612  0.4393
18382TIP3   OH276636   5.135   3.760   6.544  0.1418 -0.5166 -0.3664
18382TIP3    H176637   5.071   3.707   6.496 -0.1815  0.3682 -0.9399
18382TIP3    H276638   5.082   3.813   6.604  0.2701  0.5533 -1.1652
18383TIP3   OH276639   5.753   6.221  16.732 -0.1721  0.1224 -0.1097
18383TIP3    H176640   5.701   6.146  16.703  0.4534 -0.7550  0.9545
18383TIP3    H276641   5.780   6.199  16.821  2.8422  0.0408 -0.9162
18384TIP3   OH276642   3.944   0.193  11.998  0.0560  0.0044  0.1758
18384TIP3    H176643   3.871   0.239  12.039  0.5106  0.6484  0.2771
18384TIP3    H276644   3.995   0.262  11.955  2.1996  0.0274  2.5104
18385TIP3   OH276645   1.435   3.241  15.716  0.0594 -0.1080 -0.3343
18385TIP3    H176646   1.450   3.233  15.810  1.8501 -2.5964 -0.7502
18385TIP3    H276647   1.452   3.334  15.697  1.8333 -0.0095  1.4723
18386TIP3   OH276648   2.507   2.901  12.118 -0.3754 -0.5934 -0.2256
18386TIP3    H176649   2.568   2.841  12.075  0.0375 -1.1286  1.0647
18386TIP3    H276650   2.536   2.988  12.090  0.1118 -0.9026 -0.7138
18387TIP3   OH276651   4.620   2.042   0.332  0.1614  0.2291  0.0882
18387TIP3    H176652   4.620   1.946   0.334 -0.6360  0.1044 -2.3891
18387TIP3    H276653   4.706   2.066   0.366  0.9546 -1.4452 -0.6020
18388TIP3   OH276654   6.777   0.820   3.905 -0.4312  0.1416  0.3592
18388TIP3    H176655   6.740   0.857   3.825 -2.3238  2.3625  2.1606
18388TIP3    H276656   6.702   0.801   3.960  0.8186 -1.6436  1.5490
18389TIP3   OH276657   5.577   4.448  11.867 -0.0292  0.9869 -0.2164
18389TIP3    H176658   5.647   4.502  11.828 -0.0489  2.4759  1.6884
18389TIP3    H276659   5.598   4.445  11.960 -1.4762 -0.1765  0.1078
18390TIP3   OH276660   3.547   3.593  13.001  0.0324 -0.0922  0.0933
18390TIP3    H176661   3.462   3.573  12.963 -0.2989  1.3378 -0.0041
18390TIP3    H276662   3.606   3.528  12.963 -0.6985 -0.0384 -1.2128
18391TIP3   OH276663   0.628   5.233  15.158 -0.0667 -0.7358  0.2595
18391TIP3    H176664   0.582   5.297  15.213 -1.8052 -0.8283 -0.9948
18391TIP3    H276665   0.720   5.242  15.183 -0.5952  0.3007  2.0587
18392TIP3   OH276666   5.650   3.673   3.781  0.3907 -0.0191  0.3993
18392TIP3    H176667   5.602   3.737   3.833 -1.2675 -1.7407  1.1353
18392TIP3    H276668   5.582   3.623   3.736  1.5811 -1.4279  0.0684
18393TIP3   OH276669   5.117   4.124   1.774  0.1954  0.3059  0.4748
18393TIP3    H176670   5.075   4.195   1.821 -0.0419 -0.3415  1.2718
18393TIP3    H276671   5.204   4.158   1.751  0.2444  0.7037  1.2168
18394TIP3   OH276672   4.202   3.142   2.378  0.3410 -0.1440 -0.0222
18394TIP3    H176673   4.226   3.154   2.287 -0.5178  1.5737 -0.0760
18394TIP3    H276674   4.107   3.154   2.379  0.5977  2.3904  1.3995
18395TIP3   OH276675   6.124   5.631   6.514  0.4291  0.5627 -0.2652
18395TIP3    H176676   6.130   5.716   6.471  0.3390  0.4174 -0.5678
18395TIP3    H276677   6.032   5.624   6.541  0.3414  0.3825 -0.6099
18396TIP3   OH276678   1.700   2.652  12.362 -0.3540  0.3183  0.5252
18396TIP3    H176679   1.647   2.710  12.415 -0.8049 -0.0607  0.4995
18396TIP3    H276680   1.643   2.626  12.290  0.8191  2.3103 -1.2498
18397TIP3   OH276681   0.201   5.736  16.727  0.1957 -0.4520  0.3837
18397TIP3    H176682   0.144   5.777  16.662  1.5827 -1.1123 -1.3252
18397TIP3    H276683   0.207   5.800  16.798 -1.8143  0.0435  0.1658
18398TIP3   OH276684   0.941   6.546   0.784 -0.3554 -0.5459 -0.0844
18398TIP3    H176685   1.011   6.529   0.846 -1.3419 -0.5756  1.0577
18398TIP3    H276686   0.953   6.481   0.715  0.9412 -0.3021 -0.1015
18399TIP3   OH276687   1.442   1.263   0.163  0.1200 -0.2704  0.2517
18399TIP3    H176688   1.430   1.180   0.116 -1.5432 -0.1177  0.3536
18399TIP3    H276689   1.414   1.330   0.100 -0.6830  0.0449  0.9370
18400TIP3   OH276690   0.512   4.049  14.565 -0.1685 -0.8580 -0.2913
18400TIP3    H176691   0.576   4.007  14.621 -0.5386  0.8882  1.5400
18400TIP3    H276692   0.443   4.079  14.624 -1.4967 -0.5409 -1.9048
18401TIP3   OH276693   2.808   6.338  17.011 -0.0332 -0.2588  0.0760
18401TIP3    H176694   2.788   6.409  16.950  1.0874  1.0916  1.2157
18401TIP3    H276695   2.850   6.271  16.957 -2.0503 -0.5624 -1.2112
18402TIP3   OH276696   1.773   2.312  11.067 -0.1379 -0.0022 -0.4399
18402TIP3    H176697   1.707   2.359  11.016 -1.4267 -1.2553  0.0023
18402TIP3    H276698   1.770   2.353  11.153 -2.2309 -1.6406  0.3621
18403TIP3   OH276699   4.075   5.497   3.653  0.0177  0.0532  0.0398
18403TIP3    H176700   4.056   5.410   3.689 -2.0638  0.0493 -0.9115
18403TIP3    H276701   4.083   5.482   3.558  0.1512  0.8120 -0.0763
18404TIP3   OH276702   4.913   5.426  16.548 -0.3861 -0.2584 -0.1064
18404TIP3    H176703   4.949   5.488  16.485  0.8093 -1.1542 -0.3536
18404TIP3    H276704   4.988   5.373  16.575 -1.0203 -0.4193  1.4797
18405TIP3   OH276705   1.804   5.297  13.860 -0.6453 -0.3129 -0.2415
18405TIP3    H176706   1.804   5.211  13.901  0.5885 -0.8054 -1.1948
18405TIP3    H276707   1.872   5.346  13.907 -0.7423 -0.1494 -0.2692
18406TIP3   OH276708   5.298   0.448  10.753 -0.1440  0.4388  0.2060
18406TIP3    H176709   5.233   0.422  10.818  0.3044 -0.4086  0.3398
18406TIP3    H276710   5.248   0.464  10.673 -0.3819 -1.9147 -0.1914
18407TIP3   OH276711   3.356   3.070  11.329 -0.3398 -0.2028 -0.6825
18407TIP3    H176712   3.299   3.122  11.273  0.8155 -0.8770 -2.6044
18407TIP3    H276713   3.309   2.987  11.341 -0.2210 -0.3850 -1.4210
18408TIP3   OH276714   1.973   0.235  10.958  0.4420 -0.0145  0.0825
18408TIP3    H176715   1.904   0.221  11.022  0.4564 -0.0089  0.0997
18408TIP3    H276716   1.926   0.258  10.877  0.4021 -0.6257 -0.0665
18409TIP3   OH276717   0.407   3.665   4.028  0.2621 -0.1866 -0.1245
18409TIP3    H176718   0.457   3.696   3.952 -0.0714 -0.4368 -0.4443
18409TIP3    H276719   0.460   3.594   4.063  1.3144  1.0606  0.9398
18410TIP3   OH276720   4.142   6.436   6.050 -0.3480  0.8191  0.2915
18410TIP3    H176721   4.208   6.407   5.987 -1.5004 -0.2264 -0.4678
18410TIP3    H276722   4.193   6.466   6.126  1.0562  1.8282 -1.0006
18411TIP3   OH276723   2.578   1.848  13.384  0.5490 -0.5785 -0.9744
18411TIP3    H176724   2.570   1.905  13.307 -0.2294 -0.4709 -0.8175
18411TIP3    H276725   2.665   1.809  13.375  0.7386 -0.0501 -1.5541
18412TIP3   OH276726   5.409   0.060  16.268 -0.1694 -0.6830  0.3912
18412TIP3    H176727   5.453  -0.012  16.223  0.8856 -0.4297  0.9685
18412TIP3    H276728   5.469   0.134  16.259 -0.2811 -0.4296  1.5509
18413TIP3   OH276729   4.272   3.398  15.712  0.2554 -0.6311 -0.1824
18413TIP3    H176730   4.330   3.326  15.687  1.9201 -0.2932  2.3660
18413TIP3    H276731   4.323   3.477  15.695 -0.2871 -0.2199  0.0687
18414TIP3   OH276732   4.812   5.869  14.274  0.1671 -0.1203 -0.2136
18414TIP3    H176733   4.827   5.888  14.366 -0.7032  0.0188 -0.0992
18414TIP3    H276734   4.722   5.895  14.258 -0.2349 -1.7078 -0.6836
18415TIP3   OH276735   5.890   4.451  12.623  0.3016 -0.4568 -0.2526
18415TIP3    H176736   5.965   4.508  12.636  0.4387 -0.5818 -0.4938
18415TIP3    H276737   5.825   4.506  12.578 -0.6102  0.3257  1.8833
18416TIP3   OH276738   1.817   1.154   5.484  0.0047  0.0675  0.6264
18416TIP3    H176739   1.807   1.073   5.534  0.0639 -0.6197 -0.4522
18416TIP3    H276740   1.866   1.129   5.407 -1.7443  0.6968 -0.7598
18417TIP3   OH276741   5.933   3.121  15.422  0.4920 -0.7026  0.3980
18417TIP3    H176742   5.921   3.038  15.468  0.1224 -1.4527 -1.0013
18417TIP3    H276743   5.853   3.132  15.372 -0.0229  1.1705  1.5203
18418TIP3   OH276744   5.805   5.636  13.734 -0.1156 -0.4477 -0.4038
18418TIP3    H176745   5.839   5.642  13.823 -0.0658 -1.2700 -0.3589
18418TIP3    H276746   5.710   5.632  13.744 -0.3037  1.9295 -0.5316
18419TIP3   OH276747   2.119   4.648  15.781 -0.3887 -0.0483 -0.0156
18419TIP3    H176748   2.089   4.737  15.764 -0.5115 -0.7439 -4.7194
18419TIP3    H276749   2.047   4.592  15.753 -1.1507 -1.8527  4.7205
18420TIP3   OH276750   1.458   5.714  13.886 -0.1952  0.1349 -0.5076
18420TIP3    H176751   1.384   5.686  13.832  1.4430 -2.1718 -1.7590
18420TIP3    H276752   1.534   5.701  13.830  1.1846  3.0508  0.5031
18421TIP3   OH276753   6.756   3.904  15.745 -0.2038  0.0092  0.3484
18421TIP3    H176754   6.795   3.941  15.665  0.1290 -0.9014  0.0776
18421TIP3    H276755   6.801   3.949  15.817 -1.0978  1.4641  0.0557
18422TIP3   OH276756   0.411   5.219   2.230  0.2215 -0.3686 -0.1573
18422TIP3    H176757   0.361   5.147   2.268 -0.1360 -0.3634 -0.6114
18422TIP3    H276758   0.428   5.191   2.140 -1.5794  0.9251 -0.9454
18423TIP3   OH276759   4.829   6.120   3.566  0.3482  0.7139  0.2629
18423TIP3    H176760   4.901   6.100   3.625  0.3760  1.2220  0.4026
18423TIP3    H276761   4.871   6.141   3.482  0.2767 -0.7792 -0.1763
18424TIP3   OH276762   2.973   3.408  13.099  0.3318 -0.1871 -0.1266
18424TIP3    H176763   2.884   3.442  13.085  0.5809 -0.3062 -2.3525
18424TIP3    H276764   2.960   3.318  13.128 -0.2776  0.8112  3.0869
18425TIP3   OH276765   2.125   3.108   3.048 -0.3550  0.6243 -0.7382
18425TIP3    H176766   2.094   3.195   3.072 -0.3622  0.7311 -1.1294
18425TIP3    H276767   2.046   3.061   3.020 -0.5456  0.0914  0.6436
18426TIP3   OH276768   6.516   3.216  12.006 -0.8332 -0.3078 -0.3397
18426TIP3    H176769   6.477   3.148  12.060  0.3190 -0.5128  0.2574
18426TIP3    H276770   6.601   3.180  11.980 -1.0678  0.0696 -1.7204
18427TIP3   OH276771   1.594   0.452  14.723  0.4625 -0.1391 -0.2943
18427TIP3    H176772   1.516   0.398  14.732  1.1614 -0.9991  0.8993
18427TIP3    H276773   1.575   0.509  14.648 -0.5732 -1.5547 -1.1667
18428TIP3   OH276774   5.701   1.270  15.696 -0.1472  0.2172 -0.0086
18428TIP3    H176775   5.783   1.221  15.697 -0.7061 -0.7350  0.1564
18428TIP3    H276776   5.647   1.228  15.763 -0.7045  0.9469  0.0117
18429TIP3   OH276777   4.982   0.705  15.878 -0.2706  0.5216  0.6959
18429TIP3    H176778   4.930   0.666  15.947 -0.0034  1.0631  1.2148
18429TIP3    H276779   4.924   0.705  15.801  0.0773 -1.8068  0.3784
18430TIP3   OH276780   5.483   0.665   1.184  0.3599 -0.1095 -0.5051
18430TIP3    H176781   5.466   0.759   1.180 -0.3807 -0.2429 -0.6390
18430TIP3    H276782   5.489   0.646   1.277  2.1113  0.3291 -0.4836
18431TIP3   OH276783   0.697   5.236   5.753  0.2089 -0.0818  0.4112
18431TIP3    H176784   0.719   5.149   5.786  0.0709  0.8445  3.1890
18431TIP3    H276785   0.781   5.280   5.745  0.4360 -0.8513 -2.4746
18432TIP3   OH276786   3.000   1.830  15.023  0.0401  1.0976 -0.0563
18432TIP3    H176787   2.914   1.872  15.021  0.2202  1.4763  0.0799
18432TIP3    H276788   2.985   1.743  14.985 -0.4118  1.1418  0.0138
18433TIP3   OH276789   2.619   5.742  17.078  0.6081 -0.0664  0.3215
18433TIP3    H176790   2.664   5.704  17.154  2.2396 -0.5559 -0.8365
18433TIP3    H276791   2.526   5.737  17.101  0.9239 -2.0418  1.4604
18434TIP3   OH276792   5.308   1.570  15.012  0.0623 -0.2222 -0.6011
18434TIP3    H176793   5.265   1.591  14.929 -1.3032 -0.5638 -0.0080
18434TIP3    H276794   5.237   1.545  15.070  0.6554  2.5520  1.5252
18435TIP3   OH276795   4.077   6.055  12.565  0.0466 -0.0734  0.1502
18435TIP3    H176796   4.031   6.050  12.649 -0.9372 -1.0807 -0.4104
18435TIP3    H276797   4.099   5.964  12.545 -1.5534 -0.1187 -1.6389
18436TIP3   OH276798   4.225   4.236   0.249  0.2734 -0.3103 -0.3333
18436TIP3    H176799   4.138   4.244   0.288  0.6997  0.1089  0.5748
18436TIP3    H276800   4.229   4.147   0.215  0.4083 -1.2574  1.9654
18437TIP3   OH276801   2.880   4.379   5.354  0.4630 -0.4670  0.2137
18437TIP3    H176802   2.907   4.460   5.397  1.2784  0.7916 -2.4416
18437TIP3    H276803   2.784   4.386   5.347  0.5073  0.1732  0.2185
18438TIP3   OH276804   5.377   0.938  13.222  1.0405  0.0656 -0.4374
18438TIP3    H176805   5.451   0.921  13.163  1.5587  0.4614  0.0793
18438TIP3    H276806   5.417   0.980  13.298  0.3848 -0.4450  0.2011
18439TIP3   OH276807   3.953   6.774  14.655 -0.3156 -0.3253  0.1593
18439TIP3    H176808   3.992   6.799  14.572 -2.4005 -0.0766 -0.7939
18439TIP3    H276809   3.932   6.857  14.698 -0.4319 -0.4521  0.3527
18440TIP3   OH276810   5.414   4.221  16.789  0.0686  0.1574  0.0069
18440TIP3    H176811   5.402   4.169  16.709  1.1518  2.3083 -1.6617
18440TIP3    H276812   5.403   4.312  16.760  4.1285  1.3138  1.4537
18441TIP3   OH276813   1.001   4.209  14.601  0.1132 -0.4414 -0.1542
18441TIP3    H176814   1.045   4.261  14.669 -0.4325  0.1624 -0.2487
18441TIP3    H276815   0.909   4.235  14.607  0.0951 -0.2124 -1.2683
18442TIP3   OH276816   5.562   2.513  16.072 -0.1200  0.0994 -0.0223
18442TIP3    H176817   5.487   2.571  16.059 -0.7152 -0.8294 -0.8340
18442TIP3    H276818   5.635   2.572  16.092 -1.0701  1.0174  0.8587
18443TIP3   OH276819   6.198   5.197  12.780  0.5737 -0.0504  0.3574
18443TIP3    H176820   6.147   5.146  12.844  0.9050  0.5786  1.1393
18443TIP3    H276821   6.191   5.287  12.810 -0.0616  0.3938 -1.0570
18444TIP3   OH276822   3.342   1.138   2.937  0.5933  0.0562 -0.1606
18444TIP3    H176823   3.281   1.079   2.982  0.1502  0.4908 -0.1817
18444TIP3    H276824   3.295   1.164   2.858  0.7540  0.5091 -0.1065
18445TIP3   OH276825   1.427   4.854  15.713 -0.1979 -0.3113 -0.1227
18445TIP3    H176826   1.481   4.847  15.791 -0.2572  1.1698  0.0973
18445TIP3    H276827   1.485   4.832  15.640  0.3870  0.1220  0.2066
18446TIP3   OH276828   4.442   6.660  11.915  0.3953  0.3086  0.0470
18446TIP3    H176829   4.506   6.686  11.981 -1.3305 -0.5234  2.1487
18446TIP3    H276830   4.486   6.590  11.865  0.9073 -0.7589  1.9175
18447TIP3   OH276831   0.036   2.480  12.492  0.7483  0.4861  0.0255
18447TIP3    H176832   0.028   2.494  12.397  2.5263 -0.7155 -0.3477
18447TIP3    H276833   0.123   2.513  12.513  1.5387 -1.8260  0.6783
18448TIP3   OH276834   6.255   4.766  17.057  0.8967  0.1070  0.4267
18448TIP3    H176835   6.281   4.699  16.995 -0.1388  0.8142 -0.8143
18448TIP3    H276836   6.209   4.719  17.126 -0.1993 -0.4343 -0.6453
18449TIP3   OH276837   5.398   3.504  10.362 -0.0250  0.3582 -0.1081
18449TIP3    H176838   5.429   3.427  10.314 -0.1969  0.8213 -0.9785
18449TIP3    H276839   5.312   3.478  10.395 -1.2263  0.9569 -2.4986
18450TIP3   OH276840   3.693   0.104   2.705  0.0768 -1.0090 -0.2530
18450TIP3    H176841   3.741   0.119   2.787  0.3523  1.7640 -0.8319
18450TIP3    H276842   3.757   0.119   2.636 -0.8484 -0.3286 -1.0010
18451TIP3   OH276843   3.182   5.731  16.247 -0.2555  0.2651  0.6104
18451TIP3    H176844   3.197   5.765  16.335 -0.8994  0.8941  0.4831
18451TIP3    H276845   3.168   5.637  16.259  2.5913 -0.2302  0.8715
18452TIP3   OH276846   6.493   4.355   2.035  0.1293  0.2386 -0.2830
18452TIP3    H176847   6.427   4.384   1.972 -0.5739 -0.6103  0.0468
18452TIP3    H276848   6.442   4.323   2.110  0.9358  0.4021  0.3539
18453TIP3   OH276849   5.030   2.405   1.386 -0.2034 -0.1086  0.1780
18453TIP3    H176850   5.064   2.432   1.472  0.4914  1.0214 -0.4220
18453TIP3    H276851   4.965   2.337   1.406 -0.3917  0.4549  1.6269
18454TIP3   OH276852   5.198   5.781   3.808  0.0780 -0.0153 -0.4099
18454TIP3    H176853   5.279   5.809   3.766  1.2366  0.0055  1.7154
18454TIP3    H276854   5.141   5.857   3.805  0.1443  0.0010 -1.8322
18455TIP3   OH276855   5.721   0.982   4.711 -0.9025  0.0614  0.1624
18455TIP3    H176856   5.725   0.897   4.669 -0.5472 -0.2451  0.8073
18455TIP3    H276857   5.710   0.963   4.804  0.9168  0.6660  0.5419
18456TIP3   OH276858   4.487   2.698  13.118 -0.3433 -0.3038  0.0121
18456TIP3    H176859   4.397   2.685  13.147 -0.5297  1.2329  0.2046
18456TIP3    H276860   4.480   2.750  13.038  0.2972 -2.2883 -1.4210
18457TIP3   OH276861   3.546   1.387  14.912 -0.3940 -0.3169  0.1078
18457TIP3    H176862   3.599   1.398  14.992 -1.6222 -0.1142  0.9129
18457TIP3    H276863   3.558   1.296  14.888 -0.5707 -0.5724  0.9452
18458TIP3   OH276864   5.379   2.897   4.913  0.2295  0.0937 -0.3980
18458TIP3    H176865   5.357   2.837   4.985  2.0906 -0.3509 -0.1578
18458TIP3    H276866   5.305   2.958   4.910 -0.0560 -0.0458  1.7222
18459TIP3   OH276867   5.745   6.275  14.066 -0.7003  0.5735 -0.5779
18459TIP3    H176868   5.777   6.241  14.149 -0.3966  0.8021 -0.5988
18459TIP3    H276869   5.667   6.223  14.046  0.2307 -0.6859 -1.0193
18460TIP3   OH276870   0.778   3.055  14.588  0.0779  0.0070 -0.0049
18460TIP3    H176871   0.843   3.103  14.641 -0.5016 -0.5684  1.2690
18460TIP3    H276872   0.820   2.971  14.570 -0.3491 -0.4282  0.9568
18461TIP3   OH276873   1.980   3.386   5.971  0.3406  0.0844  0.1842
18461TIP3    H176874   1.898   3.337   5.973 -0.7480  1.8187  0.5351
18461TIP3    H276875   2.021   3.363   5.888  0.2332 -1.9250  0.6508
18462TIP3   OH276876   3.323   3.362   3.285  0.4138 -0.2833 -0.2334
18462TIP3    H176877   3.324   3.291   3.221 -1.7669 -2.9778  2.4089
18462TIP3    H276878   3.409   3.358   3.328  0.8532 -0.2944 -1.1019
18463TIP3   OH276879   5.992   3.812  16.581 -0.9917  0.3725  0.1448
18463TIP3    H176880   5.950   3.807  16.495 -2.1246 -1.3168  0.7525
18463TIP3    H276881   6.080   3.779  16.567 -1.7327 -1.6302 -0.0585
18464TIP3   OH276882   2.903   4.322  11.413  0.3499 -0.3491 -0.1043
18464TIP3    H176883   2.996   4.312  11.396  0.2613 -1.8765  0.1650
18464TIP3    H276884   2.894   4.300  11.506  0.1007  2.6307  0.6623
18465TIP3   OH276885   1.400   3.060   4.649  0.7211 -0.6474  0.3491
18465TIP3    H176886   1.374   2.988   4.592 -1.0011 -0.9975  1.5009
18465TIP3    H276887   1.321   3.114   4.657  0.4150 -1.3595  3.4550
18466TIP3   OH276888   4.807   2.974   6.058  0.2057  0.6834  0.4864
18466TIP3    H176889   4.831   2.906   6.120 -0.7051  1.4253  1.6887
18466TIP3    H276890   4.757   3.038   6.109 -1.1904  0.9748 -1.1469
18467TIP3   OH276891   3.287   3.350  14.118  0.3252  0.0140  0.3896
18467TIP3    H176892   3.292   3.413  14.189 -0.6554 -0.2020  0.6633
18467TIP3    H276893   3.364   3.294  14.130  1.1924  1.1089  0.1579
18468TIP3   OH276894   1.290   6.148  15.733  0.6899 -0.4239  0.3206
18468TIP3    H176895   1.342   6.166  15.812 -0.9894  3.6187  0.7449
18468TIP3    H276896   1.317   6.216  15.671 -1.5291 -0.4190 -0.7223
18469TIP3   OH276897   2.789   3.758   2.764 -0.5195 -0.4408  0.4616
18469TIP3    H176898   2.840   3.774   2.844  2.1552  2.4169 -1.5765
18469TIP3    H276899   2.853   3.730   2.699 -2.0506  0.2892 -1.4705
18470TIP3   OH276900   3.439   4.489  15.090 -0.4808  0.2545 -0.0141
18470TIP3    H176901   3.428   4.406  15.137  0.3284  0.3051  0.2646
18470TIP3    H276902   3.365   4.542  15.120  0.3762  0.5302  1.7377
18471TIP3   OH276903   6.542   3.018   5.390 -0.6931  0.9866 -0.0694
18471TIP3    H176904   6.606   2.994   5.457 -0.9486 -0.8266 -0.4196
18471TIP3    H276905   6.474   3.065   5.437  0.1697  1.6374  0.5584
18472TIP3   OH276906   3.001   4.144   3.512  0.1495 -0.8278 -0.3802
18472TIP3    H176907   2.980   4.221   3.564  1.3601  0.3247 -1.5331
18472TIP3    H276908   3.087   4.163   3.474 -0.7553 -1.4905 -2.9803
18473TIP3   OH276909   2.485   3.489  13.983 -0.1550  0.3929  0.6569
18473TIP3    H176910   2.558   3.428  13.997  1.0505  1.0168 -2.2018
18473TIP3    H276911   2.513   3.569  14.027  0.0306  0.0801  1.1200
18474TIP3   OH276912   4.424   0.065   2.853 -0.4256  0.2907  0.2511
18474TIP3    H176913   4.487   0.112   2.798 -0.2883  0.6226  0.6859
18474TIP3    H276914   4.421  -0.023   2.815  2.2969 -0.5813  1.7186
18475TIP3   OH276915   3.108   5.445   3.925  0.3700 -0.0958 -0.0736
18475TIP3    H176916   3.109   5.538   3.949 -1.4044  0.0085 -0.2588
18475TIP3    H276917   3.016   5.426   3.909  0.9279 -1.3933 -2.0260
18476TIP3   OH276918   2.589   3.140  12.016 -1.0081  0.0437  0.0557
18476TIP3    H176919   2.554   3.222  11.981 -1.1576  0.0068  0.1171
18476TIP3    H276920   2.684   3.150  12.010 -0.8626  1.6355  3.2714
18477TIP3   OH276921   5.869   0.385   4.490  0.3330  0.4306  0.4744
18477TIP3    H176922   5.790   0.349   4.451 -0.0972 -0.1101  1.7762
18477TIP3    H276923   5.901   0.449   4.427  1.6009 -2.7326 -2.4002
18478TIP3   OH276924   5.555   3.031  12.139 -0.3101 -0.1623  0.1862
18478TIP3    H176925   5.571   2.937  12.147  0.4039  0.0179  0.9120
18478TIP3    H276926   5.534   3.060  12.227 -0.2909  0.4025  0.0097
18479TIP3   OH276927   6.340   0.724  11.076 -0.0415 -0.3512 -0.8920
18479TIP3    H176928   6.412   0.775  11.115 -2.5436  1.4976  1.8159
18479TIP3    H276929   6.378   0.638  11.059  2.8222  0.5305  0.3571
18480TIP3   OH276930   0.764   2.254  13.454  0.4497 -0.3132  0.1918
18480TIP3    H176931   0.696   2.202  13.497 -1.2455  1.4712 -0.1685
18480TIP3    H276932   0.816   2.289  13.526 -1.2891  1.2279  0.7848
18481TIP3   OH276933   1.805   3.434   3.527 -0.1149 -0.2393  0.3089
18481TIP3    H176934   1.795   3.339   3.533 -1.4537 -0.1239  0.2938
18481TIP3    H276935   1.785   3.466   3.615  0.8353 -0.0016  0.4455
18482TIP3   OH276936   5.422   6.191  15.884  0.0844  0.7053  0.0001
18482TIP3    H176937   5.438   6.274  15.929  0.2024  0.8220 -0.2557
18482TIP3    H276938   5.415   6.127  15.954  1.9230  0.5982  0.1217
18483TIP3   OH276939   2.293   2.125   4.337 -0.1082  0.1479 -0.6423
18483TIP3    H176940   2.227   2.189   4.311 -1.7405  0.0510  2.7543
18483TIP3    H276941   2.371   2.177   4.355 -0.6191  0.8628 -0.4497
18484TIP3   OH276942   4.714   5.638   2.814 -0.2135 -0.3450 -0.4116
18484TIP3    H176943   4.758   5.713   2.855 -2.1257 -0.3575  1.8804
18484TIP3    H276944   4.646   5.678   2.759 -0.8112 -0.3713  0.2992
18485TIP3   OH276945   5.945   1.014   0.385 -0.2709  0.1176 -0.1213
18485TIP3    H176946   5.880   1.081   0.363 -1.3978 -1.1544 -0.8355
18485TIP3    H276947   6.020   1.034   0.330  0.5761  2.4620  1.7450
18486TIP3   OH276948   3.261   2.200   2.626  0.0210  0.9323  0.7855
18486TIP3    H176949   3.310   2.246   2.559  0.6216  1.9353  1.8847
18486TIP3    H276950   3.255   2.110   2.594  0.7897  1.2654 -0.3271
18487TIP3   OH276951   5.378   6.315  15.525 -0.3037  0.0071 -0.0575
18487TIP3    H176952   5.362   6.348  15.613  0.3700  0.2231 -0.0116
18487TIP3    H276953   5.473   6.306  15.520 -0.3964 -0.8587 -0.4549
18488TIP3   OH276954   0.292   6.789  13.804 -0.2558  0.6926 -0.3224
18488TIP3    H176955   0.236   6.833  13.741 -0.4785  1.0766  0.1394
18488TIP3    H276956   0.262   6.820  13.889  1.5071  1.9422 -0.1046
18489TIP3   OH276957   1.465   3.032   3.948 -0.4479  0.0249  0.3557
18489TIP3    H176958   1.457   3.002   3.858 -0.3133  0.6374  0.1325
18489TIP3    H276959   1.515   3.113   3.942 -1.3338  0.6305  0.8715
18490TIP3   OH276960   4.791   3.198  12.240 -0.4059 -0.1610 -0.5395
18490TIP3    H176961   4.872   3.234  12.274 -0.4553 -0.6317  0.0839
18490TIP3    H276962   4.789   3.226  12.148 -0.0956  0.8029 -0.2623
18491TIP3   OH276963   0.240   5.882  13.015 -0.6374  0.6227 -0.5322
18491TIP3    H176964   0.299   5.879  13.091  0.4094 -0.0038 -1.3342
18491TIP3    H276965   0.163   5.833  13.043 -0.6134  1.1048  0.4089
18492TIP3   OH276966   5.123   1.175   3.659 -0.2154  0.8418 -0.4432
18492TIP3    H176967   5.075   1.177   3.576 -0.3600  0.2366 -0.3765
18492TIP3    H276968   5.077   1.238   3.715  0.0028  1.4023 -0.8840
18493TIP3   OH276969   6.182   4.787  15.961 -0.1712  0.7797  0.2673
18493TIP3    H176970   6.251   4.775  15.895  0.1370  0.6382  0.6120
18493TIP3    H276971   6.192   4.878  15.990  0.5771  0.4459  1.0973
18494TIP3   OH276972   3.732   1.674   3.120 -0.0979  0.0870 -0.4919
18494TIP3    H176973   3.713   1.623   3.042  1.6926  0.5683 -1.2935
18494TIP3    H276974   3.803   1.626   3.163 -1.1065 -0.2151  0.9144
18495TIP3   OH276975   1.314   3.149   1.854 -0.2089  0.1550 -0.3693
18495TIP3    H176976   1.330   3.080   1.919  1.8680 -1.1169 -2.0686
18495TIP3    H276977   1.219   3.155   1.848 -0.4509 -0.7882  1.6064
18496TIP3   OH276978   1.659   0.839   0.614 -0.0568 -0.5512 -0.4173
18496TIP3    H176979   1.567   0.850   0.589 -0.5615 -0.8846  1.1416
18496TIP3    H276980   1.661   0.753   0.658  0.7606 -0.0805  0.4931
18497TIP3   OH276981   0.500   1.665  13.704  0.0262  0.0814 -0.2078
18497TIP3    H176982   0.544   1.607  13.767  1.9860 -0.1040 -1.6317
18497TIP3    H276983   0.554   1.744  13.703 -0.6776  0.5630 -0.7659
18498TIP3   OH276984   1.482   5.169  13.673 -0.3799  0.3693 -0.1756
18498TIP3    H176985   1.387   5.182  13.674 -0.4937  0.1182 -2.4157
18498TIP3    H276986   1.516   5.245  13.627  0.4704  0.2859  0.3027
18499TIP3   OH276987   2.142   5.620   5.477  0.4816 -0.0475 -0.3629
18499TIP3    H176988   2.185   5.705   5.471 -0.7116  0.6518  0.5243
18499TIP3    H276989   2.084   5.618   5.401 -0.8958  0.7880  0.6205
18500TIP3   OH276990   0.227   6.514   6.526  0.0423 -0.1117  0.2026
18500TIP3    H176991   0.300   6.457   6.504  2.0693  2.0554  0.9468
18500TIP3    H276992   0.193   6.479   6.608 -1.1097 -2.2833 -1.1091
18501TIP3   OH276993   2.891   6.080   4.989 -0.0437  0.2233  0.1206
18501TIP3    H176994   2.963   6.037   4.942 -0.4101  1.7222 -1.9308
18501TIP3    H276995   2.824   6.012   4.997  0.6599 -0.5097 -0.0728
18502TIP3   OH276996   2.679   0.531   0.051 -0.3149 -0.5399 -0.5251
18502TIP3    H176997   2.740   0.601   0.073 -0.2045 -0.4442 -1.1202
18502TIP3    H276998   2.640   0.505   0.135  0.1128 -0.2042 -0.2219
18503TIP3   OH276999   6.232   4.399  12.613  0.9252  0.0178  0.1198
18503TIP3    H177000   6.215   4.488  12.646  1.0396  0.0451  0.1060
18503TIP3    H277001   6.175   4.390  12.537 -0.2616 -0.4829  1.0245
18504TIP3   OH277002   2.766   6.339  13.413 -0.1319  0.4161  0.8343
18504TIP3    H177003   2.766   6.272  13.346 -0.8590  0.4008  0.8397
18504TIP3    H277004   2.778   6.421  13.365 -0.5822  0.3994  0.6911
18505TIP3   OH277005   5.579   3.841   4.901 -0.0727  0.3624  0.1120
18505TIP3    H177006   5.596   3.806   4.813  1.4818  0.6496  0.2753
18505TIP3    H277007   5.511   3.907   4.887 -0.5468 -0.2778 -0.7205
18506TIP3   OH277008   2.555   6.855  12.740 -0.2889  0.0054 -0.4683
18506TIP3    H177009   2.569   6.925  12.804  2.0165 -0.2851 -0.5944
18506TIP3    H277010   2.529   6.901  12.660 -2.0316  0.4505  0.2992
18507TIP3   OH277011   3.782   6.307   5.106 -0.3863 -0.5765  0.0279
18507TIP3    H177012   3.873   6.308   5.075 -0.4915 -0.7548 -0.2907
18507TIP3    H277013   3.745   6.389   5.075 -0.2568 -0.3799  0.3917
18508TIP3   OH277014   1.669   3.338   1.284 -0.6074  0.3104 -0.2122
18508TIP3    H177015   1.653   3.250   1.320 -1.3598  1.0062  1.2164
18508TIP3    H277016   1.752   3.329   1.237 -0.6999 -1.1819 -0.1551
18509TIP3   OH277017   2.633   2.528   2.950 -0.1505 -0.0961  0.2824
18509TIP3    H177018   2.608   2.436   2.961  0.0568 -0.0730  1.0228
18509TIP3    H277019   2.680   2.531   2.866  1.3114 -0.9981  1.0245
18510TIP3   OH277020   2.301   6.432   4.768  0.0952  0.1620  0.1210
18510TIP3    H177021   2.319   6.350   4.720 -1.4333  0.0741 -0.3489
18510TIP3    H277022   2.387   6.472   4.778  0.6111 -0.3071 -1.8444
18511TIP3   OH277023   5.657   6.303  12.328  0.0325  0.1607  0.0667
18511TIP3    H177024   5.614   6.225  12.293  0.3601 -0.1311  0.3053
18511TIP3    H277025   5.729   6.319  12.267  0.3970 -0.1469  0.4100
18512TIP3   OH277026   4.458   2.930  15.824 -0.2746 -0.4500  0.0780
18512TIP3    H177027   4.518   2.867  15.785 -0.1126 -0.3720  0.1987
18512TIP3    H277028   4.371   2.898  15.802 -0.1795 -0.2664 -0.5660
18513TIP3   OH277029   4.546   3.468  12.952 -0.0090 -0.7186 -0.2776
18513TIP3    H177030   4.527   3.375  12.968 -2.1559 -0.2572  0.1283
18513TIP3    H277031   4.530   3.510  13.037 -1.7982  0.3847 -1.1209
18514TIP3   OH277032   4.777   2.480  13.421  0.1259 -0.1807  0.6892
18514TIP3    H177033   4.799   2.528  13.501  0.0112 -0.5949  0.9725
18514TIP3    H277034   4.764   2.548  13.355  0.1967  0.1652  1.0276
18515TIP3   OH277035   5.764   6.252  15.844 -0.5623  0.0638  0.2497
18515TIP3    H177036   5.683   6.268  15.891  0.3377  0.7162  1.6429
18515TIP3    H277037   5.764   6.317  15.774 -0.7704  0.7647  0.8804
18516TIP3   OH277038   2.896   6.134  14.251 -0.2831  0.1375  0.0174
18516TIP3    H177039   2.868   6.095  14.168 -0.6167  0.0034  0.1906
18516TIP3    H277040   2.902   6.228  14.234  1.6759 -0.0783 -0.7411
18517TIP3   OH277041   3.989   5.156  13.105 -0.2870 -0.1115  0.0950
18517TIP3    H177042   3.988   5.126  13.196 -0.0199 -0.5813 -0.0549
18517TIP3    H277043   4.074   5.201  13.096 -1.0697  1.5413  0.5822
18518TIP3   OH277044   4.994   4.366   5.041 -0.0810 -0.2715  0.2963
18518TIP3    H177045   4.900   4.386   5.050 -0.5985 -1.9134 -0.9062
18518TIP3    H277046   4.997   4.271   5.031  1.7293 -0.2364  0.2148
18519TIP3   OH277047   3.701   1.549   5.661  0.4722  0.7704  0.1519
18519TIP3    H177048   3.683   1.631   5.614 -0.2917  0.0860 -0.8050
18519TIP3    H277049   3.629   1.541   5.724  2.0373  2.2025  2.2613
18520TIP3   OH277050   0.360   6.337   3.979  0.6840 -0.2468  0.0189
18520TIP3    H177051   0.432   6.274   3.978  0.8845 -0.0288  0.2596
18520TIP3    H277052   0.390   6.406   4.039  1.4162  1.1485 -1.8377
18521TIP3   OH277053   6.267   1.943  11.949 -0.0308  0.4173  0.3961
18521TIP3    H177054   6.287   2.009  12.016  0.8960  0.1293  0.4159
18521TIP3    H277055   6.337   1.953  11.885 -0.0449 -0.3575  0.2557
18522TIP3   OH277056   6.252   4.415   3.736  0.0690 -0.4012  0.7577
18522TIP3    H177057   6.253   4.327   3.699  1.2400 -0.6298  1.2924
18522TIP3    H277058   6.164   4.448   3.718  0.0756 -1.1206 -0.7651
18523TIP3   OH277059   5.243   0.593  13.018 -0.6177  0.1997 -0.2247
18523TIP3    H177060   5.267   0.521  12.959  1.8193  0.6643  0.1047
18523TIP3    H277061   5.149   0.584  13.030 -0.7188 -1.6144 -1.9251
18524TIP3   OH277062   0.113   2.295   0.017 -0.7956  0.3541  0.0454
18524TIP3    H177063   0.027   2.336   0.029  0.2378  2.9364 -0.6457
18524TIP3    H277064   0.174   2.368   0.021  1.5875 -1.5559  2.1745
18525TIP3   OH277065   3.992   3.447  14.131  0.2411 -0.0521  0.7434
18525TIP3    H177066   4.019   3.368  14.178  1.8488 -0.6017 -0.9935
18525TIP3    H277067   3.904   3.427  14.098  1.1545 -1.7113 -0.8286
18526TIP3   OH277068   0.144   3.098   3.807 -0.4199 -0.5651 -0.3907
18526TIP3    H177069   0.134   3.120   3.714 -0.4462 -1.4838 -0.6083
18526TIP3    H277070   0.183   3.177   3.845 -1.2990  0.1904 -0.9849
18527TIP3   OH277071   4.759   0.767   4.573 -0.1475  0.4652 -0.1014
18527TIP3    H177072   4.715   0.726   4.498  0.2315 -2.1819  1.0117
18527TIP3    H277073   4.690   0.782   4.637 -0.2760  1.6117 -0.4837
18528TIP3   OH277074   5.105   1.153  11.903 -0.0586  0.0930  0.4084
18528TIP3    H177075   5.102   1.072  11.953  0.5406 -0.7770 -0.8970
18528TIP3    H277076   5.094   1.125  11.812 -1.6757  1.6641  0.0628
18529TIP3   OH277077   1.120   1.381  10.807 -0.3071 -0.5532  0.3877
18529TIP3    H177078   1.149   1.347  10.722  1.8422 -1.1332  1.2637
18529TIP3    H277079   1.062   1.453  10.786 -0.2216 -0.9969 -1.5719
18530TIP3   OH277080   3.775   3.182  13.011 -0.2557  0.1173 -0.5010
18530TIP3    H177081   3.767   3.192  13.106  0.9856  0.0336 -0.3636
18530TIP3    H277082   3.751   3.267  12.975  1.9328  1.0478  0.0938
18531TIP3   OH277083   1.754   5.566   5.406  0.0031 -0.2971  0.0567
18531TIP3    H177084   1.798   5.542   5.487  0.9798  1.1760  0.0124
18531TIP3    H277085   1.783   5.501   5.342  2.0871  0.5349  0.0688
18532TIP3   OH277086   5.715   0.936  11.917  0.2583 -0.1413  0.1830
18532TIP3    H177087   5.767   0.985  11.981  2.3860 -1.9715 -0.0059
18532TIP3    H277088   5.779   0.880  11.872 -1.6666 -1.3274 -1.2349
18533TIP3   OH277089   5.742   1.969   3.802 -0.4781  0.3999  0.1915
18533TIP3    H177090   5.750   1.887   3.851  0.7762  0.8559  0.7851
18533TIP3    H277091   5.832   1.991   3.777 -0.3465  3.0700  2.5265
18534TIP3   OH277092   1.458   3.289  13.229 -0.2011 -0.1288 -0.6536
18534TIP3    H177093   1.530   3.254  13.282 -0.4577 -0.9349 -0.8211
18534TIP3    H277094   1.461   3.238  13.148 -1.1299 -0.3577 -0.5465
18535TIP3   OH277095   3.433   5.741  15.812 -0.2832 -0.0420  0.0277
18535TIP3    H177096   3.489   5.710  15.741  1.6598 -3.4287  2.7059
18535TIP3    H277097   3.355   5.686  15.808 -0.9111  0.8539 -0.3815
18536TIP3   OH277098   4.506   0.672  11.020  0.3841 -0.2124  0.4807
18536TIP3    H177099   4.578   0.733  11.035 -0.7037  1.6669 -1.3472
18536TIP3    H277100   4.537   0.615  10.949 -0.3583  1.5795 -1.3941
18537TIP3   OH277101   3.328   0.833  10.983 -0.7486  0.0507 -0.1119
18537TIP3    H177102   3.285   0.748  10.975  1.3732 -1.0838 -0.3197
18537TIP3    H277103   3.329   0.868  10.893 -0.5586 -0.2688 -0.2356
18538TIP3   OH277104   5.277   4.188  15.524  0.0957 -0.3705  0.1465
18538TIP3    H177105   5.256   4.206  15.615  0.5961 -0.6958  0.3295
18538TIP3    H277106   5.345   4.251  15.502  0.6805 -0.9399  0.2989
18539TIP3   OH277107   4.626   4.798  15.347 -0.7692 -0.6705 -0.3304
18539TIP3    H177108   4.707   4.810  15.396 -0.9041 -0.5745 -0.1299
18539TIP3    H277109   4.643   4.724  15.289 -0.1665  0.0116 -1.0596
18540TIP3   OH277110   1.319   1.188  15.424  0.7338 -0.1772 -0.1281
18540TIP3    H177111   1.280   1.151  15.345 -0.7569 -2.5058  1.5446
18540TIP3    H277112   1.275   1.272  15.435  1.6945  0.6747 -2.2219
18541TIP3   OH277113   1.779   3.030   1.859  0.1402  0.1631 -0.3339
18541TIP3    H177114   1.703   2.981   1.892  0.5354  0.1853  0.6620
18541TIP3    H277115   1.851   2.967   1.861  0.6205  0.7147  0.8235
18542TIP3   OH277116   6.801   5.791  15.802 -0.4160 -0.1465  0.0275
18542TIP3    H177117   6.883   5.779  15.754 -0.1919 -0.9891  0.5980
18542TIP3    H277118   6.821   5.860  15.866  0.4409 -1.5779  1.3946
18543TIP3   OH277119   2.952   3.126   1.531 -0.5223 -0.1175 -0.2710
18543TIP3    H177120   2.945   3.169   1.446  0.8548 -0.6260 -0.6681
18543TIP3    H277121   2.940   3.033   1.512  0.2166 -0.2812  0.0151
18544TIP3   OH277122   2.769   1.432  15.951 -0.4082  0.0908 -0.2309
18544TIP3    H177123   2.695   1.386  15.990  0.3449 -0.2827  0.8189
18544TIP3    H277124   2.730   1.496  15.892 -1.5094 -1.0429 -0.7493
18545TIP3   OH277125   2.688   3.105  16.562 -0.1593  0.7500  0.0596
18545TIP3    H177126   2.630   3.042  16.518  1.4771 -1.4273  0.8211
18545TIP3    H277127   2.758   3.122  16.499 -0.3292  1.4390  0.0487
18546TIP3   OH277128   4.272   3.625   2.019  0.1815  0.7814 -0.1290
18546TIP3    H177129   4.258   3.533   2.041  1.3492  0.9475  1.5361
18546TIP3    H277130   4.183   3.663   2.017 -0.2306 -0.0944  0.6381
18547TIP3   OH277131   2.314   5.662   0.034 -0.9798 -0.4550 -0.3175
18547TIP3    H177132   2.318   5.594  -0.034 -0.3602 -0.5737 -0.1722
18547TIP3    H277133   2.271   5.736  -0.009  1.0481  0.1523 -1.4570
18548TIP3   OH277134   1.868   3.510   5.204  0.1226  0.0296 -0.3208
18548TIP3    H177135   1.869   3.593   5.251  0.1336 -0.0928 -0.1052
18548TIP3    H277136   1.794   3.517   5.144 -0.6354 -0.2815  0.5604
18549TIP3   OH277137   2.971   1.766   0.060 -0.4044 -0.1991 -0.1413
18549TIP3    H177138   3.040   1.824   0.094  0.8395 -2.5414  1.6560
18549TIP3    H277139   2.897   1.824   0.043  0.9690  1.9927  0.8461
18550TIP3   OH277140   5.488   2.436   1.124  0.6602 -0.5805 -0.0511
18550TIP3    H177141   5.551   2.451   1.053 -1.0611  1.8936 -1.2401
18550TIP3    H277142   5.486   2.520   1.171 -1.1340 -0.8448  0.4075
18551TIP3   OH277143   1.808   5.318  11.638  0.7144  0.0615 -0.3446
18551TIP3    H177144   1.881   5.263  11.611  1.6336  0.7817  0.5768
18551TIP3    H277145   1.757   5.330  11.559  1.6618 -0.3713 -1.0449
18552TIP3   OH277146   0.846   4.486  12.468  0.1831 -0.6337  0.1693
18552TIP3    H177147   0.816   4.457  12.382  0.4424  0.6630 -0.3732
18552TIP3    H277148   0.793   4.436  12.530 -0.3879 -1.1853 -0.7406
18553TIP3   OH277149   0.834   6.342   4.605  0.1537  0.1989  0.4234
18553TIP3    H177150   0.867   6.425   4.639  0.5680 -0.1142  0.7947
18553TIP3    H277151   0.861   6.343   4.513 -0.5809  0.8463  0.2022
18554TIP3   OH277152   4.311   1.685  12.012 -0.6073  0.7462  0.1766
18554TIP3    H177153   4.362   1.654  12.087  0.6825 -0.6328 -1.1871
18554TIP3    H277154   4.351   1.769  11.988 -0.6023  0.8739  0.6347
18555TIP3   OH277155   0.114   3.695  11.369 -0.6963 -0.1402  0.3548
18555TIP3    H177156   0.049   3.738  11.314 -0.0380  1.1982  0.5663
18555TIP3    H277157   0.196   3.739  11.348  0.5489 -2.9308 -1.1949
18556TIP3   OH277158   3.385   2.340  16.455 -0.0781  0.3366 -0.2904
18556TIP3    H177159   3.322   2.371  16.390  1.0009  0.1483 -1.4751
18556TIP3    H277160   3.445   2.413  16.468 -0.4346  0.4646  0.7128
18557TIP3   OH277161   4.024   5.462  16.626 -0.2323 -0.4024 -0.2343
18557TIP3    H177162   3.932   5.481  16.613 -0.1531 -0.2134 -0.5355
18557TIP3    H277163   4.046   5.503  16.709 -0.1261  0.6179 -0.7446
18558TIP3   OH277164   1.377   4.544   4.479 -0.0361  0.0786  0.1646
18558TIP3    H177165   1.466   4.537   4.516 -0.5786  1.3266  1.8370
18558TIP3    H277166   1.322   4.567   4.554 -1.5808  0.5785 -1.0780
18559TIP3   OH277167   5.320   4.903  11.284  0.5187  0.7816  0.3205
18559TIP3    H177168   5.325   4.934  11.374  0.2186  0.7825  0.3364
18559TIP3    H277169   5.398   4.939  11.242  1.4127 -0.3496  0.9302
18560TIP3   OH277170   0.932   2.192   2.244  0.4613  0.3636  0.0880
18560TIP3    H177171   0.991   2.135   2.196 -2.1340 -1.6768 -0.8780
18560TIP3    H277172   0.886   2.134   2.305 -3.6054  0.8277 -2.1891
18561TIP3   OH277173   0.707   1.505  12.172  0.3525 -0.3389 -0.2430
18561TIP3    H177174   0.734   1.575  12.113  2.3641 -1.4509 -0.7649
18561TIP3    H277175   0.764   1.514  12.249 -1.2734  0.2354  0.9585
18562TIP3   OH277176   0.894   0.653   4.114  0.3621 -0.0935 -0.4137
18562TIP3    H177177   0.835   0.681   4.184 -0.5865  0.8314 -1.5436
18562TIP3    H277178   0.976   0.700   4.132  0.0249  0.3922 -0.1152
18563TIP3   OH277179   4.713   6.331   0.658 -0.0291  0.3484 -0.2051
18563TIP3    H177180   4.628   6.364   0.687 -0.6152 -1.2286 -0.0660
18563TIP3    H277181   4.710   6.237   0.674  2.7193  0.5461  2.3036
18564TIP3   OH277182   6.775   1.071  14.418  0.2510  0.4934 -0.5316
18564TIP3    H177183   6.866   1.084  14.391  0.5711 -0.2029  0.1982
18564TIP3    H277184   6.732   1.038  14.339  0.9471 -0.5233 -0.4983
18565TIP3   OH277185   1.988   2.251   0.870 -1.3931  0.4958  0.3795
18565TIP3    H177186   1.989   2.181   0.936 -2.6730  0.0757 -0.0047
18565TIP3    H277187   1.913   2.305   0.894 -1.5061  0.6868 -0.3857
18566TIP3   OH277188   0.715   3.089   4.457 -0.8547 -0.5944  0.2051
18566TIP3    H177189   0.627   3.125   4.465 -1.1800 -1.2753 -0.2170
18566TIP3    H277190   0.734   3.093   4.363 -0.5609 -0.7588  0.2563
18567TIP3   OH277191   4.759   0.477   5.135 -0.0984  0.0522  0.3566
18567TIP3    H177192   4.701   0.524   5.195  0.5018  1.2667  0.0267
18567TIP3    H277193   4.847   0.502   5.164  0.2477 -1.0097  0.2569
18568TIP3   OH277194   2.124   1.894  13.543 -0.4663  0.0431 -0.4325
18568TIP3    H177195   2.125   1.798  13.540 -1.2601  0.0088  0.1905
18568TIP3    H277196   2.127   1.921  13.451 -1.4924 -0.5967 -0.6674
18569TIP3   OH277197   5.389   2.706  11.352 -0.0277 -0.1020 -0.1803
18569TIP3    H177198   5.322   2.753  11.302 -0.4937 -0.9548 -0.3838
18569TIP3    H277199   5.341   2.636  11.397  0.1905  1.2762  2.3685
18570TIP3   OH277200   5.946   4.982   0.485  0.2843  0.1128 -0.1185
18570TIP3    H177201   5.863   5.024   0.464  0.5595  1.2489  0.9696
18570TIP3    H277202   5.922   4.904   0.536 -0.1708 -0.5369 -1.2714
18571TIP3   OH277203   0.934   2.543   2.477  0.0106  0.0381 -0.6150
18571TIP3    H177204   0.858   2.551   2.419  1.4046 -1.1494 -2.7446
18571TIP3    H277205   1.001   2.501   2.423  2.2148  1.0486  1.1566
18572TIP3   OH277206   3.389   2.650   1.677 -0.1648 -0.2795 -0.2464
18572TIP3    H177207   3.296   2.664   1.696 -0.5399  0.6414 -2.4539
18572TIP3    H277208   3.419   2.590   1.745 -1.5257  1.9825  2.5466
18573TIP3   OH277209   1.810   1.302  15.507  0.2705  0.2223  0.0149
18573TIP3    H177210   1.717   1.303  15.532  0.5044  1.1438  0.9252
18573TIP3    H277211   1.850   1.239  15.566  0.4981  1.0572  0.7859
18574TIP3   OH277212   4.759   0.288  11.755  0.2014 -0.4547 -0.6224
18574TIP3    H177213   4.715   0.364  11.794 -0.7480 -1.1358 -0.3369
18574TIP3    H277214   4.823   0.326  11.695  0.2715  0.5816  0.0766
18575TIP3   OH277215   4.628   2.168   2.724 -0.3069  0.2822  0.4558
18575TIP3    H177216   4.545   2.129   2.697 -0.4156 -0.1076  1.3286
18575TIP3    H277217   4.692   2.097   2.718 -0.1181  0.4727  0.1886
18576TIP3   OH277218   5.276   1.159  12.970  0.1150  0.7018  0.3456
18576TIP3    H177219   5.205   1.163  13.034 -0.5633  0.5361 -0.3723
18576TIP3    H277220   5.233   1.132  12.888  1.2629 -1.0150  0.2548
18577TIP3   OH277221   1.454   0.935  11.834 -0.6944 -0.2526  0.1187
18577TIP3    H177222   1.482   0.854  11.792 -1.0363  0.5126 -1.6760
18577TIP3    H277223   1.535   0.981  11.856 -0.3692 -2.0470  3.4052
18578TIP3   OH277224   5.939   6.461   2.567 -0.6143 -0.2108  0.1812
18578TIP3    H177225   5.932   6.430   2.657  0.4847  0.9924  0.7074
18578TIP3    H277226   5.858   6.510   2.552 -0.2176  0.7157  0.9869
18579TIP3   OH277227   1.975   1.847  16.187 -0.9186 -0.5000 -0.4647
18579TIP3    H177228   2.043   1.900  16.229 -2.7564  0.4431  1.5005
18579TIP3    H277229   2.024   1.780  16.138  1.4118  0.9399 -0.2679
18580TIP3   OH277230   2.752   3.748  11.045 -0.2751 -0.4060  0.5136
18580TIP3    H177231   2.798   3.724  11.126  2.0709  0.1379 -0.5815
18580TIP3    H277232   2.807   3.713  10.975 -1.0603  1.0910 -0.9163
18581TIP3   OH277233   3.526   1.200  11.996  0.4237  0.8119 -0.0346
18581TIP3    H177234   3.527   1.168  11.906 -0.0715 -1.0488  0.5799
18581TIP3    H277235   3.443   1.248  12.004  1.1708  2.3425 -0.9615
18582TIP3   OH277236   1.749   5.775  16.005  0.4131  0.1850 -0.1151
18582TIP3    H177237   1.826   5.815  15.966  1.8079  0.2125  2.4335
18582TIP3    H277238   1.675   5.823  15.968  1.7131  1.3875 -1.2522
18583TIP3   OH277239   2.247   5.665  11.605  0.1650 -0.4690  0.9863
18583TIP3    H177240   2.274   5.674  11.696 -0.2321  1.4919  0.9555
18583TIP3    H277241   2.231   5.572  11.593  3.4964 -1.2863  1.9488
18584TIP3   OH277242   1.010   5.859  14.105 -0.1311 -0.3242  0.1620
18584TIP3    H177243   0.996   5.821  14.192  0.6874  0.5159  0.6811
18584TIP3    H277244   1.102   5.887  14.106 -0.4939  0.9373 -0.4874
18585TIP3   OH277245   3.068   5.874  16.671 -0.5033  0.2430 -0.3305
18585TIP3    H177246   2.997   5.858  16.732 -0.9886  1.6266 -0.5123
18585TIP3    H277247   3.029   5.926  16.601  0.9588  2.1859  0.2183
18586TIP3   OH277248   2.174   2.385   3.178  0.2840 -0.1233 -0.2690
18586TIP3    H177249   2.248   2.325   3.182  0.1761 -0.3140 -1.0036
18586TIP3    H277250   2.120   2.362   3.253  0.1510 -1.0727 -0.6478
18587TIP3   OH277251   4.178   6.760  12.740 -0.3732 -0.5515 -0.0505
18587TIP3    H177252   4.131   6.727  12.663 -2.1262  0.2547  0.6183
18587TIP3    H277253   4.267   6.777  12.708 -0.3577 -2.5524 -1.2574
18588TIP3   OH277254   1.510   4.524  14.470 -0.0860 -0.3731  0.2146
18588TIP3    H177255   1.504   4.435  14.437 -1.2035  0.1572 -1.1406
18588TIP3    H277256   1.461   4.523  14.552  1.7915 -1.4659  1.4003
18589TIP3   OH277257   2.986   1.772   5.147  0.0617  0.0163 -0.6989
18589TIP3    H177258   3.017   1.683   5.131 -0.0371 -0.2217  0.3148
18589TIP3    H277259   2.937   1.765   5.229  4.5872  1.9349  2.6398
18590TIP3   OH277260   2.447   2.758  11.663  0.3158 -0.3170 -0.0414
18590TIP3    H177261   2.363   2.763  11.618 -0.1752  0.6001  0.9266
18590TIP3    H277262   2.432   2.695  11.734 -0.2393  1.4264  1.4529
18591TIP3   OH277263   3.436   2.167  15.087  0.9398  0.9556  0.0066
18591TIP3    H177264   3.464   2.104  15.155  1.5380  2.2334  0.9982
18591TIP3    H277265   3.448   2.120  15.005 -0.7855 -1.0183  0.8011
18592TIP3   OH277266   3.122   6.741  12.949  0.2935 -0.1574 -0.4895
18592TIP3    H177267   3.029   6.763  12.961  0.1999 -0.4454 -0.6840
18592TIP3    H277268   3.167   6.826  12.952 -0.0962  0.1107 -1.5754
18593TIP3   OH277269   1.344   6.705  13.426  0.0091  0.4941  1.2263
18593TIP3    H177270   1.423   6.652  13.427 -1.1281 -1.3244  0.7555
18593TIP3    H277271   1.350   6.756  13.345  0.1174 -0.6102  0.5156
18594TIP3   OH277272   1.801   0.138   0.634  0.1818 -0.1268  0.5422
18594TIP3    H177273   1.721   0.110   0.678  0.0681 -0.8484 -0.0985
18594TIP3    H277274   1.859   0.063   0.641  1.0175  0.5861  1.4753
18595TIP3   OH277275   0.112   5.367  16.464 -0.1700 -0.0096 -0.5522
18595TIP3    H177276   0.031   5.396  16.422 -1.4447 -0.6721  1.2970
18595TIP3    H277277   0.164   5.447  16.476 -0.1676  0.3126 -2.4597
18596TIP3   OH277278   6.194   3.134  12.845  0.1889 -0.0996  0.1186
18596TIP3    H177279   6.130   3.175  12.787 -1.0546 -0.2764  1.3200
18596TIP3    H277280   6.278   3.172  12.819 -0.1497 -0.9096 -2.4451
18597TIP3   OH277281   5.845   4.990   1.049 -0.5079  0.0026 -0.0857
18597TIP3    H177282   5.850   4.934   0.971 -0.4554 -0.2165  0.0735
18597TIP3    H277283   5.919   5.051   1.040 -0.6176  0.1030 -0.3024
18598TIP3   OH277284   2.926   5.243   4.593  0.3671 -0.3785 -0.4967
18598TIP3    H177285   2.839   5.268   4.561  0.1452 -0.5999 -0.0827
18598TIP3    H277286   2.985   5.307   4.555  0.0882 -0.5134 -1.1773
18599TIP3   OH277287   4.018   1.862  14.581  0.1977 -0.1080 -0.7087
18599TIP3    H177288   4.026   1.801  14.654  0.2954  0.6226 -0.1001
18599TIP3    H277289   3.927   1.855  14.553 -0.1233  0.3852  0.1810
18600TIP3   OH277290   6.727   6.420  15.174 -0.6882 -0.2303  0.2508
18600TIP3    H177291   6.802   6.469  15.140 -2.0262  1.5688 -0.3016
18600TIP3    H277292   6.710   6.457  15.261 -1.8150  0.4619 -0.2354
18601TIP3   OH277293   3.287   2.262   1.714  0.6185  0.2259 -0.1302
18601TIP3    H177294   3.304   2.213   1.634  0.8331 -0.4700  0.3300
18601TIP3    H277295   3.236   2.338   1.686  2.3115  1.0335 -1.1978
18602TIP3   OH277296   0.842   2.333  12.673  0.3325 -0.4789 -0.2059
18602TIP3    H177297   0.823   2.338  12.580  0.0146 -1.4586 -0.2070
18602TIP3    H277298   0.885   2.248  12.685  0.2371 -0.4329  0.5553
18603TIP3   OH277299   0.337   3.170   3.214 -0.3380 -0.2205  0.0431
18603TIP3    H177300   0.322   3.076   3.209 -1.4946 -0.1379  1.3634
18603TIP3    H277301   0.279   3.207   3.147  1.5400 -0.5044 -1.8686
18604TIP3   OH277302   3.324   4.375  16.278 -0.5712 -0.5923  0.1428
18604TIP3    H177303   3.328   4.456  16.328 -1.0567 -0.2186 -0.4086
18604TIP3    H277304   3.230   4.357  16.270 -0.4740 -1.0835  0.0596
18605TIP3   OH277305   5.981   3.618  11.028 -0.7156 -0.0920 -0.4046
18605TIP3    H177306   5.951   3.622  10.937  0.3276  0.1525 -0.7437
18605TIP3    H277307   6.061   3.566  11.025 -0.1607  0.6986  0.2273
18606TIP3   OH277308   1.784   1.885   5.389 -0.0114 -0.3732  0.1931
18606TIP3    H177309   1.743   1.798   5.390  0.2937 -0.5384  1.7969
18606TIP3    H277310   1.847   1.882   5.318 -0.8213 -1.0664 -0.5176
18607TIP3   OH277311   5.868   0.061  15.217  0.2721  0.0400  0.3927
18607TIP3    H177312   5.791   0.017  15.182  1.1042  0.2853 -1.9392
18607TIP3    H277313   5.902   0.112  15.144  1.2540  1.9145  2.0568
18608TIP3   OH277314   6.197   5.287   3.600  0.1341  0.2842 -0.4133
18608TIP3    H177315   6.214   5.194   3.591  1.7695  0.5575 -0.4867
18608TIP3    H277316   6.148   5.311   3.521  2.1436  0.0043 -1.8057
18609TIP3   OH277317   2.901   0.101  15.480  0.1064 -0.0222 -0.9033
18609TIP3    H177318   2.906   0.035  15.549 -1.2497 -0.5232 -1.2610
18609TIP3    H277319   2.850   0.172  15.517  0.1567  0.1061 -1.0773
18610TIP3   OH277320   3.914   3.525   4.896 -0.0522  0.3310 -0.1465
18610TIP3    H177321   3.990   3.583   4.889 -0.2590  0.7906  1.0989
18610TIP3    H277322   3.914   3.475   4.815  1.8561 -0.0098  0.0063
18611TIP3   OH277323   2.131   4.421  13.219  0.2920 -0.1855  0.1272
18611TIP3    H177324   2.152   4.358  13.150  0.8467 -0.3894  0.4724
18611TIP3    H277325   2.188   4.496  13.201 -0.2047  0.1216 -0.1535
18612TIP3   OH277326   4.995   5.431  14.978  0.1497  0.3348  0.3870
18612TIP3    H177327   4.931   5.359  14.976  0.4619  0.0697 -0.5872
18612TIP3    H277328   4.947   5.504  15.016 -0.7491  0.1458 -0.3412
18613TIP3   OH277329   3.147   1.496  16.259  0.1952 -0.0280  0.0706
18613TIP3    H177330   3.148   1.587  16.231 -0.2831 -0.5142 -1.7018
18613TIP3    H277331   3.073   1.490  16.319  0.0849  0.6977  0.0113
18614TIP3   OH277332   1.443   2.935   3.679  0.4848 -0.5728 -0.1165
18614TIP3    H177333   1.461   2.847   3.647 -0.2771 -1.0189  0.6457
18614TIP3    H277334   1.377   2.970   3.618 -1.0316 -1.4533  0.9424
18615TIP3   OH277335   6.769   1.163  10.451  0.3758  0.6861 -0.6919
18615TIP3    H177336   6.845   1.166  10.508  0.2588  0.2681 -0.5098
18615TIP3    H277337   6.798   1.113  10.374  0.0056 -0.3247 -0.1876
18616TIP3   OH277338   6.788   4.013  13.417  0.3065  0.1448 -0.1120
18616TIP3    H177339   6.794   3.921  13.390  1.0951  0.8808 -2.7820
18616TIP3    H277340   6.761   4.059  13.337  0.0194  2.2503  1.1363
18617TIP3   OH277341   0.872   0.097  16.659  0.9007 -0.8866  0.0829
18617TIP3    H177342   0.855   0.162  16.590  0.4826 -0.2225  0.7901
18617TIP3    H277343   0.963   0.070  16.644  0.4102 -1.7706 -1.5432
18618TIP3   OH277344   2.290   2.301  12.126 -0.2806  0.7601  0.7214
18618TIP3    H177345   2.319   2.211  12.114  1.1380  0.7274  3.4845
18618TIP3    H277346   2.300   2.342  12.040 -0.2257 -1.4894 -0.4118
18619TIP3   OH277347   2.233   2.262  16.693  0.2748 -0.5474  0.6145
18619TIP3    H177348   2.283   2.249  16.773  1.5507  1.1293  0.1401
18619TIP3    H277349   2.236   2.357  16.677 -0.9174 -0.7028 -0.8089
18620TIP3   OH277350   2.059   0.955  15.888  0.4231 -0.6432  0.8407
18620TIP3    H177351   2.117   0.896  15.935  0.6205 -0.2903  1.0438
18620TIP3    H277352   2.118   1.018  15.846  0.1821 -0.1526  1.2221
18621TIP3   OH277353   1.419   1.284  13.830 -0.1711 -0.0986 -0.0931
18621TIP3    H177354   1.455   1.266  13.917  0.7676 -0.2903 -0.5042
18621TIP3    H277355   1.326   1.298  13.845 -0.0610 -0.3469  0.9133
18622TIP3   OH277356   5.195   6.237  12.846  0.0536 -0.4066  0.4388
18622TIP3    H177357   5.148   6.179  12.787 -0.3583 -0.4000  0.7577
18622TIP3    H277358   5.277   6.256  12.800 -0.4516 -0.0333 -0.3325
18623TIP3   OH277359   4.366   4.167  16.004  0.1910  0.0412  0.0451
18623TIP3    H177360   4.393   4.105  15.937 -1.3267 -1.3193  0.6015
18623TIP3    H277361   4.399   4.130  16.086 -0.8372 -0.1286  0.3962
18624TIP3   OH277362   1.341   1.337  16.055  0.2721 -0.3259 -0.4825
18624TIP3    H177363   1.425   1.290  16.049  1.3027  1.2744  0.5854
18624TIP3    H277364   1.275   1.269  16.041  1.7115 -1.7959 -0.5463
18625TIP3   OH277365   1.100   2.634   1.910 -0.1480  0.5988  0.5990
18625TIP3    H177366   1.033   2.599   1.851  2.0817 -0.8438 -1.2994
18625TIP3    H277367   1.110   2.726   1.882  1.3174 -0.2127 -1.9193
18626TIP3   OH277368   1.342   2.312  13.759 -0.4697 -0.6336  0.0833
18626TIP3    H177369   1.435   2.336  13.760 -0.2012 -1.2664 -2.5644
18626TIP3    H277370   1.338   2.234  13.703 -2.5694 -0.8225  0.4190
18627TIP3   OH277371   0.427   5.320  11.459  0.5914  0.2133 -0.3519
18627TIP3    H177372   0.403   5.391  11.518  1.1999 -0.0756  0.2531
18627TIP3    H277373   0.388   5.345  11.375  0.7015  1.2098 -0.1274
18628TIP3   OH277374   2.209   2.173  15.655  0.9196  0.0640  0.4235
18628TIP3    H177375   2.291   2.204  15.615 -0.3670  3.0305 -0.1957
18628TIP3    H277376   2.187   2.094  15.606  1.7382  1.0712 -1.6928
18629TIP3   OH277377   3.253   5.981  14.258  0.7698  0.3928 -0.4900
18629TIP3    H177378   3.183   5.941  14.207 -0.6523  0.7892  1.0796
18629TIP3    H277379   3.305   5.907  14.289  0.9416  0.0825 -1.4555
18630TIP3   OH277380   4.243   5.616   5.451 -0.2787 -0.1911 -0.4471
18630TIP3    H177381   4.235   5.615   5.356 -0.3056  1.6693 -0.4874
18630TIP3    H277382   4.302   5.542   5.471 -2.3849 -2.3283 -1.6291
18631TIP3   OH277383   1.890   5.219   3.657  0.1044 -0.3306 -0.2117
18631TIP3    H177384   1.797   5.211   3.635  0.0061  1.2472 -0.5071
18631TIP3    H277385   1.891   5.226   3.753 -0.2897  1.4437 -0.2938
18632TIP3   OH277386   6.468   4.738   5.513  0.5557  0.8300 -0.4511
18632TIP3    H177387   6.532   4.806   5.493  1.7583 -0.6938 -2.0718
18632TIP3    H277388   6.517   4.673   5.565 -0.0092  0.2685 -0.6052
18633TIP3   OH277389   3.443   2.852   5.316  0.6031 -0.7731 -0.5296
18633TIP3    H177390   3.386   2.922   5.350 -0.7217 -2.3962  0.7392
18633TIP3    H277391   3.398   2.821   5.237  0.7416 -0.7579 -0.6138
18634TIP3   OH277392   3.492   1.621  11.787  0.1664  0.0749 -0.8298
18634TIP3    H177393   3.533   1.562  11.850 -0.2271  1.4082  0.7106
18634TIP3    H277394   3.432   1.564  11.737  0.9309 -1.1072 -0.4420
18635TIP3   OH277395   4.597   3.850  14.635 -0.0653 -0.3059  0.2518
18635TIP3    H177396   4.676   3.877  14.681  0.6852 -2.1090  0.1212
18635TIP3    H277397   4.625   3.778  14.579 -1.4448  0.2343 -1.2249
18636TIP3   OH277398   1.480   3.232  14.627  0.0847  0.2389 -0.0590
18636TIP3    H177399   1.386   3.243  14.638  0.1226  0.8847 -0.3450
18636TIP3    H277400   1.498   3.262  14.537  0.2018 -2.2214 -0.9337
18637TIP3   OH277401   1.040   4.856   1.498 -0.0750 -0.0522  0.5571
18637TIP3    H177402   0.950   4.874   1.472  0.5697 -0.4063 -2.2209
18637TIP3    H277403   1.038   4.767   1.535 -0.8933  0.0686  0.8033
18638TIP3   OH277404   1.522   0.362   3.065 -0.4129 -0.0134  0.2133
18638TIP3    H177405   1.506   0.408   2.983 -2.1213  1.8293  1.4820
18638TIP3    H277406   1.451   0.298   3.071 -1.6846  1.4317  1.2645
18639TIP3   OH277407   2.967   3.324  14.033 -0.1420 -0.7118 -1.0519
18639TIP3    H177408   2.963   3.338  14.127 -2.1930 -0.6231 -1.1143
18639TIP3    H277409   3.026   3.249  14.022  1.3658  0.2410  0.1475
18640TIP3   OH277410   4.748   2.570  13.958 -0.0620 -0.2793  0.1564
18640TIP3    H177411   4.732   2.648  14.010  0.9680 -0.2603  0.4654
18640TIP3    H277412   4.710   2.498  14.008  1.7300 -0.3965  1.4385
18641TIP3   OH277413   3.630   2.511   1.139 -0.9213 -0.3964 -0.1859
18641TIP3    H177414   3.592   2.592   1.174  1.8398  0.7452  0.4552
18641TIP3    H277415   3.637   2.454   1.215  0.5006  0.1915  0.1443
18642TIP3   OH277416   2.339   5.466   4.015  0.3521 -0.1884  0.2422
18642TIP3    H177417   2.336   5.431   4.104  0.2220  0.6000  0.5535
18642TIP3    H277418   2.291   5.549   4.020  1.1719  0.3398 -0.3371
18643TIP3   OH277419   1.889   2.100   4.248 -0.1725 -0.1893  0.1885
18643TIP3    H177420   1.906   2.144   4.331 -1.6700 -1.2499  1.1127
18643TIP3    H277421   1.921   2.011   4.261 -0.5560 -0.4037 -0.3049
18644TIP3   OH277422   6.303   2.026   4.233 -0.0111  0.1804 -0.0552
18644TIP3    H177423   6.296   1.930   4.233  0.1545  0.1347  1.7021
18644TIP3    H277424   6.391   2.043   4.199  0.6305 -0.3907  1.2546
18645TIP3   OH277425   1.673   5.793  11.398  0.8762 -0.3793  0.8604
18645TIP3    H177426   1.581   5.790  11.424  0.1790  1.2464 -1.2310
18645TIP3    H277427   1.719   5.820  11.478 -0.9748  2.8549  1.0065
18646TIP3   OH277428   4.976   1.632   1.973  0.0782  0.4600 -0.1721
18646TIP3    H177429   4.940   1.631   1.884  0.0906 -2.9016 -0.2500
18646TIP3    H277430   4.920   1.695   2.019 -1.7381  0.2308 -1.8794
18647TIP3   OH277431   1.292   0.378   1.999 -0.2720 -0.5075 -0.2130
18647TIP3    H177432   1.210   0.385   1.951  0.0045 -1.2476 -0.8140
18647TIP3    H277433   1.346   0.318   1.946 -0.2498 -1.9939  1.4005
18648TIP3   OH277434   5.233   2.614   0.250 -0.1282  0.4025 -0.0340
18648TIP3    H177435   5.199   2.538   0.297 -1.3386  0.7600 -0.3180
18648TIP3    H277436   5.186   2.688   0.286 -0.2740  0.8093 -1.0334
18649TIP3   OH277437   5.547   5.932  11.304  0.0651 -0.6825 -0.4849
18649TIP3    H177438   5.601   5.880  11.245  0.7284  0.3655 -0.8331
18649TIP3    H277439   5.467   5.948  11.255  0.5102 -0.0345 -1.0333
18650TIP3   OH277440   6.260   4.020  10.744  0.5674 -0.6406 -0.1142
18650TIP3    H177441   6.274   4.039  10.651 -1.3991 -0.5751 -0.4512
18650TIP3    H277442   6.258   3.924  10.749  1.2581 -0.6556 -0.0211
18651TIP3   OH277443   1.606   0.843   2.556 -0.0900 -0.0263  0.6860
18651TIP3    H177444   1.577   0.899   2.484  0.2513  0.5904  1.0154
18651TIP3    H277445   1.588   0.754   2.526 -0.1801  0.2330 -0.0545
18652TIP3   OH277446   1.945   4.686   5.119 -0.0182  0.0861  0.0943
18652TIP3    H177447   1.951   4.681   5.214 -0.0754 -2.2757  0.0425
18652TIP3    H277448   2.033   4.662   5.088 -0.4916 -1.0346 -0.4326
18653TIP3   OH277449   1.230   6.390  13.501 -0.4466 -0.1952 -0.0280
18653TIP3    H177450   1.263   6.379  13.412  1.1759  0.4364  0.4599
18653TIP3    H277451   1.227   6.301  13.536 -0.1778 -0.3491 -0.3939
18654TIP3   OH277452   2.518   0.422   0.246 -0.3576  0.3789 -0.1555
18654TIP3    H177453   2.427   0.427   0.277 -0.3818 -0.3831 -0.0978
18654TIP3    H277454   2.568   0.468   0.313 -0.8116  1.7400 -0.7049
18655TIP3   OH277455   4.115   5.216   1.151 -0.2235  0.5684 -0.0731
18655TIP3    H177456   4.143   5.172   1.071 -1.4810  0.6169 -0.5527
18655TIP3    H277457   4.190   5.208   1.210  0.2692 -0.5163 -0.8260
18656TIP3   OH277458   2.215   3.135   5.831 -0.4273  0.0155  0.7262
18656TIP3    H177459   2.262   3.140   5.914 -0.7630 -1.4209  1.0210
18656TIP3    H277460   2.127   3.108   5.855 -0.6959  0.1779 -0.0506
18657TIP3   OH277461   5.467   1.469   5.121 -0.8122 -0.2885  0.2922
18657TIP3    H177462   5.549   1.505   5.087 -0.3535 -2.0964 -0.6236
18657TIP3    H277463   5.493   1.417   5.197 -1.2333 -0.2413  0.4768
18658TIP3   OH277464   6.703   0.701  10.435 -0.5682  0.1637 -0.1286
18658TIP3    H177465   6.629   0.761  10.446  0.2397  1.4494 -1.3027
18658TIP3    H277466   6.693   0.667  10.346  1.7735  2.6835 -1.5203
18659TIP3   OH277467   1.033   3.039  16.840  0.4975  0.6859 -0.5616
18659TIP3    H177468   1.097   3.068  16.905  1.7349  1.3868 -2.0117
18659TIP3    H277469   0.981   3.117  16.821  0.0155  0.4355 -0.3016
18660TIP3   OH277470   4.871   3.927   6.463 -0.5017  0.3877 -0.2919
18660TIP3    H177471   4.912   3.852   6.420  2.1737  1.1553  0.6914
18660TIP3    H277472   4.942   3.991   6.470 -2.0616  2.0484  1.0928
18661TIP3   OH277473   5.927   4.443   2.508 -0.0953 -0.4285 -0.6881
18661TIP3    H177474   5.932   4.507   2.578  0.5253 -1.4036  0.1921
18661TIP3    H277475   5.863   4.379   2.539  0.2514 -0.9142 -0.9627
18662TIP3   OH277476   3.222   6.699  10.843 -0.4961 -0.7372 -0.1504
18662TIP3    H177477   3.293   6.763  10.837 -1.6618  0.5437 -0.9046
18662TIP3    H277478   3.155   6.743  10.895 -1.0570 -1.6267 -0.0948
18663TIP3   OH277479   2.433   4.519   4.500 -0.0546 -0.7020  0.0077
18663TIP3    H177480   2.477   4.577   4.562 -2.0230  0.8233  0.0711
18663TIP3    H277481   2.443   4.431   4.537 -0.1472  0.0425  1.8678
18664TIP3   OH277482   4.475   1.262   0.564  0.4982  0.3147  0.5514
18664TIP3    H177483   4.461   1.356   0.554  0.8554  0.4511  1.3262
18664TIP3    H277484   4.435   1.239   0.647  0.8464 -0.1299  0.6055
18665TIP3   OH277485   4.577   6.350  11.484  0.2070 -0.3505 -0.1635
18665TIP3    H177486   4.632   6.271  11.492  0.8199  0.1468  0.7065
18665TIP3    H277487   4.531   6.339  11.401  0.9543 -1.2096 -0.4784
18666TIP3   OH277488   6.010   0.388   5.511 -0.2373 -0.1974 -0.4200
18666TIP3    H177489   5.942   0.427   5.566 -0.5944  0.1776 -1.1085
18666TIP3    H277490   6.012   0.444   5.432 -0.4661 -1.3240 -1.2456
18667TIP3   OH277491   5.515   0.267  11.588 -0.1630  0.5723  0.1168
18667TIP3    H177492   5.522   0.305  11.501  0.9126 -0.9785 -0.5073
18667TIP3    H277493   5.589   0.303  11.636  0.0808  0.3086 -0.0597
18668TIP3   OH277494   6.823   4.800   6.273  0.3140  0.4920  0.6867
18668TIP3    H177495   6.783   4.720   6.307  1.4782  0.1978  1.3989
18668TIP3    H277496   6.752   4.844   6.225 -1.3042  0.7415  3.1386
18669TIP3   OH277497   6.188   4.649  12.102  0.2498  0.4136 -0.3508
18669TIP3    H177498   6.217   4.669  12.191  0.3345  0.4543 -0.3865
18669TIP3    H277499   6.111   4.704  12.089  0.7389  1.0531 -0.6077
18670TIP3   OH277500   5.651   3.145   4.284  0.1035  0.3258 -0.2169
18670TIP3    H177501   5.556   3.158   4.287 -0.0767 -0.3838 -1.5373
18670TIP3    H277502   5.669   3.082   4.354 -0.4158  0.4295  0.0131
18671TIP3   OH277503   0.551   3.692  11.489  0.2114 -0.4244 -0.0669
18671TIP3    H177504   0.531   3.746  11.412  0.4195  1.2217  0.9773
18671TIP3    H277505   0.480   3.628  11.492 -1.6559  1.5173  0.1562
18672TIP3   OH277506   4.674   2.084   4.250 -0.2509 -0.2152  0.0199
18672TIP3    H177507   4.630   2.000   4.233 -2.3144  0.8731 -0.2587
18672TIP3    H277508   4.705   2.112   4.165 -0.8024 -0.0407 -0.1280
18673TIP3   OH277509   0.001   3.359   4.549  0.0847  0.3893  0.1628
18673TIP3    H177510   0.008   3.265   4.562 -0.9365  0.3046  0.2388
18673TIP3    H277511   0.089   3.393   4.561  0.0459 -0.2399  2.6815
18674TIP3   OH277512   4.954   6.432   3.800  0.1690 -0.2759 -0.2004
18674TIP3    H177513   4.874   6.413   3.752  0.7821  0.3842 -1.5327
18674TIP3    H277514   5.008   6.353   3.790  0.4366 -0.0087 -0.9170
18675TIP3   OH277515   3.774   5.435   5.741 -0.3872  0.0805  0.0844
18675TIP3    H177516   3.810   5.521   5.719  1.1066 -0.2391  1.1601
18675TIP3    H277517   3.820   5.409   5.821 -0.6556 -1.8140 -0.3265
18676TIP3   OH277518   2.062   3.234  14.701  0.5478  0.1124 -0.2437
18676TIP3    H177519   2.129   3.232  14.632  0.9320 -0.5497  0.1380
18676TIP3    H277520   1.979   3.238  14.653  0.8055 -0.4285 -0.7587
18677TIP3   OH277521   2.610   5.144  16.076  0.1173  0.1454 -0.0455
18677TIP3    H177522   2.547   5.072  16.070  0.7767 -0.4640  0.1943
18677TIP3    H277523   2.625   5.170  15.986 -0.6856  0.4923 -0.0932
18678TIP3   OH277524   1.308   2.764  15.602 -0.0572 -0.0172  0.3425
18678TIP3    H177525   1.232   2.822  15.613  0.2851  0.5027  0.0246
18678TIP3    H277526   1.382   2.816  15.633  0.6450  0.7374 -2.3459
18679TIP3   OH277527   1.003   4.592  12.875 -0.2033  0.3432  0.0493
18679TIP3    H177528   0.972   4.516  12.826  0.5682  0.3367 -0.4461
18679TIP3    H277529   0.952   4.665  12.841 -0.8918  0.0695  0.4700
18680TIP3   OH277530   4.510   1.380   2.914  0.3151 -0.6111  0.4093
18680TIP3    H177531   4.591   1.431   2.902 -0.0659 -0.3980 -1.4561
18680TIP3    H277532   4.532   1.317   2.982  0.5449  2.5667  3.6075
18681TIP3   OH277533   4.448   2.163   5.144 -0.0926 -0.1385 -0.4574
18681TIP3    H177534   4.456   2.069   5.155  0.3370 -0.0662 -0.1128
18681TIP3    H277535   4.518   2.187   5.083  1.5229  0.2930  1.4329
18682TIP3   OH277536   6.623   0.566   4.409  0.1735 -0.3366 -0.3839
18682TIP3    H177537   6.608   0.656   4.438  1.7799 -0.7464  2.0244
18682TIP3    H277538   6.540   0.539   4.370 -1.8511  0.8159  2.7614
18683TIP3   OH277539   4.999   4.988  13.322 -0.7314 -0.1477  0.4972
18683TIP3    H177540   4.992   4.960  13.413  2.3401  0.2484  0.9633
18683TIP3    H277541   5.013   4.907  13.273  1.9940 -0.0797  1.0323
18684TIP3   OH277542   6.385   5.075  14.216  0.2318 -0.3013  0.2617
18684TIP3    H177543   6.451   5.112  14.275  1.5694 -0.9091 -0.8082
18684TIP3    H277544   6.430   5.003  14.172 -1.2840 -1.0063 -0.1998
18685TIP3   OH277545   6.296   3.608  12.344  0.2338 -0.1392 -0.3440
18685TIP3    H177546   6.270   3.604  12.252  2.0494  0.8782 -0.9451
18685TIP3    H277547   6.376   3.554  12.348 -0.6733 -1.4726  0.9962
18686TIP3   OH277548   5.817   0.783   5.639 -0.0822 -0.7049 -0.0742
18686TIP3    H177549   5.839   0.783   5.546  3.0944  0.2563  0.5496
18686TIP3    H277550   5.790   0.693   5.658 -1.7542 -0.6803 -2.0469
18687TIP3   OH277551   6.662   3.509   3.473  0.0734  0.0824  0.3876
18687TIP3    H177552   6.586   3.471   3.430  1.3174 -1.5475 -0.4530
18687TIP3    H277553   6.710   3.554   3.404  0.1148  0.7586  0.8374
18688TIP3   OH277554   6.198   0.068   0.923 -0.0910 -0.0987 -0.1955
18688TIP3    H177555   6.215  -0.005   0.864  0.6353 -2.3053  2.5473
18688TIP3    H277556   6.115   0.104   0.893 -1.6934 -3.5334 -0.3380
18689TIP3   OH277557   3.028   2.945   5.890  0.2307  0.2383 -0.4864
18689TIP3    H177558   3.090   2.963   5.819  2.3740 -1.0961  0.9394
18689TIP3    H277559   2.961   2.889   5.850  0.8038  0.3940 -1.6948
18690TIP3   OH277560   4.052   0.116   4.171  0.9024 -0.5015  0.3381
18690TIP3    H177561   4.054   0.035   4.222  3.1255 -0.3337  0.6027
18690TIP3    H277562   4.129   0.111   4.114  0.6655  1.1016 -0.1822
18691TIP3   OH277563   3.332   2.701   3.911 -0.3483 -0.5518  0.1877
18691TIP3    H177564   3.322   2.629   3.974  1.7958 -3.3889 -2.3712
18691TIP3    H277565   3.246   2.710   3.871 -1.0547 -0.5831  1.6418
18692TIP3   OH277566   2.880   1.565  14.459 -0.3152  0.1433 -0.1182
18692TIP3    H177567   2.953   1.627  14.452  0.0165 -0.2951 -0.6561
18692TIP3    H277568   2.809   1.615  14.498  0.5459  0.3471  1.2309
18693TIP3   OH277569   6.821   5.173  15.032  0.0555  0.6977  0.1142
18693TIP3    H177570   6.825   5.255  14.982 -0.5911  0.6706 -0.0000
18693TIP3    H277571   6.741   5.182  15.085 -0.1304  0.0598 -0.0519
18694TIP3   OH277572   0.208   5.186   6.194 -0.5598  0.3266  0.1121
18694TIP3    H177573   0.114   5.186   6.175 -0.4226 -0.4408 -0.6689
18694TIP3    H277574   0.236   5.276   6.179 -1.0624  0.4201 -0.2797
18695TIP3   OH277575   4.794   2.976  14.302  0.3480 -0.6890  0.5354
18695TIP3    H177576   4.710   2.933  14.315  0.0188  0.2119  1.4700
18695TIP3    H277577   4.786   3.060  14.347  1.8130 -0.6748  0.8340
18696TIP3   OH277578   0.267   1.381   3.171 -0.8815  0.2269  0.8878
18696TIP3    H177579   0.308   1.379   3.257 -0.1272  2.0412  0.6272
18696TIP3    H277580   0.185   1.332   3.181 -0.2376 -0.5969  2.2966
18697TIP3   OH277581   6.246   0.000  15.736  0.3676  0.1375 -0.2035
18697TIP3    H177582   6.244  -0.091  15.708  0.6308  0.4786 -1.3975
18697TIP3    H277583   6.298   0.044  15.669  0.8856  1.0346  0.7583
18698TIP3   OH277584   2.001   1.923   5.206 -0.0757  0.6784 -0.2798
18698TIP3    H177585   2.043   1.847   5.165 -0.3375 -0.1667  0.9337
18698TIP3    H277586   2.030   1.998   5.155  0.6178 -0.1907 -1.1952
18699TIP3   OH277587   4.137   0.758  16.394  0.4130  0.3274  0.2960
18699TIP3    H177588   4.098   0.813  16.326  0.8144 -0.8855 -0.9712
18699TIP3    H277589   4.069   0.752  16.462 -0.5575  0.4534 -0.6328
18700TIP3   OH277590   0.768   6.814   0.238 -0.1554 -0.5534 -0.0873
18700TIP3    H177591   0.762   6.790   0.331 -0.2344  0.1280  0.0862
18700TIP3    H277592   0.793   6.732   0.194  0.8207 -0.6777  0.6484
18701TIP3   OH277593   0.291   2.507  10.933 -0.5740 -0.6023 -0.7100
18701TIP3    H177594   0.353   2.559  10.882  0.3073 -0.1957  0.7342
18701TIP3    H277595   0.320   2.417  10.921  1.4432 -0.3194  1.3087
18702TIP3   OH277596   0.743   0.448  14.631 -0.5220 -0.0397  0.3451
18702TIP3    H177597   0.696   0.529  14.652  2.0612  1.4990  0.6243
18702TIP3    H277598   0.735   0.395  14.711 -0.6257  0.7732  0.8905
18703TIP3   OH277599   2.679   6.784   4.232  0.1305 -0.4370  0.2682
18703TIP3    H177600   2.764   6.770   4.274  0.0681  0.2811  0.6453
18703TIP3    H277601   2.644   6.863   4.274  0.1430  0.4041 -1.2394
18704TIP3   OH277602   1.467   4.429   3.263 -0.0841 -0.0183 -0.3813
18704TIP3    H177603   1.374   4.443   3.284  0.4094  0.0678  2.0767
18704TIP3    H277604   1.485   4.341   3.296  0.4644 -0.4990 -1.9042
18705TIP3   OH277605   2.625   4.159  11.638  0.2386  0.6269 -0.1505
18705TIP3    H177606   2.542   4.172  11.684 -1.4914 -4.0601 -1.3564
18705TIP3    H277607   2.687   4.133  11.706  0.4214  2.7667  0.5660
18706TIP3   OH277608   2.597   2.635  16.981 -0.0209  0.1208 -0.1958
18706TIP3    H177609   2.528   2.574  17.010 -0.1257  0.8356  1.1328
18706TIP3    H277610   2.627   2.598  16.898 -1.5321 -0.5909 -0.4783
18707TIP3   OH277611   1.824   3.046   2.519 -0.5518  0.3326  0.1584
18707TIP3    H177612   1.735   3.081   2.516 -0.5011  0.4063 -1.9430
18707TIP3    H277613   1.823   2.973   2.456  1.3735  1.6738 -1.5620
18708TIP3   OH277614   1.378   3.674  11.504 -0.0601  0.3760 -0.0600
18708TIP3    H177615   1.329   3.602  11.466  0.6772 -0.0670 -0.1920
18708TIP3    H277616   1.318   3.748  11.502 -1.7860 -0.8298  2.4903
18709TIP3   OH277617   2.127   5.811  15.794  0.5481  0.1017  0.3955
18709TIP3    H177618   2.211   5.767  15.808  0.7973  0.2474 -0.5678
18709TIP3    H277619   2.151   5.896  15.754 -0.1316 -1.0277 -2.7071
18710TIP3   OH277620   1.880   1.788  11.425  0.3324  0.1662  0.0508
18710TIP3    H177621   1.796   1.784  11.470 -0.2200 -0.5317 -1.0004
18710TIP3    H277622   1.936   1.728  11.474 -0.2884 -0.6596 -0.2318
18711TIP3   OH277623   4.750   6.776   3.289  0.0059  0.4132 -0.4016
18711TIP3    H177624   4.707   6.846   3.240  0.2274  0.3514 -0.6899
18711TIP3    H277625   4.679   6.722   3.324 -0.1946  1.2558  0.5322
18712TIP3   OH277626   2.812   3.088   4.418  0.3809 -0.3209  0.6749
18712TIP3    H177627   2.794   2.997   4.443 -0.6338 -1.3035 -3.0557
18712TIP3    H277628   2.889   3.083   4.362 -1.1193  0.6196 -1.6651
18713TIP3   OH277629   6.531   3.699  12.117  0.3463 -0.4346 -0.1521
18713TIP3    H177630   6.527   3.683  12.022 -0.4296 -0.8104 -0.0580
18713TIP3    H277631   6.457   3.756  12.135 -0.6513 -1.8953  0.5213
18714TIP3   OH277632   3.640   1.970  11.520 -0.6967 -0.0731  0.1598
18714TIP3    H177633   3.691   1.923  11.587 -1.0213  0.0507  0.5000
18714TIP3    H277634   3.654   2.062  11.540 -1.0954 -0.0386  0.2924
18715TIP3   OH277635   5.161   0.271  11.628 -0.3275 -0.7108 -0.4844
18715TIP3    H177636   5.202   0.346  11.585 -0.6735  1.2877  2.3907
18715TIP3    H277637   5.085   0.251  11.574 -1.5809  2.6060 -0.1802
18716TIP3   OH277638   1.229   5.458  12.662  0.1132  0.1967  0.2536
18716TIP3    H177639   1.229   5.544  12.703 -2.8193  1.0577 -1.3032
18716TIP3    H277640   1.191   5.400  12.728  1.8730  0.0726  1.2158
18717TIP3   OH277641   3.526   5.131   6.611  0.0660 -0.0714 -0.0935
18717TIP3    H177642   3.565   5.044   6.598  1.7067  0.9817 -3.1449
18717TIP3    H277643   3.499   5.159   6.524 -0.3391  2.5432  0.7772
18718TIP3   OH277644   0.695   2.328  12.927 -0.5598  0.2119 -0.4286
18718TIP3    H177645   0.715   2.242  12.964 -1.3103  1.0555  2.1371
18718TIP3    H277646   0.734   2.325  12.839  1.5590 -1.8656  0.4452
18719TIP3   OH277647   3.575   5.539   3.397  0.2043 -0.5577 -0.0367
18719TIP3    H177648   3.502   5.571   3.344  0.2877  0.0511  0.2093
18719TIP3    H277649   3.649   5.595   3.373  0.3171 -0.4658  0.5028
18720TIP3   OH277650   6.422   2.970  11.631  0.6080 -0.2746 -0.1507
18720TIP3    H177651   6.478   3.038  11.667  1.3738 -1.3787  0.8349
18720TIP3    H277652   6.482   2.910  11.587 -0.1028 -0.0613 -1.4560
18721TIP3   OH277653   4.670   1.571  11.673 -0.5516 -0.3712  0.0371
18721TIP3    H177654   4.679   1.486  11.630 -0.6494 -0.0971 -0.5325
18721TIP3    H277655   4.595   1.612  11.630  0.2962  0.5459 -0.6125
18722TIP3   OH277656   6.139   4.357  14.761  0.6500  0.0105 -0.2462
18722TIP3    H177657   6.067   4.345  14.699 -0.1978 -0.7505  0.8534
18722TIP3    H277658   6.100   4.404  14.834  1.3281 -0.2024  0.2604
18723TIP3   OH277659   0.711   6.213  16.650 -1.0784 -0.8310 -0.4245
18723TIP3    H177660   0.707   6.133  16.703 -1.4924 -0.6628 -0.2018
18723TIP3    H277661   0.690   6.183  16.561  0.0109 -1.1786 -0.5720
18724TIP3   OH277662   0.051   1.064   3.938 -0.0100 -0.3457  0.4976
18724TIP3    H177663  -0.002   0.985   3.923 -0.6899 -0.1084  1.5221
18724TIP3    H277664   0.135   1.044   3.898 -0.3877 -1.3412  0.1662
18725TIP3   OH277665   2.158   3.901  16.596  0.4380 -0.1785 -0.2137
18725TIP3    H177666   2.125   3.855  16.674  3.0906  0.2561  1.2784
18725TIP3    H277667   2.083   3.951  16.565 -0.3033  1.2071  3.2943
18726TIP3   OH277668   4.812   0.900   3.826  0.2267  0.0236 -0.0656
18726TIP3    H177669   4.751   0.949   3.881  0.0513 -1.2955  0.9578
18726TIP3    H277670   4.886   0.881   3.883  1.4194  1.1515 -1.1484
18727TIP3   OH277671   3.613   2.872   6.452 -0.5693  0.0205 -0.0224
18727TIP3    H177672   3.524   2.842   6.439  0.2584 -2.6768 -0.0326
18727TIP3    H277673   3.668   2.802   6.417  1.6241  2.6212 -2.3520
18728TIP3   OH277674   2.106   4.975   0.024 -0.9850 -0.1633 -0.6702
18728TIP3    H177675   2.173   5.043   0.014  0.7839 -1.4923  1.2572
18728TIP3    H277676   2.069   4.991   0.111  0.8029 -2.6912  0.6519
18729TIP3   OH277677   2.794   0.200  14.479 -0.5853  0.0659  0.5608
18729TIP3    H177678   2.875   0.247  14.459 -0.2969 -0.9344 -0.7922
18729TIP3    H277679   2.724   0.263  14.461 -0.1379  1.0976  2.2064
18730TIP3   OH277680   2.212   6.037  15.637  0.5610  0.4112  0.4943
18730TIP3    H177681   2.167   6.070  15.559  1.1889  1.1601  0.4368
18730TIP3    H277682   2.248   6.115  15.679  1.0499 -0.0841  1.0160
18731TIP3   OH277683   3.099   0.032  16.976  0.4379  0.7980 -0.2608
18731TIP3    H177684   3.017   0.039  16.926  1.9740  0.6032 -3.0119
18731TIP3    H277685   3.090   0.099  17.044 -0.9772  2.6719 -2.1211
18732TIP3   OH277686   6.366   0.234   1.649  0.1981 -0.5861  0.6735
18732TIP3    H177687   6.343   0.176   1.721 -2.4624 -0.2732  0.1817
18732TIP3    H277688   6.342   0.185   1.570 -1.6752  0.9196  0.2369
18733TIP3   OH277689   4.052   1.980  13.807 -0.3735 -0.0472 -0.3641
18733TIP3    H177690   4.098   1.917  13.862  3.4774  1.5901 -1.3227
18733TIP3    H277691   4.033   1.932  13.726  0.0071 -0.7053 -0.0664
18734TIP3   OH277692   2.328   3.480  11.303 -0.2426 -0.0851 -0.1028
18734TIP3    H177693   2.309   3.392  11.270  0.5904 -0.5874  0.7211
18734TIP3    H277694   2.290   3.482  11.390 -1.2059  0.7598 -0.5263
18735TIP3   OH277695   5.904   2.834   3.346 -0.4653 -0.1176  0.1964
18735TIP3    H177696   5.937   2.793   3.267 -1.2568  0.9504 -0.7178
18735TIP3    H277697   5.825   2.785   3.368  0.5293 -1.3516  1.2047
18736TIP3   OH277698   2.255   1.692   1.642 -0.3559 -1.0833 -0.1664
18736TIP3    H177699   2.275   1.736   1.559  0.3974 -0.3188  0.3982
18736TIP3    H277700   2.341   1.667   1.677 -0.6330 -0.9884  0.5931
18737TIP3   OH277701   1.198   4.847   5.198  1.0312  0.1229 -0.0412
18737TIP3    H177702   1.120   4.866   5.250  0.3225  1.0237 -1.3734
18737TIP3    H277703   1.249   4.787   5.252 -0.6984 -0.6871  0.7673
18738TIP3   OH277704   5.198   1.411   3.465  0.1694  0.1287 -0.0126
18738TIP3    H177705   5.236   1.459   3.539 -1.2438  1.3971 -0.0678
18738TIP3    H277706   5.103   1.414   3.481 -0.1204 -0.1401 -1.5490
18739TIP3   OH277707   6.063   5.059  13.953  0.7932 -0.0145  0.7385
18739TIP3    H177708   6.050   5.060  13.858 -0.5077 -0.1071  0.9000
18739TIP3    H277709   6.098   5.146  13.973  0.3926  0.2635  0.2595
18740TIP3   OH277710   6.762   0.953  12.357  0.3729 -0.3661 -0.1862
18740TIP3    H177711   6.841   0.999  12.385 -0.4883  0.9682  0.1778
18740TIP3    H277712   6.786   0.911  12.275  1.2382  0.7095 -0.5161
18741TIP3   OH277713   1.345   1.585   1.752 -0.1604  0.3641  0.3153
18741TIP3    H177714   1.370   1.506   1.704  2.8077  2.0533 -1.2019
18741TIP3    H277715   1.254   1.600   1.728 -1.1514 -3.0223  1.4292
18742TIP3   OH277716   2.183   1.526   3.717  0.1025 -0.3906 -0.2920
18742TIP3    H177717   2.129   1.604   3.732 -0.3572 -0.9769  1.3249
18742TIP3    H277718   2.271   1.553   3.743  0.4506  0.2878 -2.0491
18743TIP3   OH277719   5.095   6.154  11.796 -0.0582  0.0132 -0.2664
18743TIP3    H177720   5.008   6.164  11.757  0.3635  1.5675 -0.8829
18743TIP3    H277721   5.149   6.121  11.725  0.4751  1.8450 -0.7739
18744TIP3   OH277722   6.579   6.714   1.040 -0.5150 -0.3149  0.9554
18744TIP3    H177723   6.623   6.734   1.123 -2.5777 -0.8058  2.2392
18744TIP3    H277724   6.560   6.799   1.002 -0.3695 -0.0615  1.4354
18745TIP3   OH277725   5.416   3.370   6.381  0.0087  0.2663 -0.2321
18745TIP3    H177726   5.385   3.453   6.417 -0.3389 -0.6476  1.7475
18745TIP3    H277727   5.503   3.358   6.419  0.1747 -0.1216 -0.7311
18746TIP3   OH277728   4.919   6.446  16.571  0.0422 -0.1926  0.0780
18746TIP3    H177729   4.922   6.492  16.487 -1.6017 -1.9086 -0.9940
18746TIP3    H277730   5.003   6.400  16.576  0.2807  0.1661 -0.4606
18747TIP3   OH277731   3.250   3.570   0.196 -0.1712  0.0821  0.5553
18747TIP3    H177732   3.166   3.529   0.177  0.2237 -0.4172 -0.1704
18747TIP3    H277733   3.255   3.571   0.292 -0.1863 -1.6214  0.6173
18748TIP3   OH277734   1.109   3.010  11.681  0.2132 -0.1197  0.1194
18748TIP3    H177735   1.014   3.001  11.672  0.2598  0.1222 -0.6234
18748TIP3    H277736   1.121   3.080  11.745 -0.1068 -0.9176  1.0864
18749TIP3   OH277737   4.059   3.367   0.680  0.1970  0.1045  0.0667
18749TIP3    H177738   4.004   3.390   0.755 -0.5847 -3.6415  0.8840
18749TIP3    H277739   4.142   3.337   0.720 -0.3934 -2.3734 -0.3582
18750TIP3   OH277740   3.777   0.937   3.601 -0.0552 -0.2425  0.1573
18750TIP3    H177741   3.822   1.019   3.583 -0.5325 -0.3778 -1.8396
18750TIP3    H277742   3.684   0.961   3.601 -0.4094 -1.1583 -3.2750
18751TIP3   OH277743   1.704   0.737  16.130  0.2442 -0.2117  0.0643
18751TIP3    H177744   1.705   0.646  16.100 -1.2429  0.6695 -3.0317
18751TIP3    H277745   1.615   0.752  16.161 -0.1422  0.6838 -1.3718
18752TIP3   OH277746   2.325   6.344   5.036 -0.0506  0.2085  0.0384
18752TIP3    H177747   2.274   6.380   4.964  0.6522  0.2734 -0.4417
18752TIP3    H277748   2.403   6.400   5.041  2.2362 -2.4972 -2.2481
18753TIP3   OH277749   1.290   0.833  13.726 -0.8318 -0.2237 -0.3154
18753TIP3    H177750   1.245   0.803  13.805 -0.7926 -0.6064 -0.4397
18753TIP3    H277751   1.241   0.794  13.654 -0.0373 -1.0103 -0.4440
18754TIP3   OH277752   6.306   1.664   6.069 -0.6177  0.1812 -0.3922
18754TIP3    H177753   6.274   1.593   6.013 -1.8487  0.4936 -0.1078
18754TIP3    H277754   6.348   1.725   6.008 -0.7478 -0.1385 -0.8041
18755TIP3   OH277755   1.754   1.565   4.105  0.0211 -0.3579  0.4192
18755TIP3    H177756   1.679   1.579   4.162 -0.9859  0.5685 -1.0481
18755TIP3    H277757   1.715   1.532   4.023  1.2350 -0.0966 -0.2805
18756TIP3   OH277758   1.828   0.425   3.740 -0.2413 -0.6605  0.5304
18756TIP3    H177759   1.839   0.410   3.646  0.6925  0.1325  0.4879
18756TIP3    H277760   1.898   0.374   3.781  1.0712  1.0491  0.5749
18757TIP3   OH277761   0.525   3.411   3.792  0.0605  0.2356 -0.7511
18757TIP3    H177762   0.470   3.365   3.856  0.8381  1.2994  0.7445
18757TIP3    H277763   0.479   3.494   3.776  0.0716  0.1437 -1.2702
18758TIP3   OH277764   0.004   3.811  16.073 -0.0840  0.0844  0.3331
18758TIP3    H177765  -0.004   3.903  16.047  0.1300  0.1682  0.5557
18758TIP3    H277766  -0.084   3.776  16.066 -0.0640  0.1576 -0.3140
18759TIP3   OH277767   5.130   0.342  13.161  0.3398 -0.2235 -0.7451
18759TIP3    H177768   5.107   0.372  13.073 -0.7475  1.3756  0.0386
18759TIP3    H277769   5.083   0.260  13.172  1.1670 -0.8766 -1.9517
18760TIP3   OH277770   0.309   2.718  11.309 -0.1926 -0.3933  0.1082
18760TIP3    H177771   0.393   2.764  11.308 -0.4069 -0.0110 -0.4347
18760TIP3    H277772   0.254   2.771  11.366  0.0494 -0.8651  0.7979
18761TIP3   OH277773   2.968   3.470   5.449  0.3319 -0.2140 -0.4413
18761TIP3    H177774   3.049   3.482   5.500  0.5677 -0.4452 -0.7569
18761TIP3    H277775   2.920   3.402   5.497  0.5835 -0.4779 -0.5590
18762TIP3   OH277776   0.013   4.535   5.205  0.3410  0.1619 -0.0376
18762TIP3    H177777   0.044   4.599   5.141  0.2299  1.5927  1.2861
18762TIP3    H277778   0.075   4.541   5.278 -1.1789  0.7484  1.2668
18763TIP3   OH277779   3.061   1.082  12.688  0.0447  0.6855 -0.2316
18763TIP3    H177780   3.078   1.163  12.736 -1.7215  0.0925  1.5576
18763TIP3    H277781   3.069   1.013  12.753 -1.8470 -0.2257 -0.8737
18764TIP3   OH277782   3.972   2.943  13.791  0.3544  0.5995 -0.2190
18764TIP3    H177783   4.004   2.994  13.865  1.2153  1.0961 -0.9070
18764TIP3    H277784   4.038   2.874  13.779 -0.4655 -0.2833  0.2981
18765TIP3   OH277785   2.495   3.233   4.092  0.1090  0.2950  0.0517
18765TIP3    H177786   2.475   3.174   4.019  2.0200 -0.1968 -0.1151
18765TIP3    H277787   2.521   3.315   4.051 -0.3548  0.5427  0.2382
18766TIP3   OH277788   5.909   2.508  14.733  0.0320 -0.3329  0.5629
18766TIP3    H177789   5.939   2.454  14.660 -0.6623 -1.7086  1.2426
18766TIP3    H277790   5.874   2.444  14.796 -1.7433  0.9834  0.9745
18767TIP3   OH277791   5.986   2.959  12.374  0.4239  0.0312 -0.0390
18767TIP3    H177792   6.012   2.904  12.300  1.3262 -0.8258  0.8810
18767TIP3    H277793   6.060   3.017  12.388  0.3906 -0.0238  0.3844
18768TIP3   OH277794   1.663   6.780  13.187 -0.4844  0.1018  0.1983
18768TIP3    H177795   1.671   6.875  13.194 -1.8949  0.4347 -1.7550
18768TIP3    H277796   1.569   6.764  13.182 -0.2432 -1.2618 -0.6759
18769TIP3   OH277797   5.763   2.581   4.475  0.2489 -0.7231  0.0344
18769TIP3    H177798   5.671   2.576   4.449  0.1765  0.4557  0.0059
18769TIP3    H277799   5.803   2.504   4.436 -0.7289 -1.2578  0.0536
18770TIP3   OH277800   6.531   4.659  14.206 -0.1847 -0.3245  0.1139
18770TIP3    H177801   6.452   4.608  14.192 -0.9685  1.5095 -3.1801
18770TIP3    H277802   6.521   4.696  14.294 -3.4698  0.4693 -0.4759
18771TIP3   OH277803   2.952   6.018   0.741  0.4161  0.3017  0.2415
18771TIP3    H177804   3.012   6.017   0.815 -0.5599 -1.0908  1.0483
18771TIP3    H277805   2.968   5.935   0.695 -0.7161  0.0202  0.3362
18772TIP3   OH277806   5.000   0.533  11.036 -0.1324 -0.2954 -0.4369
18772TIP3    H177807   4.997   0.621  11.076 -0.3513 -0.9453  1.0560
18772TIP3    H277808   4.983   0.548  10.943 -2.5136  1.0579  0.1113
18773TIP3   OH277809   5.995   5.295  16.394  0.0125 -0.0397  0.4014
18773TIP3    H177810   5.971   5.303  16.301  0.5784  2.2312  0.3914
18773TIP3    H277811   5.920   5.251  16.434 -0.7529 -0.0239 -0.9366
18774TIP3   OH277812   2.851   4.592   4.130 -0.9968  0.2593  0.3321
18774TIP3    H177813   2.928   4.598   4.186 -0.9118 -1.0978  0.3970
18774TIP3    H277814   2.822   4.501   4.139 -2.5243  0.7082  0.1966
18775TIP3   OH277815   0.931   3.721   3.563  0.5079  0.1413 -0.0942
18775TIP3    H177816   0.985   3.795   3.591  0.9309 -0.1125 -0.2134
18775TIP3    H277817   0.991   3.668   3.509  0.0044  0.0994 -0.6208
18776TIP3   OH277818   5.946   3.746  14.074  0.2701  0.0314 -0.3738
18776TIP3    H177819   5.941   3.826  14.127  1.1509  1.3049 -2.1058
18776TIP3    H277820   6.038   3.721  14.078 -0.0262 -1.0272  0.2713
18777TIP3   OH277821   3.260   3.169  10.688 -0.1009  0.4729  0.5155
18777TIP3    H177822   3.180   3.204  10.726 -0.5210 -1.6656  1.7555
18777TIP3    H277823   3.320   3.243  10.687 -1.3771  1.5850  1.6588
18778TIP3   OH277824   0.141   1.280   5.285  0.5842 -0.1709  0.4052
18778TIP3    H177825   0.214   1.283   5.225 -0.6894  1.5924 -1.1697
18778TIP3    H277826   0.065   1.256   5.231 -0.7379  2.2179  1.0656
18779TIP3   OH277827   0.695   2.798  16.914 -0.2615 -0.5760 -0.4166
18779TIP3    H177828   0.637   2.829  16.844 -0.1147 -1.7419 -1.0841
18779TIP3    H277829   0.656   2.715  16.942 -1.0241  0.4603  1.7887
18780TIP3   OH277830   4.150   5.224  12.800 -0.1171 -0.1600 -0.0060
18780TIP3    H177831   4.084   5.158  12.776  0.9854 -1.9797  1.6471
18780TIP3    H277832   4.198   5.184  12.873  1.8705  1.7096 -0.1964
18781TIP3   OH277833   1.329   1.081  16.597  0.1762  0.1153  0.8665
18781TIP3    H177834   1.302   1.042  16.680 -1.0568 -5.2074 -1.6141
18781TIP3    H277835   1.251   1.078  16.542  1.3660  1.8348 -1.0697
18782TIP3   OH277836   5.944   2.374  12.711 -0.0427  0.0643 -0.0709
18782TIP3    H177837   5.952   2.442  12.644  0.7553  0.7037  0.6366
18782TIP3    H277838   5.891   2.306  12.671  1.2090 -0.0078 -1.6890
18783TIP3   OH277839   4.561   5.796   2.629  0.4698 -0.0048  0.8330
18783TIP3    H177840   4.574   5.847   2.549 -0.1027 -1.4278 -0.2154
18783TIP3    H277841   4.486   5.739   2.609  1.2152 -1.4000  1.8458
18784TIP3   OH277842   1.743   1.753  16.055 -0.1572  0.2965  0.3037
18784TIP3    H177843   1.796   1.810  16.110  1.5927 -0.2592 -0.7235
18784TIP3    H277844   1.713   1.809  15.983  0.5445  0.2316 -0.0514
18785TIP3   OH277845   1.273   2.016   1.433 -0.0795  0.1480 -0.8670
18785TIP3    H177846   1.319   2.057   1.507 -0.2143  0.4204 -0.9310
18785TIP3    H277847   1.302   2.064   1.356  0.1457 -0.2103 -1.0064
18786TIP3   OH277848   1.619   4.675   5.053 -0.3866  0.3668 -0.4885
18786TIP3    H177849   1.642   4.605   5.114 -2.2612  0.6652  0.6200
18786TIP3    H277850   1.615   4.631   4.968 -0.4047 -0.6285  0.0069
18787TIP3   OH277851   5.017   1.594   6.573 -0.2413  0.2190  0.1038
18787TIP3    H177852   4.976   1.612   6.488  0.3132 -0.5500 -0.3441
18787TIP3    H277853   5.079   1.666   6.585 -0.6697  0.5935  0.0895
18788TIP3   OH277854   3.485   5.027   0.857 -0.1927 -0.2822 -0.2377
18788TIP3    H177855   3.570   4.987   0.837  0.0800  0.4208 -0.5247
18788TIP3    H277856   3.458   4.986   0.939  1.8938  1.6756  1.5258
18789TIP3   OH277857   3.697   0.885   5.185  0.5151 -0.4420 -0.0620
18789TIP3    H177858   3.776   0.846   5.147 -0.9793 -2.1222 -1.6314
18789TIP3    H277859   3.702   0.862   5.278  1.2076 -1.7104 -0.3875
18790TIP3   OH277860   3.943   6.830  16.774 -0.2964  0.1002 -0.5442
18790TIP3    H177861   3.865   6.807  16.724 -0.0886 -0.6686 -0.5402
18790TIP3    H277862   4.013   6.780  16.732  0.4815  1.9157 -1.4774
18791TIP3   OH277863   4.308   5.601   3.394  0.1957  0.3377 -0.1780
18791TIP3    H177864   4.348   5.561   3.471  0.7144 -0.7810 -0.9826
18791TIP3    H277865   4.297   5.693   3.416 -0.7340 -0.1740  1.6448
18792TIP3   OH277866   3.722   0.749  11.635  0.0878  0.3638 -0.1618
18792TIP3    H177867   3.687   0.675  11.586  0.5113 -1.5448  2.2348
18792TIP3    H277868   3.804   0.770  11.591  1.0148 -2.0221  0.2762
18793TIP3   OH277869   1.564   6.477  16.578  0.1310 -0.7102  0.2119
18793TIP3    H177870   1.609   6.558  16.601 -1.8260  0.1882  1.0643
18793TIP3    H277871   1.602   6.452  16.493  0.9301  0.9673  0.0301
18794TIP3   OH277872   2.152   1.409   5.530 -0.5458 -0.1158  0.3960
18794TIP3    H177873   2.187   1.330   5.572 -1.4953 -0.1807  1.1141
18794TIP3    H277874   2.151   1.389   5.437  0.9399 -0.2473  0.3815
18795TIP3   OH277875   2.374   6.207   3.032 -0.4213  0.5638 -0.2079
18795TIP3    H177876   2.280   6.209   3.018 -0.4218  0.0131 -0.2862
18795TIP3    H277877   2.395   6.115   3.046 -0.5673  1.0604  4.7517
18796TIP3   OH277878   0.112   3.814   2.253  0.3917 -0.1790  0.1364
18796TIP3    H177879   0.108   3.723   2.222  0.3036 -0.3555  0.6659
18796TIP3    H277880   0.201   3.824   2.288 -0.7289 -1.2673  3.6968
18797TIP3   OH277881   1.599   6.696  14.372 -0.1948 -0.3183  0.5553
18797TIP3    H177882   1.662   6.723  14.438  0.6879  0.0655 -0.4048
18797TIP3    H277883   1.588   6.602  14.387  2.1172 -0.8393 -0.3965
18798TIP3   OH277884   0.122   2.823  16.902  0.0740  0.3520 -0.1089
18798TIP3    H177885   0.084   2.911  16.896 -0.7344 -0.0872 -2.1226
18798TIP3    H277886   0.173   2.813  16.822  0.5757 -0.8310  0.3392
18799TIP3   OH277887   6.725   2.414   3.173  0.1638  0.3694  0.3363
18799TIP3    H177888   6.797   2.370   3.218  0.7609 -1.3332 -2.0949
18799TIP3    H277889   6.647   2.388   3.222  0.9399  0.1100  1.4718
18800TIP3   OH277890   2.470   1.210   4.289  0.3771 -0.2513 -0.0047
18800TIP3    H177891   2.407   1.138   4.290 -0.0362  0.0955 -0.3453
18800TIP3    H277892   2.493   1.220   4.196 -0.9120  1.1873 -0.2105
18801TIP3   OH277893   4.128   1.724   0.916  0.4352  0.0840  0.4560
18801TIP3    H177894   4.108   1.639   0.955 -0.4791  0.9400  1.9533
18801TIP3    H277895   4.216   1.744   0.948 -0.0739  0.5084  1.6522
18802TIP3   OH277896   5.395   5.857   0.660  1.0447 -0.4375  0.0326
18802TIP3    H177897   5.387   5.924   0.592 -2.0070  0.7363  1.3766
18802TIP3    H277898   5.434   5.902   0.735  3.7756 -1.5602 -0.5989
18803TIP3   OH277899   0.690   1.805  16.875 -0.2318 -0.0137 -0.2732
18803TIP3    H177900   0.707   1.758  16.956 -0.0400  1.9188  0.8860
18803TIP3    H277901   0.613   1.859  16.894  0.0682  0.7901 -1.2090
18804TIP3   OH277902   1.839   5.653  16.269 -0.9285  0.4796 -0.0579
18804TIP3    H177903   1.792   5.705  16.204  0.2776  0.5223 -0.9270
18804TIP3    H277904   1.771   5.602  16.313 -1.8918  1.2897 -0.5749
18805TIP3   OH277905   2.073   5.253  12.291 -0.0535  0.1338 -0.3121
18805TIP3    H177906   2.050   5.160  12.303 -0.6805  0.3466  0.1793
18805TIP3    H277907   2.021   5.280  12.216  0.5284 -0.0434 -0.7862
18806TIP3   OH277908   3.259   4.563  12.066 -0.0568  0.1679  0.7024
18806TIP3    H177909   3.178   4.613  12.059  0.2742  1.1104  2.6795
18806TIP3    H277910   3.326   4.621  12.029 -0.0806 -0.0179  0.3670
18807TIP3   OH277911   2.135   6.682   4.090 -0.1277 -0.2580 -0.2608
18807TIP3    H177912   2.172   6.602   4.053  2.7341  0.7238  0.2216
18807TIP3    H277913   2.155   6.750   4.026  0.3681  0.5848  0.7593
18808TIP3   OH277914   1.567   0.910  14.029  0.1659 -0.1611  0.2510
18808TIP3    H177915   1.655   0.895  14.063 -0.0347  0.2564  0.9840
18808TIP3    H277916   1.543   0.829  13.986  0.3415 -0.7936  1.3174
18809TIP3   OH277917   1.148   5.789  13.285  0.2199 -0.2615 -0.5662
18809TIP3    H177918   1.172   5.702  13.316  2.0577  0.8330  1.3011
18809TIP3    H277919   1.088   5.823  13.352 -2.0093 -0.7002 -2.2125
18810TIP3   OH277920   3.761   5.869  13.670 -0.1610 -0.2290  0.1004
18810TIP3    H177921   3.848   5.906  13.685 -0.5660  0.0068  2.1230
18810TIP3    H277922   3.768   5.827  13.584  2.7694 -2.5449  1.2750
18811TIP3   OH277923   1.050   4.028  12.724 -0.3243  0.4512 -0.5599
18811TIP3    H177924   1.064   3.994  12.636  1.5944 -0.7431  0.1452
18811TIP3    H277925   1.099   4.110  12.728  2.8026 -1.3101  0.4180
18812TIP3   OH277926   0.457   1.613  12.024 -0.2354 -0.1873 -0.0504
18812TIP3    H177927   0.400   1.636  12.098 -1.8185 -0.5409 -1.1037
18812TIP3    H277928   0.524   1.556  12.061 -1.5765 -1.1748  0.9527
18813TIP3   OH277929   5.730   3.136   2.463  0.0694 -0.4054 -0.3372
18813TIP3    H177930   5.675   3.058   2.460  0.7099 -0.8351 -1.8690
18813TIP3    H277931   5.799   3.114   2.527 -0.7109 -0.4035  0.5280
18814TIP3   OH277932   5.290   6.106   2.175 -0.5187  0.2954  0.1773
18814TIP3    H177933   5.334   6.127   2.257  1.4361 -2.0127 -0.1695
18814TIP3    H277934   5.361   6.088   2.114 -1.9085 -1.4385 -1.0427
18815TIP3   OH277935   6.691   5.794   5.635 -0.5887  0.6055 -0.1993
18815TIP3    H177936   6.757   5.840   5.687 -0.3349  0.1989 -0.1635
18815TIP3    H277937   6.699   5.833   5.548  2.7100 -2.3191 -1.4419
18816TIP3   OH277938   4.308   6.058  13.050 -0.2291  0.1187  0.7377
18816TIP3    H177939   4.318   6.133  12.992  1.1382 -0.1646  0.5510
18816TIP3    H277940   4.217   6.032  13.041  0.0255 -0.2356 -1.7180
18817TIP3   OH277941   6.127   0.710  16.527  0.3181  0.5993 -0.2284
18817TIP3    H177942   6.184   0.738  16.599 -0.2781  1.8417 -0.2204
18817TIP3    H277943   6.071   0.785  16.511 -0.7807 -0.3185 -0.7772
18818TIP3   OH277944   0.711   4.303  14.533 -0.7553 -0.2621 -0.1249
18818TIP3    H177945   0.619   4.277  14.538 -0.8870  0.4419  1.8085
18818TIP3    H277946   0.712   4.378  14.473 -1.5584  0.2005  0.4392
18819TIP3   OH277947   4.314   3.477   4.212 -0.1035 -0.3181 -0.3388
18819TIP3    H177948   4.259   3.554   4.199  1.0873  0.5247 -0.5066
18819TIP3    H277949   4.271   3.408   4.161 -2.4870 -0.4609  1.6408
18820TIP3   OH277950   0.434   3.597   1.607  0.4075  0.1409 -0.2146
18820TIP3    H177951   0.425   3.624   1.516  1.9685 -1.0834 -0.7836
18820TIP3    H277952   0.344   3.579   1.636 -0.0666  0.0320 -1.6818
18821TIP3   OH277953   2.531   2.537  12.224 -0.4727  0.0685  0.2847
18821TIP3    H177954   2.592   2.464  12.237 -0.3856  0.2981  1.2938
18821TIP3    H277955   2.445   2.500  12.242 -0.3159  0.4792  2.0455
18822TIP3   OH277956   3.067   3.008   4.597 -0.0974  0.1868  0.3116
18822TIP3    H177957   3.138   3.008   4.533  0.2714  1.7144  0.6876
18822TIP3    H277958   3.076   3.091   4.643 -1.4689 -0.0811  1.1128
18823TIP3   OH277959   1.125   3.748   6.099 -0.4519  0.3003  0.1549
18823TIP3    H177960   1.178   3.688   6.151 -0.0323 -0.9003 -1.5464
18823TIP3    H277961   1.163   3.743   6.011 -0.1356  3.4218  0.0100
18824TIP3   OH277962   0.256   6.145   2.320 -0.0746 -0.1471  0.3118
18824TIP3    H177963   0.305   6.222   2.293 -2.3585  1.5328  0.6790
18824TIP3    H277964   0.321   6.075   2.324  2.4207  2.0601  1.4423
18825TIP3   OH277965   4.858   0.302   4.138  0.1764 -0.2802  0.2693
18825TIP3    H177966   4.890   0.253   4.215  0.6560  0.1268  0.3335
18825TIP3    H277967   4.924   0.370   4.124 -0.8845  0.8649  0.6667
18826TIP3   OH277968   2.515   3.937  11.915  0.4090 -0.0446 -0.3803
18826TIP3    H177969   2.491   3.866  11.974 -1.5086  1.2955  0.5947
18826TIP3    H277970   2.473   3.915  11.832 -2.2168  0.9514  0.5602
18827TIP3   OH277971   2.237   1.944  15.467  0.4042  0.0075  0.0817
18827TIP3    H177972   2.295   1.872  15.445 -0.1979 -0.1914 -0.9431
18827TIP3    H277973   2.151   1.916  15.435  0.1171  1.0730 -0.1205
18828TIP3   OH277974   6.039   5.264   3.386 -0.2208 -0.2537 -0.5198
18828TIP3    H177975   6.079   5.254   3.300  2.5399 -3.9801  0.9383
18828TIP3    H277976   6.012   5.175   3.411  0.1731  0.4488  2.9221
18829TIP3   OH277977   0.902   4.337   4.113 -0.4922 -0.4741  0.7887
18829TIP3    H177978   0.950   4.338   4.196 -0.7870  0.3029  0.9593
18829TIP3    H277979   0.862   4.250   4.109  1.4487 -1.4016  0.3242
18830TIP3   OH277980   6.114   0.668  13.627  0.5339  0.1373 -0.0848
18830TIP3    H177981   6.057   0.729  13.673  3.8136  0.5497  4.1010
18830TIP3    H277982   6.077   0.581  13.645 -0.8443  0.5107 -0.9371
18831TIP3   OH277983   6.809   2.799   1.995 -0.4868 -0.5866  0.0714
18831TIP3    H177984   6.829   2.776   1.904  0.4730 -0.2430  0.1937
18831TIP3    H277985   6.761   2.882   1.988 -0.6353 -0.6870 -0.1310
18832TIP3   OH277986   2.161   0.870  14.232 -0.3029 -0.2669 -0.5421
18832TIP3    H177987   2.096   0.813  14.273 -0.6371  0.4861 -0.0131
18832TIP3    H277988   2.220   0.810  14.186  0.0029 -1.1395  0.9198
18833TIP3   OH277989   3.811   1.118   4.759  0.3707 -0.1519  0.2704
18833TIP3    H177990   3.880   1.154   4.814 -0.7618 -0.7702  2.2000
18833TIP3    H277991   3.745   1.187   4.753  0.9303  0.2971 -1.2461
18834TIP3   OH277992   1.318   1.111   5.921 -0.1038 -0.1061  0.3731
18834TIP3    H177993   1.315   1.053   5.997  1.0369 -1.5292 -0.5932
18834TIP3    H277994   1.296   1.197   5.955 -1.6095 -1.0391  1.9313
18835TIP3   OH277995   5.301   4.230  12.193  0.0917 -0.3279 -0.2686
18835TIP3    H177996   5.335   4.195  12.111 -0.0447  0.2101 -0.5550
18835TIP3    H277997   5.253   4.309  12.168  2.1683  1.3070  0.5760
18836TIP3   OH277998   4.436   2.987  13.226 -0.0324 -0.1333 -0.0282
18836TIP3    H177999   4.404   2.928  13.158  1.1586 -0.7676 -0.0767
18836TIP3    H278000   4.527   3.004  13.202  0.3519 -0.1966  1.2789
18837TIP3   OH278001   3.801   6.307   1.772 -0.7199 -0.0381 -0.3542
18837TIP3    H178002   3.857   6.366   1.823 -0.0501 -2.0333  1.3816
18837TIP3    H278003   3.861   6.244   1.733 -1.5683 -0.9161 -0.2856
18838TIP3   OH278004   3.632   6.258  12.777 -0.0804  0.5479  0.4158
18838TIP3    H178005   3.563   6.325  12.779 -0.1249  0.5284 -0.2649
18838TIP3    H278006   3.586   6.176  12.796 -0.3628  0.4487 -0.6291
18839TIP3   OH278007   4.082   3.710   0.009 -1.0755 -0.3761 -0.4950
18839TIP3    H178008   4.139   3.654  -0.042  0.5037 -0.0868  0.8686
18839TIP3    H278009   3.999   3.662   0.015  0.0435 -2.3127  0.1626
18840TIP3   OH278010   0.881   2.962  14.318 -0.1142 -0.2314 -0.1439
18840TIP3    H178011   0.955   2.963  14.379  0.1636  0.2003 -0.4901
18840TIP3    H278012   0.920   2.963  14.231 -0.5215 -0.3822 -0.3364
18841TIP3   OH278013   4.726   2.998   3.678  0.5038  0.1819  0.5150
18841TIP3    H178014   4.713   2.903   3.686 -0.7803  0.3082  0.1057
18841TIP3    H278015   4.812   3.006   3.637  0.4515 -0.8277  0.1598
18842TIP3   OH278016   3.844   5.674  12.704  0.3716  0.9878 -0.1776
18842TIP3    H178017   3.800   5.732  12.642  0.9839  1.4439 -0.1937
18842TIP3    H278018   3.879   5.603  12.651 -1.7597 -0.3072  0.0160
18843TIP3   OH278019   0.577   6.150   5.256 -0.3629 -0.4739  0.3343
18843TIP3    H178020   0.641   6.213   5.223 -0.5529 -1.6585 -2.6522
18843TIP3    H278021   0.499   6.202   5.274 -0.7541  0.2449 -2.7381
18844TIP3   OH278022   6.517   5.659   3.372 -0.5283  0.3017 -0.2631
18844TIP3    H178023   6.511   5.741   3.324 -1.2418  0.2651 -0.2497
18844TIP3    H278024   6.470   5.676   3.454 -1.0673 -0.2419 -0.4439
18845TIP3   OH278025   5.692   1.185  12.599 -0.3125  0.1857 -0.1519
18845TIP3    H178026   5.785   1.166  12.595  0.0909  1.2141  2.4345
18845TIP3    H278027   5.679   1.258  12.538  0.5647  0.0088 -0.5522
18846TIP3   OH278028   6.830   4.489  12.373 -0.0272 -0.0195  0.3687
18846TIP3    H178029   6.783   4.552  12.319 -0.7180  1.0538  2.1290
18846TIP3    H278030   6.764   4.425  12.398 -0.2432  0.6349  1.5771
18847TIP3   OH278031   1.741   2.152   1.758 -0.2339  0.1970  0.3272
18847TIP3    H178032   1.809   2.134   1.694 -1.0085 -0.1174 -0.4316
18847TIP3    H278033   1.734   2.071   1.809  0.3818  0.4461  0.8047
18848TIP3   OH278034   1.005   6.191   1.301 -0.0308  0.2910 -0.6509
18848TIP3    H178035   1.000   6.285   1.321 -0.0596 -0.0075  0.7857
18848TIP3    H278036   1.093   6.166   1.329 -0.2185 -0.2249 -0.5221
18849TIP3   OH278037   1.200   4.447   0.875  0.2698  0.4298 -0.2681
18849TIP3    H178038   1.279   4.453   0.929  1.2681  1.1897 -1.7333
18849TIP3    H278039   1.141   4.391   0.925  1.3931  0.5644  1.2822
18850TIP3   OH278040   1.542   6.605   0.949  0.5820  0.2886 -0.2197
18850TIP3    H178041   1.457   6.650   0.955  0.1582 -0.6045  0.6459
18850TIP3    H278042   1.599   6.669   0.906 -0.3516  1.1558 -0.2166
18851TIP3   OH278043   0.314   3.387  13.391  0.5611 -0.0930 -0.0157
18851TIP3    H178044   0.406   3.413  13.380  1.3538 -2.3513  0.6137
18851TIP3    H278045   0.307   3.364  13.484 -1.1657  1.7523  0.3730
18852TIP3   OH278046   0.931   2.742   0.287  0.3748  0.6265  0.7686
18852TIP3    H178047   1.001   2.719   0.349 -0.5779  0.1701  1.7108
18852TIP3    H278048   0.885   2.659   0.272 -1.3272  1.3165  1.9181
18853TIP3   OH278049   0.303   6.836  13.073  0.1397 -0.2069  0.2021
18853TIP3    H178050   0.385   6.876  13.100 -0.3313  1.0515 -0.1823
18853TIP3    H278051   0.316   6.742  13.088  0.2889  0.2514  3.7051
18854TIP3   OH278052   2.579   1.725   4.756 -0.1193  0.1874  0.2293
18854TIP3    H178053   2.618   1.701   4.840  0.4943 -1.9311 -0.5887
18854TIP3    H278054   2.638   1.791   4.720  1.0203 -0.6730  0.4213
18855TIP3   OH278055   5.319   1.628   2.572  0.2625  0.0650  0.1584
18855TIP3    H178056   5.302   1.609   2.479  0.0456 -0.5431  0.3194
18855TIP3    H278057   5.391   1.569   2.595  0.9852  0.9139  0.1224
18856TIP3   OH278058   3.349   0.189  16.405 -0.0194  0.2942  0.0890
18856TIP3    H178059   3.294   0.266  16.422  0.1112  0.8440 -1.7748
18856TIP3    H278060   3.423   0.199  16.465  0.0286  1.6870 -0.1650
18857TIP3   OH278061   5.510   5.767  12.576  0.5107  0.3258 -0.0198
18857TIP3    H178062   5.503   5.862  12.584 -0.0305  0.2302  0.8023
18857TIP3    H278063   5.545   5.753  12.488  1.2325  1.3044  0.0868
18858TIP3   OH278064   6.334   2.826  10.937 -0.3118  0.1025 -0.0519
18858TIP3    H178065   6.349   2.732  10.937  0.1987  0.1429  2.0098
18858TIP3    H278066   6.310   2.847  11.027 -0.5847  1.9267 -0.5057
18859TIP3   OH278067   2.230   5.309   2.516 -0.0652 -0.1575  0.2009
18859TIP3    H178068   2.141   5.346   2.513  0.0036 -0.0300 -0.4938
18859TIP3    H278069   2.258   5.308   2.424  1.3374  1.4655  0.5664
18860TIP3   OH278070   0.699   6.308  15.653 -0.1484  0.0811 -0.2309
18860TIP3    H178071   0.727   6.217  15.643  0.4776  0.2582 -0.1522
18860TIP3    H278072   0.615   6.303  15.698  0.0041 -0.4485 -0.0012
18861TIP3   OH278073   4.736   4.143  13.713 -0.1011  0.4386 -0.2064
18861TIP3    H178074   4.642   4.154  13.701  0.1208  1.6735 -1.0505
18861TIP3    H278075   4.775   4.206  13.652  1.2845 -0.6600 -0.4985
18862TIP3   OH278076   3.693   6.800  10.712 -0.1188 -0.4816 -0.0186
18862TIP3    H178077   3.720   6.876  10.764 -3.3690 -1.7020  3.8729
18862TIP3    H278078   3.771   6.745  10.708  1.7695  2.0284 -1.3521
18863TIP3   OH278079   6.429   4.499   0.455 -0.4306  0.7396 -0.0623
18863TIP3    H178080   6.468   4.420   0.417  0.0822  0.8071  0.3142
18863TIP3    H278081   6.339   4.474   0.476 -0.7553  0.7253 -1.3993
18864TIP3   OH278082   5.404   2.549   3.108  0.5412  0.3347  0.1192
18864TIP3    H178083   5.346   2.524   3.036  1.1597 -1.4920  0.2073
18864TIP3    H278084   5.439   2.634   3.082 -0.6774  0.5824 -0.8287
18865TIP3   OH278085   5.912   1.782   2.013  0.3918  0.0388 -0.5093
18865TIP3    H178086   5.975   1.787   1.942  1.0794  1.2331  0.1661
18865TIP3    H278087   5.964   1.764   2.091 -0.2256 -0.1125 -0.1226
18866TIP3   OH278088   6.286   0.483   6.378  0.2761 -0.0878  0.5091
18866TIP3    H178089   6.193   0.493   6.399  0.2796 -0.0598  0.5133
18866TIP3    H278090   6.311   0.399   6.415  0.4574  0.2760  1.2408
18867TIP3   OH278091   5.652   6.014   1.058 -0.0256  0.4188  0.0066
18867TIP3    H178092   5.733   6.050   1.021  0.6077  1.0255  1.8679
18867TIP3    H278093   5.680   5.931   1.098 -0.3126  0.6064  0.6077
18868TIP3   OH278094   6.638   6.018   2.128  0.9162 -0.6616  0.1707
18868TIP3    H178095   6.582   5.998   2.203  0.3118 -0.0490 -0.1032
18868TIP3    H278096   6.647   5.935   2.081 -0.3194 -0.6367 -0.1402
18869TIP3   OH278097   3.670   1.269  15.351 -0.1199  0.2960  0.4045
18869TIP3    H178098   3.654   1.213  15.427 -2.7633 -1.1070 -1.0424
18869TIP3    H278099   3.738   1.222  15.301  0.7571  0.6166  1.2688
18870TIP3   OH278100   6.054   6.783  11.467  0.3336  0.1660 -0.3175
18870TIP3    H178101   6.096   6.855  11.515  0.8898 -0.8617  0.7905
18870TIP3    H278102   5.992   6.745  11.529 -2.0444  1.4007 -1.7995
18871TIP3   OH278103   4.906   0.994  17.084 -0.0946 -0.0501 -1.2903
18871TIP3    H178104   4.850   0.976  17.009 -1.2867 -0.1382 -0.4117
18871TIP3    H278105   4.917   0.909  17.127 -0.1123  0.1315 -0.9173
18872TIP3   OH278106   0.162   0.384   5.319  0.1699 -0.5774  0.0613
18872TIP3    H178107   0.210   0.308   5.284  2.4246  0.3158  1.0260
18872TIP3    H278108   0.113   0.417   5.244 -0.8808 -2.9395 -0.3997
18873TIP3   OH278109   3.553   5.160  14.194  0.5951 -0.0833 -0.4205
18873TIP3    H178110   3.501   5.151  14.273  0.5121 -0.1114 -0.4774
18873TIP3    H278111   3.621   5.224  14.216  0.0749  0.5372 -0.5787
18874TIP3   OH278112   4.013   4.156   0.775  0.0539  0.3170  0.2703
18874TIP3    H178113   3.943   4.159   0.840 -0.3336  0.5631 -0.1532
18874TIP3    H278114   4.063   4.077   0.797 -1.1356 -0.6080 -0.2124
18875TIP3   OH278115   1.928   0.316   5.297  0.4014 -0.5792 -0.5534
18875TIP3    H178116   1.867   0.309   5.223 -2.1566 -2.7600  1.5159
18875TIP3    H278117   1.956   0.226   5.313  0.7949 -0.1847  1.1694
18876TIP3   OH278118   0.150   0.227  13.753 -0.6038  0.1637 -0.3339
18876TIP3    H178119   0.095   0.151  13.776 -0.7902 -0.4649 -2.6243
18876TIP3    H278120   0.093   0.282  13.698  0.3603  0.6078 -0.9090
18877TIP3   OH278121   2.204   5.359   4.824  0.5352 -0.1002 -0.3148
18877TIP3    H178122   2.197   5.441   4.873  0.6741 -0.1438 -0.2227
18877TIP3    H278123   2.262   5.304   4.877  1.0955  0.0348 -0.7718
18878TIP3   OH278124   1.143   3.587   1.665 -0.0029 -0.3949 -0.6695
18878TIP3    H178125   1.216   3.607   1.723 -1.8056 -0.5031  1.7674
18878TIP3    H278126   1.082   3.537   1.719 -1.6011 -0.8901 -2.8042
18879TIP3   OH278127   2.361   3.080   5.008 -0.0904 -0.2103 -0.4730
18879TIP3    H178128   2.387   3.078   5.100  0.3397 -0.3872 -0.5965
18879TIP3    H278129   2.395   3.163   4.975 -0.5967  0.0427 -0.3767
18880TIP3   OH278130   6.229   4.785  12.367  0.1680  0.1935 -0.0451
18880TIP3    H178131   6.254   4.817  12.454 -0.7581  0.7156  0.0381
18880TIP3    H278132   6.189   4.861  12.325 -0.3949 -0.3651 -0.5195
18881TIP3   OH278133   1.872   4.113  14.056 -0.2057 -0.1530 -0.3946
18881TIP3    H178134   1.861   4.034  14.003  0.9668  0.3215 -1.4027
18881TIP3    H278135   1.967   4.123  14.065 -0.2866 -1.1462  3.2937
18882TIP3   OH278136   0.423   6.755   2.210  0.0193  0.4573 -0.2965
18882TIP3    H178137   0.490   6.699   2.171  0.6199  1.0094 -0.0735
18882TIP3    H278138   0.417   6.725   2.301 -0.2521  0.2081 -0.3974
18883TIP3   OH278139   3.544   6.474  15.114  0.0265 -0.0848 -0.0091
18883TIP3    H178140   3.509   6.390  15.084 -1.1651 -0.0187  1.0811
18883TIP3    H278141   3.471   6.536  15.103  0.4654  0.5170  0.4010
18884TIP3   OH278142   5.407   0.448   4.146  0.1344  0.2005 -0.2043
18884TIP3    H178143   5.361   0.391   4.084  1.8556  0.0822 -1.4536
18884TIP3    H278144   5.359   0.437   4.229 -1.7615 -0.2353 -1.2912
18885TIP3   OH278145   2.389   5.971   1.695  0.2655  0.6419 -0.5206
18885TIP3    H178146   2.325   6.009   1.755  1.3707  0.7510  0.6304
18885TIP3    H278147   2.349   5.889   1.666 -0.8480  1.2209 -0.6804
18886TIP3   OH278148   2.432   1.975  15.230  0.5229  0.0751  0.2570
18886TIP3    H178149   2.471   2.048  15.183 -1.5091  0.2455 -1.3237
18886TIP3    H278150   2.482   1.968  15.311  1.3070  2.6784  0.0634
18887TIP3   OH278151   6.281   6.212   3.336 -0.0971 -0.1468 -0.5249
18887TIP3    H178152   6.283   6.249   3.248 -0.3168 -0.5670 -0.7111
18887TIP3    H278153   6.359   6.156   3.340  0.8694  1.2118  0.1535
18888TIP3   OH278154   6.641   1.539   2.010  0.3786  0.2696 -0.8515
18888TIP3    H178155   6.643   1.457   2.060 -0.7751  1.4340  1.2471
18888TIP3    H278156   6.549   1.562   2.004  0.7488  2.0274 -0.3111
18889TIP3   OH278157   2.798   4.192   4.892 -0.5622  0.1448  0.0290
18889TIP3    H178158   2.864   4.226   4.952 -0.4184  1.3053 -0.7381
18889TIP3    H278159   2.831   4.216   4.805 -0.5527 -1.8451 -0.5620
18890TIP3   OH278160   5.810   1.117   4.191  0.4631 -0.7334 -0.0539
18890TIP3    H178161   5.747   1.187   4.205 -2.8186 -3.3578 -0.6086
18890TIP3    H278162   5.828   1.083   4.279  0.8332 -0.2336  0.0675
18891TIP3   OH278163   0.127   3.869   4.386 -0.3255  0.2979 -0.0721
18891TIP3    H178164   0.146   3.876   4.292  0.3483 -0.0165  0.0332
18891TIP3    H278165   0.056   3.931   4.401 -0.0154  0.8103 -0.6765
18892TIP3   OH278166   5.876   4.277   0.025 -0.8871  0.1318 -0.1141
18892TIP3    H178167   5.829   4.257   0.105  0.5645  2.4368  1.4266
18892TIP3    H278168   5.833   4.355  -0.010  1.0035  1.6620  0.7665
18893TIP3   OH278169   5.087   4.618  11.294 -0.0362  0.4584  0.2866
18893TIP3    H178170   5.098   4.575  11.209 -0.1898 -0.8051  0.8807
18893TIP3    H278171   5.161   4.588  11.346  1.0900  2.6843  0.0619
18894TIP3   OH278172   2.782   4.838   1.565  0.3228 -0.2447 -0.4751
18894TIP3    H178173   2.731   4.774   1.616  1.3033  1.2581  2.6744
18894TIP3    H278174   2.873   4.809   1.575  0.4930 -0.4165 -2.2561
18895TIP3   OH278175   2.357   6.366   2.676 -0.3282 -0.0199 -0.0234
18895TIP3    H178176   2.313   6.284   2.694  0.3729 -0.9743 -2.3224
18895TIP3    H278177   2.411   6.382   2.754  0.7466 -2.5934 -0.1541
18896TIP3   OH278178   0.619   1.581   0.787  0.0133  0.1100 -0.1101
18896TIP3    H178179   0.592   1.654   0.843 -1.1744  0.6343 -1.3032
18896TIP3    H278180   0.563   1.508   0.814  0.7971 -0.2162  0.6849
18897TIP3   OH278181   6.176   1.085   5.244 -0.4552  0.1675 -0.0261
18897TIP3    H178182   6.181   1.044   5.157  2.6454 -0.3434  0.2908
18897TIP3    H278183   6.096   1.138   5.240 -0.1176  0.6682 -3.4048
18898TIP3   OH278184   6.243   6.175  14.080 -0.1479  0.1234  0.1939
18898TIP3    H178185   6.172   6.238  14.073 -0.1805  0.1661  0.8375
18898TIP3    H278186   6.323   6.226  14.066 -0.2750 -0.0633 -1.2990
18899TIP3   OH278187   4.760   3.011   4.812 -0.3434  0.4267 -0.7443
18899TIP3    H178188   4.690   3.050   4.864 -0.2827 -0.3231 -0.0700
18899TIP3    H278189   4.814   3.085   4.784 -0.5740  0.8801 -0.0199
18900TIP3   OH278190   2.338   5.277  12.379 -0.1601 -0.0590  0.3826
18900TIP3    H178191   2.262   5.275  12.321 -1.6184  0.4236  2.1811
18900TIP3    H278192   2.391   5.350  12.346 -1.2182  0.5509 -0.0310
18901TIP3   OH278193   4.242   2.062   4.913  0.0706 -0.0487  0.2334
18901TIP3    H178194   4.306   2.001   4.950  1.3365  0.6790 -0.7130
18901TIP3    H278195   4.287   2.103   4.839 -1.4524  0.5689 -0.3917
18902TIP3   OH278196   1.720   1.362  11.840 -0.1592 -0.3794 -0.4144
18902TIP3    H178197   1.815   1.363  11.855 -0.1856 -3.0202  0.4268
18902TIP3    H278198   1.711   1.342  11.747  0.0449  1.1876 -0.8093
18903TIP3   OH278199   6.044   1.693   5.955 -0.0547  0.2230 -0.2604
18903TIP3    H178200   6.115   1.667   5.896 -0.5535 -1.2882 -0.2527
18903TIP3    H278201   5.969   1.641   5.926 -0.4457 -0.1951  1.3915
18904TIP3   OH278202   3.918   4.519   1.961  0.2562 -0.2535 -0.1405
18904TIP3    H178203   3.994   4.491   1.911 -1.6127  0.0632 -3.4274
18904TIP3    H278204   3.916   4.614   1.949 -0.3350 -0.1863  0.4378
18905TIP3   OH278205   2.151   1.356   4.101  0.1923 -0.5074  0.2779
18905TIP3    H178206   2.236   1.317   4.082  0.7647  1.2403 -1.1054
18905TIP3    H278207   2.094   1.324   4.031 -0.4508 -2.0382  1.4614
18906TIP3   OH278208   0.982   6.362  10.782 -0.1333  0.0032  0.4423
18906TIP3    H178209   1.049   6.382  10.848 -0.5757 -1.3510  1.3210
18906TIP3    H278210   0.945   6.448  10.759  2.2979  0.8758 -0.5380
18907TIP3   OH278211   5.624   4.735  15.405 -0.0390  0.3930 -0.3284
18907TIP3    H178212   5.621   4.705  15.496 -0.2820 -0.0443 -0.4773
18907TIP3    H278213   5.712   4.772  15.395  0.0958  0.1658 -0.0047
18908TIP3   OH278214   6.753   4.235   5.057  0.3577  0.8353 -0.1165
18908TIP3    H178215   6.828   4.238   5.116  1.9509  0.6976 -2.0380
18908TIP3    H278216   6.775   4.297   4.987 -2.0513  1.9861  0.0483
18909TIP3   OH278217   4.657   0.664  16.215 -0.5533 -0.2643 -0.1825
18909TIP3    H178218   4.567   0.646  16.188  0.1297 -1.1905 -2.0700
18909TIP3    H278219   4.667   0.758  16.202 -1.6415  0.1183  1.4587
18910TIP3   OH278220   4.150   5.733  11.604 -0.5857  0.3697  0.0976
18910TIP3    H178221   4.089   5.806  11.600 -0.6358  0.3474 -3.8049
18910TIP3    H278222   4.095   5.655  11.598 -0.3641  0.1105  1.1962
18911TIP3   OH278223   3.548   1.512  14.196 -0.1285  0.4192  0.1813
18911TIP3    H178224   3.452   1.521  14.197 -0.2034 -0.2636  1.1480
18911TIP3    H278225   3.564   1.441  14.134 -0.3493 -0.1881  0.7938
18912TIP3   OH278226   2.773   3.465   3.442 -0.4071 -0.2461 -0.5982
18912TIP3    H178227   2.727   3.416   3.374 -0.3274  0.1175 -0.9154
18912TIP3    H278228   2.863   3.434   3.437 -0.4468 -0.3758 -0.5133
18913TIP3   OH278229   1.157   3.374  16.204  0.6141  0.4013  0.4692
18913TIP3    H178230   1.069   3.338  16.213  1.1161 -1.9654 -2.5529
18913TIP3    H278231   1.154   3.425  16.122  2.3492 -0.9300 -0.4882
18914TIP3   OH278232   5.610   3.343  16.770  0.2325  0.1016  0.2791
18914TIP3    H178233   5.592   3.403  16.697  0.4523  1.2416  1.1328
18914TIP3    H278234   5.543   3.276  16.763 -0.5753  0.9347 -0.1849
18915TIP3   OH278235   6.649   5.550   1.986  0.2904  0.2402  0.0056
18915TIP3    H178236   6.576   5.584   2.038 -0.0750 -0.2163 -0.2024
18915TIP3    H278237   6.722   5.609   2.007 -0.4790  1.5357 -0.8063
18916TIP3   OH278238   5.492   1.628  14.239 -0.2665  0.5503  0.1028
18916TIP3    H178239   5.468   1.593  14.325  0.2714 -1.4474 -0.4914
18916TIP3    H278240   5.568   1.682  14.255 -2.4402  3.5055  1.3986
18917TIP3   OH278241   5.953   4.068  13.984 -0.5771 -0.3047 -0.5196
18917TIP3    H178242   5.944   4.035  14.073  0.2570  2.0335  0.5319
18917TIP3    H278243   5.864   4.066  13.948 -1.3461  0.7843  1.2145
18918TIP3   OH278244   5.446   0.231  16.838 -0.0166 -0.1641 -0.4154
18918TIP3    H178245   5.453   0.167  16.909  2.1573  1.5322  0.9834
18918TIP3    H278246   5.376   0.290  16.865  0.1949 -0.0468 -0.1285
18919TIP3   OH278247   5.155   0.443  13.401  0.4631 -0.6012 -0.8017
18919TIP3    H178248   5.142   0.422  13.308 -0.7615  0.4388 -0.9004
18919TIP3    H278249   5.162   0.539  13.403  1.1455 -0.6568  0.1142
18920TIP3   OH278250   5.598   4.689   4.391 -0.7315  0.5483  0.3242
18920TIP3    H178251   5.637   4.646   4.468 -3.7275 -0.4688  1.4230
18920TIP3    H278252   5.570   4.775   4.424 -2.4776 -0.0828  0.6062
18921TIP3   OH278253   6.390   1.547   3.908  0.0614 -0.5585  0.4403
18921TIP3    H178254   6.459   1.539   3.974  0.2751  1.1379  0.4682
18921TIP3    H278255   6.414   1.624   3.857 -1.8010  0.0728  0.4330
18922TIP3   OH278256   0.510   2.744  13.509  0.5904  0.4735  0.2210
18922TIP3    H178257   0.605   2.747  13.496  0.6102 -0.2234  0.1433
18922TIP3    H278258   0.473   2.761  13.423  0.6826 -0.9712 -0.1426
18923TIP3   OH278259   4.399   3.256   5.201 -0.2922 -0.2947  0.6342
18923TIP3    H178260   4.394   3.296   5.114  0.9580 -0.3455  0.5354
18923TIP3    H278261   4.492   3.257   5.224 -0.3062 -2.4504  0.9723
18924TIP3   OH278262   2.784   2.150  17.082  0.2678 -0.1097  0.2090
18924TIP3    H178263   2.839   2.215  17.125  0.4413  0.0663 -0.2730
18924TIP3    H278264   2.709   2.138  17.141 -0.2743  1.2713 -0.1621
18925TIP3   OH278265   5.798   4.253  11.239 -0.0687 -0.8020 -0.1862
18925TIP3    H178266   5.810   4.265  11.144 -0.7645 -1.0480 -0.3096
18925TIP3    H278267   5.717   4.300  11.258 -0.1365 -1.0890  0.2216
18926TIP3   OH278268   3.811   0.382   4.773  0.4403 -0.2521  0.0236
18926TIP3    H178269   3.838   0.374   4.682  0.6471 -1.3405  0.1710
18926TIP3    H278270   3.750   0.456   4.773 -0.4243 -0.9174 -1.2002
18927TIP3   OH278271   4.708   0.696  11.549 -0.1760 -0.4420  0.1757
18927TIP3    H178272   4.674   0.693  11.460  1.3088 -0.6616 -0.4209
18927TIP3    H278273   4.748   0.610  11.562  0.4508 -0.0799  0.7085
18928TIP3   OH278274   5.430   6.334  16.995 -0.4664  0.5446  0.6472
18928TIP3    H178275   5.445   6.413  16.942 -0.8933 -0.3690 -0.9097
18928TIP3    H278276   5.465   6.356  17.081  2.0312  1.4862 -0.4858
18929TIP3   OH278277   6.506   6.433  14.304  0.6640  0.1843 -0.1571
18929TIP3    H178278   6.572   6.495  14.337  1.9558 -0.4705 -1.4080
18929TIP3    H278279   6.557   6.360  14.269 -0.7962 -1.1495  0.3564
18930TIP3   OH278280   5.386   5.685   5.135 -0.1858  0.7967  0.5197
18930TIP3    H178281   5.370   5.599   5.175  2.2971 -1.0620 -2.0020
18930TIP3    H278282   5.358   5.674   5.044 -1.3157  3.2868  0.4849
18931TIP3   OH278283   1.770   2.792   3.787 -0.8533  0.6146 -0.3008
18931TIP3    H178284   1.758   2.817   3.696 -0.1295  0.3719 -0.4643
18931TIP3    H278285   1.747   2.699   3.790 -1.8608  0.8538 -0.0267
18932TIP3   OH278286   2.096   1.818   1.182 -0.1513  0.0329  0.2611
18932TIP3    H178287   2.022   1.760   1.162 -1.4164  1.7258 -0.1327
18932TIP3    H278288   2.172   1.774   1.142 -0.7112 -2.1993  1.4455
18933TIP3   OH278289   4.889   4.182  16.988 -0.0407 -0.0665  0.4142
18933TIP3    H178290   4.869   4.091  16.965  0.5663  0.2207 -1.3689
18933TIP3    H278291   4.834   4.235  16.931  0.6992  0.6890  0.3777
18934TIP3   OH278292   0.910   0.555   5.022 -0.2322 -0.0337  0.2090
18934TIP3    H178293   0.903   0.527   4.931  0.9645 -0.1790  0.1428
18934TIP3    H278294   0.859   0.636   5.027 -1.7614 -0.9335 -0.1620
18935TIP3   OH278295   4.944   2.613   3.231 -0.1301  0.5232  0.0976
18935TIP3    H178296   4.911   2.524   3.245  0.7524  0.4389  1.8564
18935TIP3    H278297   4.866   2.664   3.207 -0.5774 -0.7733 -1.3944
18936TIP3   OH278298   2.130   4.738  15.250 -0.4343 -0.4517  0.5443
18936TIP3    H178299   2.047   4.749  15.203 -0.2865 -0.4256  0.2826
18936TIP3    H278300   2.105   4.725  15.341 -0.7427 -0.8286  0.4077
18937TIP3   OH278301   3.712   2.615   3.942  0.2325  0.1134  0.4067
18937TIP3    H178302   3.653   2.665   3.998  0.6835  2.4657 -1.0593
18937TIP3    H278303   3.670   2.615   3.856  1.2179 -0.2402 -0.0951
18938TIP3   OH278304   4.687   0.108  15.682 -0.2512  0.3149 -0.0404
18938TIP3    H178305   4.622   0.057  15.731 -0.6256  1.3529  0.5857
18938TIP3    H278306   4.711   0.179  15.742  0.2951  0.8464 -0.8685
18939TIP3   OH278307   5.997   1.790   4.383 -0.6262 -0.7364 -0.3565
18939TIP3    H178308   5.993   1.846   4.306  0.8261 -0.2105 -0.0690
18939TIP3    H278309   5.965   1.705   4.352 -0.2882 -0.4702 -1.4795
18940TIP3   OH278310   0.418   4.868   2.234  0.2029 -0.1643  0.6715
18940TIP3    H178311   0.404   4.915   2.316  0.1608  1.1823 -0.0750
18940TIP3    H278312   0.363   4.790   2.241  0.4242 -0.2187  2.0282
18941TIP3   OH278313   2.784   3.281   0.480 -0.4248  0.0787 -0.1148
18941TIP3    H178314   2.771   3.368   0.518 -0.0191 -0.3844  1.1396
18941TIP3    H278315   2.776   3.295   0.386 -1.7344  1.2319  0.1270
18942TIP3   OH278316   6.021   1.404  12.050 -0.5649 -0.0123  0.4321
18942TIP3    H178317   6.029   1.370  12.139  0.9300  0.2075  0.4151
18942TIP3    H278318   6.020   1.499  12.061  1.6582  0.0946  0.1420
18943TIP3   OH278319   1.721   1.951  15.498  0.8012 -0.4481 -0.6057
18943TIP3    H178320   1.627   1.944  15.481  0.0234  0.7141  2.5821
18943TIP3    H278321   1.754   2.007  15.427 -0.7826 -1.1911 -2.0044
18944TIP3   OH278322   4.020   1.045   3.775  0.8019  0.0382  0.4250
18944TIP3    H178323   4.114   1.039   3.755  0.4964 -0.5774 -0.9797
18944TIP3    H278324   3.980   1.070   3.692 -0.3627 -0.5708  0.7849
18945TIP3   OH278325   5.283   4.785  12.982  0.5475  0.2158 -0.1619
18945TIP3    H178326   5.278   4.737  12.899 -0.4124  2.7082 -1.6594
18945TIP3    H278327   5.354   4.847  12.970  2.1039 -1.0021  1.9263
18946TIP3   OH278328   2.658   0.900   3.942  0.0561 -0.2366 -0.1472
18946TIP3    H178329   2.578   0.945   3.918  0.9211  0.5059 -1.7704
18946TIP3    H278330   2.718   0.916   3.870  1.6426 -0.8677  0.9610
18947TIP3   OH278331   1.695   5.557  15.399 -0.6506  0.6175  0.1969
18947TIP3    H178332   1.725   5.616  15.468 -0.7341 -0.1467  0.9002
18947TIP3    H278333   1.774   5.512  15.369 -0.7788  0.1152  0.6014
18948TIP3   OH278334   4.427   1.215   1.111 -0.0013  0.3163 -1.0323
18948TIP3    H178335   4.469   1.186   1.191  0.8504 -0.1032 -1.6122
18948TIP3    H278336   4.426   1.137   1.055 -1.4828  0.3297 -1.0778
18949TIP3   OH278337   6.680   1.636   2.690  0.2081  0.8930 -0.1886
18949TIP3    H178338   6.599   1.686   2.699 -0.5560 -0.3633  0.1464
18949TIP3    H278339   6.716   1.632   2.778  0.4095  1.0797 -0.2620
18950TIP3   OH278340   5.257   5.584  12.325  0.3260  0.2247  0.0942
18950TIP3    H178341   5.179   5.580  12.270 -0.0835 -2.8227  0.7509
18950TIP3    H278342   5.330   5.595  12.264 -0.0360 -3.7699 -1.3088
18951TIP3   OH278343   4.405   3.020  16.931 -0.0741 -0.7709 -0.3397
18951TIP3    H178344   4.408   2.972  16.847 -0.0369  0.0615 -0.8213
18951TIP3    H278345   4.488   2.998  16.974  0.0843 -0.8840 -0.6977
18952TIP3   OH278346   4.559   2.322  16.085  0.6159  0.1692 -0.2649
18952TIP3    H178347   4.474   2.365  16.084  0.2000 -0.6306 -0.6824
18952TIP3    H278348   4.613   2.374  16.026 -0.6167 -1.2493 -2.8366
18953TIP3   OH278349   2.393   0.901  15.135 -0.3474 -0.1453 -0.6502
18953TIP3    H178350   2.320   0.866  15.186  0.6555 -1.1857  0.1366
18953TIP3    H278351   2.381   0.863  15.048  1.7010 -4.2886  0.5950
18954TIP3   OH278352   3.507   6.527  15.680 -0.7714 -0.2436  0.2596
18954TIP3    H178353   3.553   6.610  15.690 -1.0007 -0.3186  2.1756
18954TIP3    H278354   3.424   6.550  15.637 -1.2897  0.7097  1.6937
18955TIP3   OH278355   0.610   0.111   5.105 -0.0990 -0.6462  0.5578
18955TIP3    H178356   0.521   0.085   5.080  0.3095 -0.9516 -0.6261
18955TIP3    H278357   0.604   0.205   5.122 -0.6875 -0.7065  0.7223
18956TIP3   OH278358   5.722   1.611  12.499  0.4990 -0.5547 -0.0406
18956TIP3    H178359   5.652   1.549  12.476  1.1270 -2.0590  1.9200
18956TIP3    H278360   5.794   1.588  12.441  0.7656 -1.7640  0.7539
18957TIP3   OH278361   3.263   0.176   2.048 -0.2078  0.0737 -0.3772
18957TIP3    H178362   3.307   0.143   1.970  1.4573 -0.1784  0.6419
18957TIP3    H278363   3.310   0.257   2.070  1.2163 -1.2735  1.9331
18958TIP3   OH278364   0.947   5.065  14.310  0.9206 -0.0622  0.3718
18958TIP3    H178365   0.951   5.041  14.402 -0.6911  1.5637  0.9342
18958TIP3    H278366   0.858   5.043  14.283  1.6076 -1.2743 -1.0609
18959TIP3   OH278367   2.917   3.782   5.256 -0.1337 -0.3972  0.1363
18959TIP3    H178368   2.827   3.810   5.268 -0.2689  0.3164 -2.0271
18959TIP3    H278369   2.911   3.688   5.238 -0.8266  0.0807 -2.6644
18960TIP3   OH278370   5.233   3.769   2.995  0.3643 -0.3054  0.6973
18960TIP3    H178371   5.157   3.712   3.001  0.5750 -0.8835 -1.3479
18960TIP3    H278372   5.198   3.858   3.005 -0.3322 -0.6469  1.3362
18961TIP3   OH278373   0.507   3.832  12.063 -0.3557  0.0842  0.0071
18961TIP3    H178374   0.439   3.804  12.125 -1.8846 -0.8737 -1.9695
18961TIP3    H278375   0.580   3.861  12.118 -1.2360 -1.6445  2.2423
18962TIP3   OH278376   4.515   1.887  14.327  0.3889  0.1320 -0.2186
18962TIP3    H178377   4.514   1.880  14.422 -1.0971 -1.4519 -0.3093
18962TIP3    H278378   4.607   1.901  14.305  0.6263  1.5736  1.4871
18963TIP3   OH278379   5.669   0.574  13.397  0.4173 -0.1567 -0.1677
18963TIP3    H178380   5.587   0.586  13.349 -0.4852 -0.5217  1.2292
18963TIP3    H278381   5.717   0.509  13.347  0.8935  1.6603 -2.2410
18964TIP3   OH278382   4.087   2.262  11.753  0.1512  0.3460  0.0327
18964TIP3    H178383   4.024   2.239  11.821 -1.1768  1.0691 -0.9053
18964TIP3    H278384   4.034   2.285  11.677  1.5043  1.9130 -0.5106
18965TIP3   OH278385   6.707   1.876   2.109 -0.2158  0.0870  0.3289
18965TIP3    H178386   6.733   1.813   2.176  0.6478 -1.1310 -1.0842
18965TIP3    H278387   6.784   1.932   2.096 -0.3907  0.3431  0.3690
18966TIP3   OH278388   0.488   5.052  11.239  0.3033  0.3929 -0.3323
18966TIP3    H178389   0.545   5.104  11.182  0.9588 -0.1211 -0.1635
18966TIP3    H278390   0.508   5.084  11.327 -1.2754  1.7346 -0.4127
18967TIP3   OH278391   3.139   3.135   3.583 -0.5939 -0.2491 -0.1283
18967TIP3    H178392   3.103   3.078   3.651  1.5110 -1.8373 -0.2454
18967TIP3    H278393   3.209   3.183   3.627  0.1339 -0.5704 -0.9070
18968TIP3   OH278394   4.821   1.744   1.535  0.9572  0.1166  0.3514
18968TIP3    H178395   4.904   1.787   1.554 -0.5863  2.7046  1.7517
18968TIP3    H278396   4.836   1.652   1.560  3.1436  0.6587  1.2590
18969TIP3   OH278397   4.349   1.265   2.433 -0.4101  0.1257 -0.1022
18969TIP3    H178398   4.393   1.233   2.511 -1.1540 -0.7658 -0.0286
18969TIP3    H278399   4.396   1.345   2.409 -0.7827  0.9789  1.8207
18970TIP3   OH278400   3.354   0.218  14.330  0.0133 -0.5249 -0.0294
18970TIP3    H178401   3.362   0.278  14.404  1.4255  0.7564 -1.1652
18970TIP3    H278402   3.338   0.132  14.370 -0.7816  0.3640  1.6759
18971TIP3   OH278403   2.282   3.687   4.180  0.0251 -0.0736 -1.0563
18971TIP3    H178404   2.230   3.659   4.104  0.1687  0.0305 -1.1925
18971TIP3    H278405   2.302   3.606   4.226 -2.1283  0.0478  0.2142
18972TIP3   OH278406   2.810   6.226  16.171 -0.3110 -0.1868 -0.4149
18972TIP3    H178407   2.873   6.215  16.100  0.0931 -0.7410  0.0166
18972TIP3    H278408   2.771   6.312  16.156  1.2089  0.5771 -0.1741
18973TIP3   OH278409   1.667   3.124   3.609  0.2895 -0.3312 -0.1577
18973TIP3    H178410   1.692   3.136   3.701  0.5262  0.7031 -0.3502
18973TIP3    H278411   1.600   3.056   3.611 -0.2696  0.2369  0.8658
18974TIP3   OH278412   5.720   4.803  16.027  0.1851 -0.2219 -0.1226
18974TIP3    H178413   5.671   4.885  16.036 -1.9254 -1.4192 -0.0214
18974TIP3    H278414   5.675   4.756  15.957 -0.4179 -2.4484  1.6571
18975TIP3   OH278415   6.768   1.646   4.817 -0.1686 -0.4796 -0.3323
18975TIP3    H178416   6.795   1.604   4.898  0.2895 -0.2651 -0.3652
18975TIP3    H278417   6.679   1.615   4.801 -0.9944  0.9178  1.2358
18976TIP3   OH278418   0.377   3.002  12.741 -0.4983  0.6160 -0.3180
18976TIP3    H178419   0.372   3.000  12.645 -0.7783  1.3005 -0.3182
18976TIP3    H278420   0.418   2.918  12.764  0.3945  0.8169 -1.0817
18977TIP3   OH278421   5.078   6.288   4.111  0.1895 -0.2868 -0.2911
18977TIP3    H178422   4.985   6.266   4.107 -0.1402  0.9299  0.2562
18977TIP3    H278423   5.105   6.260   4.198  0.7115 -1.9188 -0.9300
18978TIP3   OH278424   2.013   3.919  13.582 -0.0251  0.2232 -0.2526
18978TIP3    H178425   1.963   3.964  13.514 -0.7213 -0.5340 -0.2544
18978TIP3    H278426   2.022   3.829  13.550 -0.0305 -0.0456  0.4793
18979TIP3   OH278427   3.642   2.341   0.137  0.7996  0.1106 -0.5231
18979TIP3    H178428   3.658   2.268   0.196 -0.1532  0.6884  0.4834
18979TIP3    H278429   3.612   2.301   0.056 -0.9286 -0.5816  0.4148
18980TIP3   OH278430   6.771   5.661   0.368  0.3790  0.7313  0.4402
18980TIP3    H178431   6.770   5.755   0.350  1.7627  0.6149 -0.4209
18980TIP3    H278432   6.861   5.633   0.348  0.0611 -0.7411  0.8807
18981TIP3   OH278433   3.097   4.219  16.378 -0.6863  0.5048 -0.9771
18981TIP3    H178434   3.104   4.162  16.301 -0.7750  0.2280 -0.7824
18981TIP3    H278435   3.090   4.158  16.452 -1.0638  0.7694 -0.7922
18982TIP3   OH278436   0.597   4.132   2.164  0.2866 -0.1149  0.1159
18982TIP3    H178437   0.514   4.121   2.117  0.1236  1.3835 -0.0066
18982TIP3    H278438   0.601   4.226   2.184  3.6472  0.7375 -3.2329
18983TIP3   OH278439   4.563   5.500  11.107 -0.6367  1.0516  0.4717
18983TIP3    H178440   4.565   5.529  11.198  0.1898 -2.1868  1.6139
18983TIP3    H278441   4.478   5.458  11.097 -0.5313  0.9701 -0.1408
18984TIP3   OH278442   4.451   2.038  14.057 -0.5129 -0.0362 -0.2383
18984TIP3    H178443   4.537   2.000  14.040  0.4434  2.4101 -1.2651
18984TIP3    H278444   4.396   1.963  14.080  1.0005 -2.1756 -2.9803
18985TIP3   OH278445   5.677   5.548  12.248 -0.3546  0.3357 -0.5931
18985TIP3    H178446   5.742   5.568  12.315 -0.8551  0.6884 -0.1959
18985TIP3    H278447   5.705   5.465  12.209 -1.0476 -0.8385  1.3134
18986TIP3   OH278448   1.760   2.278   5.618  0.2949 -0.1036  0.2783
18986TIP3    H178449   1.726   2.297   5.530 -1.4317 -0.2279  0.9008
18986TIP3    H278450   1.768   2.363   5.660  2.5759  0.1143 -0.4626
18987TIP3   OH278451   4.620   0.406  12.961 -0.7970 -0.4401 -0.0856
18987TIP3    H178452   4.673   0.407  13.041 -1.4698 -0.1201  0.3652
18987TIP3    H278453   4.653   0.331  12.911  1.2913  0.7889 -0.6594
18988TIP3   OH278454   1.061   0.424  11.645  0.1763  0.2437 -0.6616
18988TIP3    H178455   1.072   0.509  11.603  0.4192 -0.0603 -1.2349
18988TIP3    H278456   1.072   0.361  11.573 -0.3618 -0.2546 -0.3149
18989TIP3   OH278457   3.085   5.645  14.762  1.1850  0.8166 -0.7188
18989TIP3    H178458   3.052   5.663  14.850 -0.3063 -3.9971 -0.0461
18989TIP3    H278459   3.026   5.694  14.704 -2.0796 -1.0068  0.8145
18990TIP3   OH278460   6.735   5.219  13.766 -0.2889 -0.1347  0.2835
18990TIP3    H178461   6.745   5.253  13.855  1.1868  1.3666 -0.4017
18990TIP3    H278462   6.799   5.268  13.714 -0.0785 -2.0146 -1.3463
18991TIP3   OH278463   5.926   0.780   0.950 -0.2965  0.1890 -0.7741
18991TIP3    H178464   6.002   0.731   0.918 -1.4173 -1.3286 -1.2308
18991TIP3    H278465   5.878   0.717   1.003 -2.1690  0.5788 -1.9500
18992TIP3   OH278466   4.579   5.735   1.406 -0.2032 -0.2262  0.0910
18992TIP3    H178467   4.546   5.824   1.396 -0.6686  0.0355  3.0231
18992TIP3    H278468   4.666   5.736   1.366 -0.5534  1.2702 -0.7101
18993TIP3   OH278469   5.226   2.533  11.472 -0.3972  0.0925  0.3618
18993TIP3    H178470   5.148   2.561  11.424  0.9056  3.5513 -0.0199
18993TIP3    H278471   5.217   2.573  11.559  0.2756 -0.7256  0.8254
18994TIP3   OH278472   2.748   5.788   5.515 -0.5283 -0.1399 -0.1140
18994TIP3    H178473   2.754   5.828   5.601  1.7412 -0.5586 -0.0329
18994TIP3    H278474   2.809   5.714   5.518 -0.9523 -0.6098 -1.8395
18995TIP3   OH278475   6.799   2.306   1.930  0.0874  0.3173  0.5827
18995TIP3    H178476   6.745   2.377   1.965 -0.1831 -0.9206  2.8578
18995TIP3    H278477   6.887   2.325   1.960  0.3701  0.6095 -0.3728
18996TIP3   OH278478   0.868   5.929  12.714 -0.1998  0.0070  0.1728
18996TIP3    H178479   0.869   5.959  12.804 -0.3815 -2.0556  0.9101
18996TIP3    H278480   0.782   5.953  12.681 -0.7728 -0.7033  1.1052
18997TIP3   OH278481   6.531   4.893  17.047 -0.3090  0.0895  0.5679
18997TIP3    H178482   6.447   4.857  17.075  0.2235 -0.8570  0.9841
18997TIP3    H278483   6.551   4.961  17.112 -0.6817  0.2315  0.5389
18998TIP3   OH278484   0.086   5.431   1.595 -0.3352 -0.4970 -0.0332
18998TIP3    H178485   0.072   5.346   1.637 -2.4704 -1.6508 -2.7144
18998TIP3    H278486   0.161   5.416   1.536  0.0762 -0.1221  0.3889
18999TIP3   OH278487   1.230   1.145  11.045 -1.0958 -0.2635 -0.6347
18999TIP3    H178488   1.284   1.138  10.966 -0.7101  1.0831 -0.5107
18999TIP3    H278489   1.280   1.097  11.112 -0.1679  0.7056 -0.5978
19000TIP3   OH278490   0.242   3.023   0.558 -0.1874 -0.2212  0.4615
19000TIP3    H178491   0.212   3.068   0.478  1.1110 -0.4691 -0.1776
19000TIP3    H278492   0.271   2.937   0.528 -0.1425 -0.5019  1.2912
19001TIP3   OH278493   4.250   3.571   0.201  0.3352 -0.1995 -0.3233
19001TIP3    H178494   4.170   3.619   0.181  0.3170  0.0432  0.3071
19001TIP3    H278495   4.223   3.504   0.264  0.0594 -2.0255 -2.2621
19002TIP3   OH278496   1.648   5.365   5.165 -0.1247 -0.0117  0.1988
19002TIP3    H178497   1.627   5.457   5.152  0.3588 -0.0790 -1.2554
19002TIP3    H278498   1.620   5.346   5.255 -1.5825  1.1673  0.0286
19003TIP3   OH278499   4.118   5.734  11.995  0.5952 -0.5433 -0.3787
19003TIP3    H178500   4.152   5.687  11.919  3.1316  0.5657 -0.0201
19003TIP3    H278501   4.187   5.726  12.061 -0.6729  0.2412  1.1018
19004TIP3   OH278502   2.533   6.703   0.113 -0.0816  0.5502  0.2231
19004TIP3    H178503   2.499   6.736   0.030 -1.0838  0.6316  0.6512
19004TIP3    H278504   2.536   6.780   0.170 -1.2802  0.1536  0.8552
19005TIP3   OH278505   4.768   2.868  12.165  0.2544  0.1145 -0.3518
19005TIP3    H178506   4.844   2.917  12.195 -0.2720  0.1329  0.9969
19005TIP3    H278507   4.738   2.820  12.242 -0.5731 -0.5875 -1.0888
19006TIP3   OH278508   4.236   5.716  14.152  0.1503  0.4673  0.3480
19006TIP3    H178509   4.280   5.644  14.107  1.2494  1.4510 -0.1892
19006TIP3    H278510   4.274   5.717  14.240  0.3782  0.6200  0.2451
19007TIP3   OH278511   4.776   6.200   2.034 -0.1777  0.0029  0.2478
19007TIP3    H178512   4.863   6.172   2.063  0.2117  0.2990 -0.6058
19007TIP3    H278513   4.715   6.141   2.079  0.3863  0.5485  1.7874
19008TIP3   OH278514   5.744   2.813   4.077 -0.2833  0.2146  0.5954
19008TIP3    H178515   5.762   2.895   4.032 -0.9025 -1.4457 -2.9835
19008TIP3    H278516   5.660   2.828   4.121 -0.3466  1.4872  0.0852
19009TIP3   OH278517   3.998   5.723   2.059  0.3600 -0.4595  0.0759
19009TIP3    H178518   4.000   5.812   2.094 -2.4017 -0.2991  0.0647
19009TIP3    H278519   3.978   5.735   1.966 -0.9977 -1.0699  0.2636
19010TIP3   OH278520   3.859   0.259   2.085 -0.2372  0.0013  0.5274
19010TIP3    H178521   3.835   0.181   2.034  1.9254 -0.6106  0.3361
19010TIP3    H278522   3.886   0.225   2.170 -2.5275  0.9059  1.6955
19011TIP3   OH278523   3.590   6.717   6.173 -0.0881  0.1419  0.3083
19011TIP3    H178524   3.608   6.779   6.243  1.6980 -0.6071  0.5534
19011TIP3    H278525   3.559   6.771   6.100  1.3409  1.3272  0.5347
19012TIP3   OH278526   0.459   3.846   3.513  0.2798  0.6424  0.2204
19012TIP3    H178527   0.533   3.901   3.489  0.9698 -0.1942  0.4115
19012TIP3    H278528   0.401   3.904   3.561  1.4462  0.9779  1.2531
19013TIP3   OH278529   1.363   5.000   0.015 -0.5018 -0.1176 -0.0506
19013TIP3    H178530   1.456   5.018  -0.003 -0.6291  2.7473  1.5366
19013TIP3    H278531   1.340   5.062   0.085 -3.5874 -0.8454 -0.2873
19014TIP3   OH278532   1.762   5.402   4.816  0.6560  0.1119 -0.4111
19014TIP3    H178533   1.803   5.326   4.857  0.5798  0.5101  0.4084
19014TIP3    H278534   1.798   5.477   4.863  0.6340  0.5860 -1.1332
19015TIP3   OH278535   0.024   5.088   1.074  0.5338  0.2752  0.6046
19015TIP3    H178536  -0.059   5.111   1.034  0.4457 -1.0027 -0.0134
19015TIP3    H278537   0.022   5.129   1.160 -1.3572 -0.8576  1.1637
19016TIP3   OH278538   2.578   4.067  15.188 -0.0385  0.1313 -0.3391
19016TIP3    H178539   2.565   4.127  15.115  2.5039 -0.2136 -1.1665
19016TIP3    H278540   2.639   4.112  15.245 -1.0867 -0.1079  1.0301
19017TIP3   OH278541   2.049   1.731  16.730 -0.5134  0.1910 -0.3510
19017TIP3    H178542   2.115   1.682  16.680  0.2209  0.2531  0.5244
19017TIP3    H278543   1.972   1.732  16.674 -0.2167 -1.1029 -0.8203
19018TIP3   OH278544   4.895   5.460   3.384 -0.0769 -0.6854  0.5853
19018TIP3    H178545   4.863   5.413   3.306 -1.1323 -0.5129  0.8967
19018TIP3    H278546   4.981   5.422   3.401 -0.6827 -2.1541  0.5209
19019TIP3   OH278547   0.431   0.712   6.479  0.2704 -0.0187 -0.2060
19019TIP3    H178548   0.497   0.642   6.469  0.6336  0.3788 -0.6395
19019TIP3    H278549   0.482   0.792   6.490 -0.1477  0.1399  0.6563
19020TIP3   OH278550   0.256   2.922   1.452 -0.1053  0.2178  0.3080
19020TIP3    H178551   0.227   3.005   1.488 -0.7341 -0.5009  1.5177
19020TIP3    H278552   0.248   2.860   1.524  1.5907 -0.6396 -0.1842
19021TIP3   OH278553   4.821   4.635  11.626 -0.2160  0.0011 -0.5718
19021TIP3    H178554   4.795   4.546  11.604 -1.7998  0.5971 -1.2827
19021TIP3    H278555   4.780   4.652  11.711  1.1262 -0.3411  0.1764
19022TIP3   OH278556   3.020   5.279   6.101 -0.3265 -0.0413  0.4814
19022TIP3    H178557   3.052   5.235   6.180  0.9161 -0.1781 -0.0839
19022TIP3    H278558   2.946   5.332   6.131 -0.6979 -1.0970  1.5030
19023TIP3   OH278559   2.767   3.535  11.942  0.0027 -0.3063  0.1835
19023TIP3    H178560   2.774   3.513  11.849  0.8820 -0.1735  0.2088
19023TIP3    H278561   2.842   3.491  11.982  0.1784  0.4272  0.6732
19024TIP3   OH278562   1.118   3.402  15.650 -0.0874  0.0414 -0.2540
19024TIP3    H178563   1.057   3.464  15.611  0.4903 -0.6064 -2.3468
19024TIP3    H278564   1.069   3.320  15.655  0.7774 -0.7406 -2.8613
19025TIP3   OH278565   5.656   1.636  16.103  0.2115 -0.3281  0.0584
19025TIP3    H178566   5.598   1.649  16.029  2.2024 -0.8868 -1.6901
19025TIP3    H278567   5.742   1.621  16.064  1.6963  1.0993  2.5094
19026TIP3   OH278568   2.101   4.098  16.924  0.2598 -0.1951 -0.1702
19026TIP3    H178569   2.193   4.120  16.934  0.1037  1.0133 -1.1489
19026TIP3    H278570   2.100   4.006  16.898  1.1156 -0.5258  0.8920
19027TIP3   OH278571   3.903   5.124  12.732  0.1290 -0.5449 -0.1269
19027TIP3    H178572   3.868   5.053  12.786  1.0692 -0.2925  0.8620
19027TIP3    H278573   3.855   5.202  12.761  0.1114 -0.5358 -0.1803
19028TIP3   OH278574   2.417   3.094   3.880 -0.0363  0.1610  0.0504
19028TIP3    H178575   2.393   3.004   3.857 -0.5793 -0.0345  1.3004
19028TIP3    H278576   2.387   3.146   3.806  0.4430 -0.6992 -0.7728
19029TIP3   OH278577   6.647   4.825  16.653  0.1823 -0.1238 -0.0656
19029TIP3    H178578   6.604   4.743  16.627 -1.3091  0.7812 -0.6099
19029TIP3    H278579   6.577   4.876  16.695  1.1096  0.8274  0.3640
19030TIP3   OH278580   4.017   0.561  14.359 -0.3378  0.3809 -0.6191
19030TIP3    H178581   3.981   0.488  14.309 -2.6297  1.7946 -1.1561
19030TIP3    H278582   3.970   0.638  14.327  0.8699  1.8925  1.0350
19031TIP3   OH278583   1.924   0.937  16.779 -0.4546  0.1822 -0.5617
19031TIP3    H178584   1.892   0.997  16.712  1.0536  1.8754  0.1295
19031TIP3    H278585   1.933   0.992  16.857 -0.2452 -1.2626  0.4765
19032TIP3   OH278586   0.036   0.591  14.713  0.1704  0.1177  0.2218
19032TIP3    H178587   0.109   0.546  14.669 -0.3663  0.8397 -1.4883
19032TIP3    H278588  -0.012   0.632  14.642 -0.6539  1.5018  1.5407
19033TIP3   OH278589   0.058   2.109  11.472 -0.2462  0.2779 -0.2152
19033TIP3    H178590   0.131   2.171  11.468 -0.0693  0.2837  2.0241
19033TIP3    H278591   0.094   2.027  11.437  0.7831  0.3558  0.6089
19034TIP3   OH278592   6.124   0.454   4.945 -0.3532 -0.5750 -0.1642
19034TIP3    H178593   6.136   0.406   4.863 -0.3008 -0.9903  0.0865
19034TIP3    H278594   6.213   0.467   4.978 -0.1505  1.9208 -1.4881
19035TIP3   OH278595   1.315   3.378  13.531 -0.6701  0.0680  0.1185
19035TIP3    H178596   1.358   3.352  13.449 -1.2130 -0.5735  0.0296
19035TIP3    H278597   1.366   3.335  13.599 -0.8303 -0.2326  0.0496
19036TIP3   OH278598   1.250   6.570  13.111  0.0388  0.1730 -0.2528
19036TIP3    H178599   1.274   6.662  13.118  3.2010 -0.2759 -2.6903
19036TIP3    H278600   1.314   6.525  13.166 -1.6039 -0.6392  1.0799
19037TIP3   OH278601   4.002   0.240  15.523 -0.3295  0.1383  0.3468
19037TIP3    H178602   3.977   0.165  15.469  2.5503  0.1450 -1.2392
19037TIP3    H278603   3.923   0.293  15.530 -1.7477 -1.7359 -0.7423
19038TIP3   OH278604   0.417   0.770  16.449  0.3525  0.3480 -0.4900
19038TIP3    H178605   0.449   0.694  16.401  1.4582  0.0772  0.6165
19038TIP3    H278606   0.495   0.810  16.487 -0.4120  0.8438  0.6471
19039TIP3   OH278607   6.450   6.326   1.007  0.3432 -0.1916 -0.2991
19039TIP3    H178608   6.385   6.395   0.994 -0.4642 -1.0935 -1.1843
19039TIP3    H278609   6.491   6.315   0.921  0.4156 -0.8726 -0.1805
19040TIP3   OH278610   2.210   2.436   5.520 -0.3669  0.1087  0.4468
19040TIP3    H178611   2.171   2.490   5.451 -3.0012 -1.3360  0.6830
19040TIP3    H278612   2.152   2.360   5.527  1.5594 -1.3077  2.1494
19041TIP3   OH278613   0.943   1.196  11.780  0.2720  0.0530  0.1552
19041TIP3    H178614   0.896   1.253  11.841  0.4886  0.8174 -0.3867
19041TIP3    H278615   1.034   1.223  11.787  0.4568 -0.5777  0.2648
19042TIP3   OH278616   4.478   0.104   3.401 -0.6086  0.3697  0.5545
19042TIP3    H178617   4.565   0.117   3.439 -0.8112 -0.5264  1.3553
19042TIP3    H278618   4.494   0.093   3.308  0.1076  0.4837  0.6579
19043TIP3   OH278619   6.804   1.576  10.718 -0.0234 -0.1419 -0.2557
19043TIP3    H178620   6.804   1.480  10.729  1.4664 -0.3672 -1.8048
19043TIP3    H278621   6.719   1.595  10.678 -1.5003 -0.4195  2.4981
19044TIP3   OH278622   0.376   6.661  10.265 -0.0775 -0.0215 -0.0744
19044TIP3    H178623   0.288   6.643  10.297  0.0984 -1.2005 -0.1742
19044TIP3    H278624   0.416   6.715  10.333 -0.6767 -0.0038  0.2701
19045TIP3   OH278625   3.389   3.277   2.595 -0.5478 -0.6507 -0.4406
19045TIP3    H178626   3.439   3.196   2.605  0.5442 -0.1275 -1.3252
19045TIP3    H278627   3.297   3.251   2.601 -0.2216 -1.4215  2.9324
19046TIP3   OH278628   5.896   2.810   5.009 -0.0229 -0.2336 -0.1830
19046TIP3    H178629   5.918   2.775   5.096  0.1454  0.9658  0.2757
19046TIP3    H278630   5.832   2.879   5.026  1.4093  1.3222 -0.7931
19047TIP3   OH278631   2.299   1.870  13.047 -0.0793  0.1920 -0.1682
19047TIP3    H178632   2.301   1.870  12.951 -1.7708  3.1660 -0.3212
19047TIP3    H278633   2.247   1.793  13.069 -0.3375 -0.1017 -1.6880
19048TIP3   OH278634   0.356   3.137   4.724  0.4628 -0.3516 -0.5302
19048TIP3    H178635   0.401   3.113   4.642 -1.4890  0.6309 -1.9682
19048TIP3    H278636   0.318   3.222   4.706  1.1332  0.5557  1.9417
19049TIP3   OH278637   2.982   3.978   2.692 -0.2949  0.1493  0.1813
19049TIP3    H178638   2.922   3.923   2.743 -0.4679  0.0399 -0.1340
19049TIP3    H278639   2.985   3.936   2.606 -1.1932  1.1664 -0.3706
19050TIP3   OH278640   4.106   4.890  11.664  0.2139  0.0287  0.5482
19050TIP3    H178641   4.067   4.828  11.726  0.6301 -0.1314  0.6503
19050TIP3    H278642   4.031   4.926  11.617  0.0014 -1.0923 -0.0186
19051TIP3   OH278643   5.067   6.535  15.356 -0.7137  0.4330 -0.1722
19051TIP3    H178644   5.110   6.451  15.371 -0.4874  0.7710  1.2534
19051TIP3    H278645   4.980   6.524  15.393 -0.6823  0.8225  0.0220
19052TIP3   OH278646   4.232   3.414   3.321 -0.1233 -0.5714  0.0590
19052TIP3    H178647   4.186   3.336   3.289  0.8315 -0.8327 -0.7059
19052TIP3    H278648   4.296   3.434   3.253 -0.0769  0.6433  0.4463
19053TIP3   OH278649   4.093   0.852   1.534 -0.4565 -0.1691  0.3096
19053TIP3    H178650   4.157   0.856   1.606 -0.8764 -1.4948  0.7784
19053TIP3    H278651   4.146   0.865   1.455  0.4667 -1.5282  0.6707
19054TIP3   OH278652   2.786   4.809  15.194  0.3320  0.0526  0.4572
19054TIP3    H178653   2.746   4.725  15.217  0.9929  0.2964  2.7341
19054TIP3    H278654   2.724   4.875  15.227  0.4595  0.4524 -0.0911
19055TIP3   OH278655   1.460   3.758   1.388  0.1559 -0.3391  0.4498
19055TIP3    H178656   1.402   3.704   1.442 -2.1638  0.7104 -0.8329
19055TIP3    H278657   1.460   3.714   1.303 -0.5114  0.8288 -0.1649
19056TIP3   OH278658   0.570   5.969   3.516 -0.5986  0.0677 -0.4538
19056TIP3    H178659   0.522   5.978   3.433 -2.2337 -2.9002  0.0523
19056TIP3    H278660   0.614   6.054   3.527 -0.3019  0.5864 -4.3116
19057TIP3   OH278661   1.987   0.425  11.247 -0.3668 -0.1875  0.1331
19057TIP3    H178662   1.940   0.364  11.189 -1.0584  0.3245  0.1437
19057TIP3    H278663   1.977   0.387  11.334  0.3344 -0.7476 -0.0151
19058TIP3   OH278664   5.206   5.561  15.178 -0.0566 -0.2110  0.3550
19058TIP3    H178665   5.135   5.591  15.121  0.8334  1.5337  0.0983
19058TIP3    H278666   5.204   5.465  15.169 -0.2131 -0.0538 -2.3328
19059TIP3   OH278667   5.405   5.102  11.818 -0.0964 -0.0414  0.5992
19059TIP3    H178668   5.357   5.138  11.743  0.2028 -0.2724  0.2961
19059TIP3    H278669   5.346   5.115  11.892 -0.7832 -0.6286  0.1711
19060TIP3   OH278670   3.791   2.593  16.093  0.0818  0.5301 -0.0322
19060TIP3    H178671   3.790   2.621  16.184 -0.3836 -3.0701  1.2157
19060TIP3    H278672   3.708   2.547  16.081  1.3995 -1.6638 -1.3328
19061TIP3   OH278673   2.029   0.802   0.679  0.4100 -0.4291  0.2397
19061TIP3    H178674   1.972   0.871   0.715  1.9394  0.4409  1.1199
19061TIP3    H278675   2.115   0.845   0.670  1.3358 -2.1427  0.5351
19062TIP3   OH278676   6.047   0.142   4.505  0.0172  0.6427  0.3595
19062TIP3    H178677   6.027   0.206   4.436  0.1802  0.2420 -0.0650
19062TIP3    H278678   6.102   0.077   4.462 -0.2068  0.1742  0.7696
19063TIP3   OH278679   4.002   3.073  13.362 -0.1292 -0.2447  0.0590
19063TIP3    H178680   3.975   3.001  13.418  0.3572 -0.8842 -0.5142
19063TIP3    H278681   4.070   3.118  13.413  0.7420 -1.1833 -0.2573
19064TIP3   OH278682   0.772   1.692  14.835  0.0570  0.1437  0.2243
19064TIP3    H178683   0.696   1.750  14.834  0.4429  0.6935  1.3834
19064TIP3    H278684   0.812   1.702  14.749 -1.1563 -0.1367 -0.3939
19065TIP3   OH278685   2.544   1.750  14.825  0.0850 -0.3325 -0.1737
19065TIP3    H178686   2.563   1.659  14.802 -0.2992 -1.0015  1.9468
19065TIP3    H278687   2.513   1.746  14.915  0.0287  1.9151 -0.0394
19066TIP3   OH278688   5.057   1.519  14.409 -0.1632 -0.0009 -0.0960
19066TIP3    H178689   4.975   1.470  14.404 -0.4372  0.3950  0.3773
19066TIP3    H278690   5.051   1.583  14.338 -0.1871 -0.0874 -0.1722
19067TIP3   OH278691   5.305   5.898   4.434  0.0949 -0.0767 -0.5738
19067TIP3    H178692   5.296   5.815   4.386 -1.2788  0.3317 -1.0790
19067TIP3    H278693   5.285   5.875   4.525  0.8752 -0.5105 -0.5049
19068TIP3   OH278694   5.779   5.398   4.041 -0.5068  0.2952 -0.4503
19068TIP3    H178695   5.828   5.325   4.003  1.0303  1.0321  0.0347
19068TIP3    H278696   5.711   5.418   3.977 -1.6226 -2.1759 -0.1600
19069TIP3   OH278697   3.354   5.496   0.719 -0.2979 -0.2105 -0.3026
19069TIP3    H178698   3.288   5.433   0.748  0.9497 -1.1915  0.4757
19069TIP3    H278699   3.438   5.456   0.742  0.5427  1.5946 -0.0646
19070TIP3   OH278700   0.570   1.222   4.134  0.1786  0.1591 -0.0792
19070TIP3    H178701   0.548   1.149   4.191 -1.3368 -1.0869 -2.1027
19070TIP3    H278702   0.655   1.199   4.097 -0.9905 -1.5696 -1.9674
19071TIP3   OH278703   2.957   4.928   2.440 -0.6354  0.9000  0.2245
19071TIP3    H178704   2.893   4.858   2.425  0.9696 -1.3441  2.7287
19071TIP3    H278705   3.020   4.889   2.501  2.9680  3.0079 -1.7679
19072TIP3   OH278706   6.685   4.374   0.688 -0.0786  0.3272  0.1881
19072TIP3    H178707   6.684   4.310   0.617 -1.0419 -1.7207  1.8973
19072TIP3    H278708   6.615   4.436   0.665 -0.0455 -0.0037 -0.8642
19073TIP3   OH278709   0.961   5.329   5.793 -0.3063 -0.1869 -0.2427
19073TIP3    H178710   1.044   5.330   5.840 -1.2017  0.7121  1.4453
19073TIP3    H278711   0.896   5.311   5.861 -1.4488 -1.4618 -1.6131
19074TIP3   OH278712   6.803   3.537   1.414 -0.3447 -0.2652 -0.3682
19074TIP3    H178713   6.710   3.541   1.437  0.0658 -0.2311  1.4643
19074TIP3    H278714   6.834   3.627   1.423 -0.0664 -0.3249 -0.7074
19075TIP3   OH278715   4.450   3.198  15.714  0.5379 -0.4013 -1.1419
19075TIP3    H178716   4.522   3.218  15.655 -0.8745 -2.2271 -3.7161
19075TIP3    H278717   4.465   3.108  15.741 -0.3928 -0.5677 -1.1447
19076TIP3   OH278718   4.088   0.768  13.324  0.8106  0.7159  0.1472
19076TIP3    H178719   4.106   0.717  13.245  2.6498  1.6722 -0.1314
19076TIP3    H278720   4.128   0.854  13.305 -0.9712  1.8090  1.1218
19077TIP3   OH278721   2.292   0.645   1.936 -0.2514 -0.0063 -0.3948
19077TIP3    H178722   2.257   0.721   1.889 -2.5106 -0.6278  0.1329
19077TIP3    H278723   2.360   0.680   1.993 -0.0879  1.3348 -1.3778
19078TIP3   OH278724   5.556   6.486   3.567  0.4376 -0.4636  0.0644
19078TIP3    H178725   5.651   6.490   3.576  0.3912  2.0048  0.0438
19078TIP3    H278726   5.523   6.548   3.631 -0.9924  0.7923 -1.7647
19079TIP3   OH278727   3.664   0.390   4.025  0.2427 -0.3243  0.6591
19079TIP3    H178728   3.651   0.481   4.049  2.4430  0.2879 -0.3023
19079TIP3    H278729   3.736   0.391   3.962 -1.4303 -2.4339 -1.5260
19080TIP3   OH278730   5.061   3.867  12.402 -0.1953  0.0388 -0.8090
19080TIP3    H178731   5.146   3.888  12.363 -0.3351  1.4656 -0.4009
19080TIP3    H278732   5.082   3.812  12.477  0.4533  1.1487 -0.1663
19081TIP3   OH278733   6.167   3.853   3.538 -0.0071 -0.2734  0.3840
19081TIP3    H178734   6.207   3.768   3.558 -1.5364 -0.8491  1.1596
19081TIP3    H278735   6.144   3.847   3.445  0.5743 -0.3904  0.2383
19082TIP3   OH278736   2.042   6.127   6.019  0.9160  0.0649 -0.1672
19082TIP3    H178737   1.957   6.122   6.063  0.2751  0.6573 -1.2981
19082TIP3    H278738   2.029   6.189   5.948  2.6161  1.0242  0.2992
19083TIP3   OH278739   4.331   2.831   6.341 -0.1702  0.1922 -0.2649
19083TIP3    H178740   4.385   2.806   6.416  1.1031  0.5399 -1.0406
19083TIP3    H278741   4.308   2.747   6.300 -1.1545 -0.0200  0.6827
19084TIP3   OH278742   5.325   6.761  13.440  0.2984  0.3316 -0.0726
19084TIP3    H178743   5.247   6.706  13.447  0.1538  0.3496 -1.2698
19084TIP3    H278744   5.375   6.721  13.368  0.6577  1.1924 -0.3105
19085TIP3   OH278745   3.539   3.274  12.652 -0.2284  0.2195 -0.6534
19085TIP3    H178746   3.478   3.342  12.680 -1.0001 -0.7991  0.2843
19085TIP3    H278747   3.510   3.250  12.564 -0.6620  0.3427 -0.5470
19086TIP3   OH278748   2.149   6.051   1.049 -0.3319 -0.1870  0.0149
19086TIP3    H178749   2.124   5.976   0.995  1.0207 -1.6574  1.3578
19086TIP3    H278750   2.244   6.058   1.039 -0.4595  1.6303 -0.3813
19087TIP3   OH278751   2.413   6.174  14.327 -0.0577 -0.7439  0.3899
19087TIP3    H178752   2.478   6.119  14.372  1.1222 -0.1296 -0.4829
19087TIP3    H278753   2.347   6.192  14.392  1.8807  0.6125  2.1070
19088TIP3   OH278754   0.021   1.297   1.256  0.0228  0.1133  0.4216
19088TIP3    H178755   0.008   1.208   1.288  0.2637 -0.1151 -0.1073
19088TIP3    H278756   0.115   1.302   1.236 -0.0915  0.3045 -0.0848
19089TIP3   OH278757   0.833   5.690   3.045 -0.7077  0.2335 -0.0265
19089TIP3    H178758   0.760   5.660   2.991 -0.4226 -1.4755  0.4804
19089TIP3    H278759   0.883   5.748   2.987 -0.2867 -1.7285 -1.7392
19090TIP3   OH278760   1.899   5.360  15.578  0.0624 -0.1747 -0.1184
19090TIP3    H178761   1.892   5.439  15.631 -1.6046 -0.9599  0.9122
19090TIP3    H278762   1.905   5.393  15.488 -1.6751  1.1548  0.1877
19091TIP3   OH278763   5.377   4.740  16.591  0.0513  0.6436 -0.3640
19091TIP3    H178764   5.355   4.650  16.616  0.5416  1.1828  2.3190
19091TIP3    H278765   5.293   4.785  16.586 -0.2138  0.0448 -1.9158
19092TIP3   OH278766   2.928   1.687   4.226 -0.1478  0.3687 -1.1256
19092TIP3    H178767   2.851   1.630   4.231  0.6485 -0.6576  2.2218
19092TIP3    H278768   2.903   1.766   4.274  0.7545  0.1174 -0.2013
19093TIP3   OH278769   6.653   0.801   1.856 -0.1360  0.5472  0.6577
19093TIP3    H178770   6.693   0.804   1.943  0.4829 -1.2611  0.4835
19093TIP3    H278771   6.600   0.721   1.857 -1.4393  1.3578 -0.1107
19094TIP3   OH278772   6.211   1.440  14.993 -0.0021 -0.0864  0.0439
19094TIP3    H178773   6.261   1.491  14.929  0.1454 -0.5017 -0.1761
19094TIP3    H278774   6.133   1.493  15.010  0.4680  0.5249  0.3207
19095TIP3   OH278775   4.669   1.793   2.585  0.1646  0.0004  0.4079
19095TIP3    H178776   4.684   1.871   2.638 -0.2270  1.1363 -1.0877
19095TIP3    H278777   4.750   1.780   2.536  0.4189 -0.8611  1.0323
19096TIP3   OH278778   1.767   3.721  11.251  0.0532 -0.9135  0.5619
19096TIP3    H178779   1.696   3.772  11.290 -0.4032  0.7055 -2.1230
19096TIP3    H278780   1.724   3.643  11.215 -0.5516  0.2089 -1.3321
19097TIP3   OH278781   4.677   4.741   1.897  1.1871 -0.8929 -0.3134
19097TIP3    H178782   4.702   4.740   1.989  1.7951 -3.1580 -0.4508
19097TIP3    H278783   4.595   4.691   1.893  1.4160 -1.2266 -1.0539
19098TIP3   OH278784   2.369   1.102  12.960  0.0167 -0.0469  0.4591
19098TIP3    H178785   2.296   1.143  13.007 -0.7399  3.1273 -2.9718
19098TIP3    H278786   2.436   1.170  12.956  1.8585 -1.7772  0.7211
19099TIP3   OH278787   4.784   1.974   4.651  0.2576 -0.5888  0.5726
19099TIP3    H178788   4.850   1.989   4.720 -0.9339 -0.2486  1.6759
19099TIP3    H278789   4.820   2.018   4.574 -0.1450  2.5514  2.0088
19100TIP3   OH278790   2.756   6.602  11.942 -0.3401  0.2674 -0.1181
19100TIP3    H178791   2.735   6.694  11.927 -0.3631  0.1260 -1.0149
19100TIP3    H278792   2.794   6.572  11.859  1.5256 -0.0246  0.7917
19101TIP3   OH278793   0.477   1.346  12.244 -0.5662  0.4075 -0.9478
19101TIP3    H178794   0.544   1.413  12.259 -0.5304  0.1550  0.1100
19101TIP3    H278795   0.422   1.349  12.322  0.6468 -2.1766  0.1318
19102TIP3   OH278796   2.648   1.578   0.574 -0.4348  0.1189  0.0059
19102TIP3    H178797   2.678   1.650   0.519 -1.2223 -0.0840 -0.7057
19102TIP3    H278798   2.715   1.510   0.565 -1.2170 -0.4663 -1.8322
19103TIP3   OH278799   3.531   4.459   0.783 -0.3004  0.0600  0.1959
19103TIP3    H178800   3.568   4.400   0.717 -1.3302  0.6745 -0.9767
19103TIP3    H278801   3.514   4.402   0.858  0.7632 -0.6877 -0.0969
19104TIP3   OH278802   0.573   4.562   0.693 -0.3781 -0.3676  0.7978
19104TIP3    H178803   0.527   4.598   0.768  0.9974  0.8816  1.0884
19104TIP3    H278804   0.510   4.566   0.621 -1.4726 -0.9349  1.7014
19105TIP3   OH278805   0.515   3.870  14.093  0.1619  0.3285 -0.3406
19105TIP3    H178806   0.592   3.927  14.083  1.2150 -0.5042  2.2762
19105TIP3    H278807   0.479   3.893  14.178  0.0087 -2.1273  0.3386
19106TIP3   OH278808   1.545   6.487   0.228  0.4332 -0.0960 -0.3584
19106TIP3    H178809   1.473   6.480   0.165  0.7019  1.0192 -0.8020
19106TIP3    H278810   1.552   6.399   0.265  0.2843 -0.8052 -1.9055
19107TIP3   OH278811   1.295   2.815  16.710 -0.2435  0.0158  0.0921
19107TIP3    H178812   1.310   2.869  16.787 -1.1639 -0.6200  0.7401
19107TIP3    H278813   1.224   2.858  16.664  1.1372  1.1033 -1.1160
19108TIP3   OH278814   2.295   5.051   5.688  0.2581  0.1718 -0.5332
19108TIP3    H178815   2.352   5.123   5.715  0.1765 -0.9369  3.0708
19108TIP3    H278816   2.351   4.974   5.686 -0.7118 -0.6878  1.7446
19109TIP3   OH278817   2.977   1.435   5.259  0.6889 -0.4685  0.3087
19109TIP3    H178818   3.025   1.453   5.340  0.6890 -2.2147  0.7484
19109TIP3    H278819   2.887   1.462   5.278  1.1785  1.6065 -0.0727
19110TIP3   OH278820   0.499   0.560   5.645  0.1189  0.4731  0.0677
19110TIP3    H178821   0.512   0.531   5.554 -0.3259  1.7125 -0.4106
19110TIP3    H278822   0.561   0.632   5.656 -0.0410  0.5246  0.6473
19111TIP3   OH278823   5.523   4.666   4.089  0.2361  0.3235 -0.0896
19111TIP3    H178824   5.556   4.665   4.179  0.2492 -1.3021 -0.0769
19111TIP3    H278825   5.436   4.705   4.096 -0.3100 -0.9725  0.8611
19112TIP3   OH278826   5.217   0.646   2.692 -0.4862  0.0801  0.0140
19112TIP3    H178827   5.149   0.581   2.676 -0.5635  0.1485  0.0664
19112TIP3    H278828   5.240   0.679   2.605  1.1336 -1.6141 -0.2712
19113TIP3   OH278829   0.697   0.255  13.274 -0.3835  0.5553  0.5206
19113TIP3    H178830   0.784   0.229  13.304  0.2375  0.0348 -1.5587
19113TIP3    H278831   0.695   0.350  13.286  1.1827  0.8316 -1.0186
19114TIP3   OH278832   0.462   6.506  10.986  0.0394  0.6968 -0.5202
19114TIP3    H178833   0.409   6.426  10.983 -3.1418  2.4625  2.3663
19114TIP3    H278834   0.505   6.504  11.071  1.7348  1.1190 -1.3154
19115TIP3   OH278835   5.564   0.228  13.387 -0.0726 -0.6099 -0.2690
19115TIP3    H178836   5.517   0.215  13.305  0.2785 -0.2972 -0.5195
19115TIP3    H278837   5.610   0.311  13.376 -1.3161  0.2879  0.8324
19116TIP3   OH278838   5.153   2.586  12.635 -0.9340 -0.2086  0.2641
19116TIP3    H178839   5.145   2.517  12.700 -1.3550 -0.3991  0.0071
19116TIP3    H278840   5.193   2.659  12.682 -1.9956 -0.0571  0.9441
19117TIP3   OH278841   2.175   0.476  13.651  0.1835  0.2655  0.2402
19117TIP3    H178842   2.199   0.414  13.582 -1.7637 -1.6218  1.1482
19117TIP3    H278843   2.232   0.552  13.636  0.4528 -0.4205 -2.8704
19118TIP3   OH278844   5.238   4.410  12.557 -0.0831  0.0052 -0.1212
19118TIP3    H178845   5.315   4.431  12.610  0.0129 -0.0062 -0.2575
19118TIP3    H278846   5.255   4.321  12.525  0.0508  0.1745 -0.5194
19119TIP3   OH278847   2.330   3.489   0.661  0.1717  0.1113 -0.4446
19119TIP3    H178848   2.299   3.577   0.681 -2.7233 -0.6681 -0.9900
19119TIP3    H278849   2.425   3.494   0.671  0.0416  3.0660  0.2862
19120TIP3   OH278850   4.505   6.140  12.082  0.2745 -0.2931  0.6994
19120TIP3    H178851   4.506   6.047  12.105  0.0072 -0.0718  1.6445
19120TIP3    H278852   4.595   6.169  12.099  0.0151 -0.0747  1.7102
19121TIP3   OH278853   6.130   5.974  12.165 -0.1362 -0.1724  0.1128
19121TIP3    H178854   6.135   6.015  12.252 -0.8759  0.4752 -0.1400
19121TIP3    H278855   6.220   5.945  12.148  0.3197  0.9349  0.5013
19122TIP3   OH278856   2.475   3.044   0.542  0.4633  0.0832  0.5086
19122TIP3    H178857   2.555   3.096   0.534 -1.0675  2.3732 -0.9836
19122TIP3    H278858   2.473   3.016   0.634  2.9932 -0.1726  0.5489
19123TIP3   OH278859   0.767   1.935   0.586 -0.1465 -0.1056  0.2895
19123TIP3    H178860   0.707   1.997   0.545  0.2445  0.2887  0.3067
19123TIP3    H278861   0.786   1.973   0.672  0.5681  0.0575  0.0617
19124TIP3   OH278862   5.497   0.875  12.893  0.5999 -0.1975  0.0544
19124TIP3    H178863   5.531   0.851  12.980  1.6136  0.4054 -0.1609
19124TIP3    H278864   5.402   0.877  12.904  0.7438  3.4633  2.1498
19125TIP3   OH278865   3.947   6.293  15.726  0.4990 -0.2771  0.4235
19125TIP3    H178866   4.002   6.370  15.737 -1.2612  1.3579 -1.3477
19125TIP3    H278867   3.916   6.298  15.636  1.1355 -3.7013 -0.1388
19126TIP3   OH278868   2.316   3.431   3.281 -0.2057  0.1431 -0.5970
19126TIP3    H178869   2.324   3.361   3.345 -0.2638 -0.3373 -1.1042
19126TIP3    H278870   2.223   3.431   3.257 -0.2807  0.6559 -0.3068
19127TIP3   OH278871   2.044   3.626   0.583  0.4753 -0.3989  0.1706
19127TIP3    H178872   1.950   3.610   0.595  0.5228 -0.7878  0.0269
19127TIP3    H278873   2.081   3.539   0.569  0.7169 -0.1450 -0.7729
19128TIP3   OH278874   0.396   1.423  14.494 -0.3046 -0.5110  0.0986
19128TIP3    H178875   0.343   1.491  14.535  0.2130  0.4581 -0.7931
19128TIP3    H278876   0.375   1.343  14.543 -1.2202  0.2041  0.9068
19129TIP3   OH278877   5.292   0.946  11.354  1.0244 -0.5148 -0.4457
19129TIP3    H178878   5.253   1.029  11.382  0.2183 -0.7777 -0.7516
19129TIP3    H278879   5.367   0.971  11.301  1.4998  0.0038  0.4433
19130TIP3   OH278880   4.971   5.979   1.074 -0.0121  0.1684  0.5774
19130TIP3    H178881   4.916   6.044   1.030  0.4189 -0.1550 -0.4718
19130TIP3    H278882   5.046   6.028   1.107  0.0340  0.2971  0.2829
19131TIP3   OH278883   4.190   5.161  16.822  0.2840  0.4667  0.0474
19131TIP3    H178884   4.112   5.112  16.848 -1.8704  2.4932 -1.9800
19131TIP3    H278885   4.196   5.232  16.885 -1.0292  1.6439 -1.0647
19132TIP3   OH278886   5.284   1.471  10.405  0.0017 -0.0998  0.6677
19132TIP3    H178887   5.337   1.477  10.485  2.0971 -0.3464 -0.6259
19132TIP3    H278888   5.322   1.536  10.346 -2.0779  0.7033  0.1166
19133TIP3   OH278889   5.885   6.399  11.427  0.7869 -0.5993 -0.3906
19133TIP3    H178890   5.826   6.333  11.389  1.6350 -2.2459  1.0369
19133TIP3    H278891   5.907   6.456  11.353  0.0926 -1.9579 -1.7007
19134TIP3   OH278892   2.569   4.681   4.668  0.3655  0.3318 -0.1443
19134TIP3    H178893   2.572   4.691   4.763  0.7519 -0.1453 -0.1022
19134TIP3    H278894   2.652   4.638   4.646 -0.1464 -0.4545 -0.5830
19135TIP3   OH278895   4.199   4.138   6.620 -0.3481 -0.4683 -0.8451
19135TIP3    H178896   4.125   4.092   6.661  0.1590 -0.9320 -0.4327
19135TIP3    H278897   4.255   4.068   6.588 -0.8657 -0.1184 -2.6230
19136TIP3   OH278898   3.204   6.129  16.175  0.2896 -0.0642  0.1971
19136TIP3    H178899   3.190   6.038  16.146 -0.4807 -0.7959  2.6127
19136TIP3    H278900   3.291   6.129  16.213  0.3447  0.2468  0.0700
19137TIP3   OH278901   4.548   0.965  12.599 -0.4749 -0.1229 -0.0722
19137TIP3    H178902   4.469   0.971  12.545  0.2432 -0.3309 -1.1642
19137TIP3    H278903   4.520   0.913  12.675 -0.8872 -2.0000 -1.4338
19138TIP3   OH278904   4.410   3.178   4.510 -0.6183 -0.2565  0.0323
19138TIP3    H178905   4.473   3.211   4.573 -0.7836 -0.2483  0.1926
19138TIP3    H278906   4.386   3.092   4.542 -0.1440 -0.5621 -0.4178
19139TIP3   OH278907   2.804   1.457  13.778  0.1266 -0.4203 -0.0270
19139TIP3    H178908   2.876   1.455  13.714  0.4528 -0.4931  0.3387
19139TIP3    H278909   2.829   1.525  13.840 -0.2236 -0.3030 -0.0126
19140TIP3   OH278910   3.330   3.759   2.620 -0.1412 -0.3313  0.3788
19140TIP3    H178911   3.337   3.728   2.529 -2.5443 -0.9580  0.3411
19140TIP3    H278912   3.301   3.682   2.669  0.1630  0.2604  1.5316
19141TIP3   OH278913   6.491   6.003   2.734 -0.4965 -0.5846  0.2605
19141TIP3    H178914   6.500   5.941   2.661 -2.5716 -0.3761 -0.2570
19141TIP3    H278915   6.580   6.033   2.752  0.1798 -1.3312 -1.5873
19142TIP3   OH278916   3.840   3.893  16.753  0.2657  0.5301  0.1690
19142TIP3    H178917   3.761   3.899  16.807 -0.0459 -1.0497 -0.0922
19142TIP3    H278918   3.912   3.914  16.814 -0.2137  0.4080  0.7826
19143TIP3   OH278919   6.512   4.298  15.154 -0.5380  0.0302  0.1028
19143TIP3    H178920   6.456   4.304  15.231 -0.2497 -0.6212  0.3718
19143TIP3    H278921   6.515   4.387  15.120 -0.1531  0.4659  1.2139
19144TIP3   OH278922   0.737   4.080  14.791  0.3692 -0.5385  0.3370
19144TIP3    H178923   0.735   4.047  14.881  1.9254 -1.3254  0.1241
19144TIP3    H278924   0.761   4.004  14.738 -1.5362 -0.3409 -0.9076
19145TIP3   OH278925   4.258   4.433  11.542  0.8300  0.7167  0.1125
19145TIP3    H178926   4.308   4.459  11.620 -1.1798  0.3945  1.5894
19145TIP3    H278927   4.325   4.403  11.480  2.4997  0.6927  1.8165
19146TIP3   OH278928   5.092   1.880   5.622  0.4696  0.1597 -0.2370
19146TIP3    H178929   5.071   1.967   5.586  0.2653  0.1300 -0.1900
19146TIP3    H278930   5.110   1.896   5.715  0.8826  0.2193 -0.3268
19147TIP3   OH278931   0.319   2.282   2.339 -0.3050 -0.0529 -0.1431
19147TIP3    H178932   0.374   2.231   2.279  1.2387  2.2007 -0.7765
19147TIP3    H278933   0.231   2.276   2.301  0.3270 -0.0728 -1.6917
19148TIP3   OH278934   2.265   2.058  13.714  0.1577 -0.6502 -0.5249
19148TIP3    H178935   2.354   2.070  13.680 -0.4284  0.8545 -1.6574
19148TIP3    H278936   2.220   2.006  13.647 -0.0903 -0.5257 -0.4585
19149TIP3   OH278937   3.504   1.679  15.685  0.1300 -1.0013  0.3472
19149TIP3    H178938   3.547   1.674  15.771  0.8329  0.1229  0.0695
19149TIP3    H278939   3.572   1.657  15.622 -0.1461 -0.8897  0.0078
19150TIP3   OH278940   4.461   5.419  16.553  0.4258  0.3083  0.0101
19150TIP3    H178941   4.543   5.468  16.553  0.3234  0.5228  1.4604
19150TIP3    H278942   4.421   5.440  16.638 -1.4595  0.7582 -0.9462
19151TIP3   OH278943   1.065   1.777  15.847  0.3012 -0.2165 -0.3545
19151TIP3    H178944   1.126   1.842  15.881 -0.4366  0.3896 -0.1825
19151TIP3    H278945   0.978   1.811  15.867 -0.1645 -0.0261 -2.4909
19152TIP3   OH278946   3.433   1.263   1.306  0.5784  0.5408 -0.2470
19152TIP3    H178947   3.527   1.253   1.322  0.5889  1.6403  0.5289
19152TIP3    H278948   3.398   1.175   1.315  1.5665  0.0773 -0.7829
19153TIP3   OH278949   0.389   2.606  14.847 -0.2514 -0.6461  0.2683
19153TIP3    H178950   0.350   2.544  14.909 -0.8476 -0.9254 -0.3685
19153TIP3    H278951   0.314   2.656  14.815  0.2991  0.9920  1.3819
19154TIP3   OH278952   3.854   2.152  14.106 -0.0892 -0.3963  0.5006
19154TIP3    H178953   3.810   2.141  14.190 -0.5553  0.3569  0.3684
19154TIP3    H278954   3.947   2.142  14.126 -0.0156  1.7579  1.4972
19155TIP3   OH278955   0.870   0.904  13.174  0.0085 -0.0725  0.5052
19155TIP3    H178956   0.865   0.865  13.087 -1.2154  1.7069 -0.2934
19155TIP3    H278957   0.782   0.892  13.211  0.0403  0.6219  0.8241
19156TIP3   OH278958   2.901   0.398  12.135 -0.5563  0.2643 -0.4467
19156TIP3    H178959   2.940   0.459  12.072 -1.6801  1.2772 -0.2026
19156TIP3    H278960   2.809   0.391  12.108 -1.1460  0.9599  1.2301
19157TIP3   OH278961   2.607   0.730   3.068 -0.5714 -0.4100 -0.1402
19157TIP3    H178962   2.678   0.770   3.118 -1.1140 -0.3401  0.5930
19157TIP3    H278963   2.646   0.707   2.984  0.4088 -0.6905  0.3833
19158TIP3   OH278964   2.134   4.333   3.614 -0.1692 -0.2342  0.0007
19158TIP3    H178965   2.149   4.361   3.704  2.1157 -1.0366 -0.0676
19158TIP3    H278966   2.086   4.406   3.574 -1.3832  0.0575  1.8692
19159TIP3   OH278967   1.850   3.248  14.528 -1.2073 -0.1860 -0.3715
19159TIP3    H178968   1.811   3.322  14.575  0.3437  1.3281 -1.4143
19159TIP3    H278969   1.881   3.284  14.446  0.6993 -1.7314 -0.3976
19160TIP3   OH278970   2.987   0.638   4.625  0.1401  0.1535 -0.4158
19160TIP3    H178971   3.017   0.601   4.542  0.7959 -2.6256  0.9246
19160TIP3    H278972   2.902   0.597   4.640  0.6433 -0.4994  0.8729
19161TIP3   OH278973   4.626   5.458   0.927  0.0303  0.8212  0.6460
19161TIP3    H178974   4.697   5.507   0.969  0.0690  0.9479  0.4367
19161TIP3    H278975   4.575   5.422   1.000  0.2533  0.8100  0.7971
19162TIP3   OH278976   0.971   5.736  14.342  0.2239 -0.2656 -0.9116
19162TIP3    H178977   0.955   5.644  14.363  1.9389 -0.4309 -0.0981
19162TIP3    H278978   0.981   5.779  14.427  1.3832  0.2581 -1.2835
19163TIP3   OH278979   1.693   3.783  16.242  0.7293 -0.0651  0.2619
19163TIP3    H178980   1.668   3.875  16.245  1.7452  0.2065  1.1415
19163TIP3    H278981   1.754   3.776  16.169 -0.6941 -0.4302 -0.9436
19164TIP3   OH278982   5.807   2.584  14.084  0.1405  0.3630 -0.3637
19164TIP3    H178983   5.892   2.541  14.075  0.8438  1.6692 -0.1412
19164TIP3    H278984   5.763   2.567  14.000 -0.5433 -2.6352  0.4653
19165TIP3   OH278985   5.527   2.397   3.274 -0.0378  0.3152 -0.2283
19165TIP3    H178986   5.526   2.319   3.219 -0.4121  0.8435 -0.9922
19165TIP3    H278987   5.479   2.463   3.223 -0.1135  0.9141  0.5923
19166TIP3   OH278988   5.652   5.577   0.991 -0.2225  0.1682  0.5063
19166TIP3    H178989   5.732   5.624   0.966 -0.9289  0.8053 -0.6776
19166TIP3    H278990   5.606   5.565   0.908 -1.2831 -0.3128  1.1564
19167TIP3   OH278991   5.531   1.280  13.297  0.0236  0.9002 -0.2527
19167TIP3    H178992   5.552   1.249  13.209 -0.3368 -0.6291  0.1740
19167TIP3    H278993   5.436   1.285  13.299  0.0626  2.3777 -0.3851
19168TIP3   OH278994   2.134   3.827   1.448 -0.3318 -0.1181  0.2536
19168TIP3    H178995   2.192   3.752   1.443 -0.2639 -0.1086  0.8586
19168TIP3    H278996   2.052   3.793   1.484 -1.2794 -0.4542 -2.0296
19169TIP3   OH278997   3.435   0.878  12.556  0.3209 -0.7654  0.0510
19169TIP3    H178998   3.364   0.816  12.573  1.2844 -1.8718  0.1884
19169TIP3    H278999   3.414   0.954  12.609 -1.8329 -0.1980 -1.4651
19170TIP3   OH279000   4.142   5.653   1.242  0.1468 -0.6688  0.0871
19170TIP3    H179001   4.115   5.576   1.291 -1.0560 -0.2010  0.2119
19170TIP3    H279002   4.184   5.618   1.163  1.3348 -1.4218  1.0339
19171TIP3   OH279003   0.216   4.610  15.803  0.3829  0.6985  0.2465
19171TIP3    H179004   0.200   4.623  15.710  0.4883 -2.3986 -0.3335
19171TIP3    H279005   0.263   4.527  15.808  0.3804  0.7469  3.0742
19172TIP3   OH279006   2.658   5.258  12.081 -0.0380 -0.8468  0.2821
19172TIP3    H179007   2.591   5.318  12.115 -0.5564 -0.7244 -0.9191
19172TIP3    H279008   2.631   5.239  11.991  2.1058  0.0811 -0.6406
19173TIP3   OH279009   2.135   1.076  14.717 -0.1616 -0.3725 -0.1339
19173TIP3    H179010   2.040   1.070  14.727 -0.0996  0.4298  1.1153
19173TIP3    H279011   2.148   1.109  14.628 -1.0755  0.2641 -0.0339
19174TIP3   OH279012   6.011   2.017   3.800 -0.1392 -0.0901 -0.0252
19174TIP3    H179013   5.999   2.039   3.708  0.3836  0.6610  0.0785
19174TIP3    H279014   6.022   1.922   3.800  0.3723 -0.0435 -0.8041
19175TIP3   OH279015   2.893   5.068   1.874  0.0823  0.0840 -0.4230
19175TIP3    H179016   2.924   5.009   1.805  0.9098 -0.2426  0.2176
19175TIP3    H279017   2.908   5.020   1.955 -0.5710  0.6049  0.0121
19176TIP3   OH279018   0.232   3.841   4.126 -0.3156  0.1097 -0.4532
19176TIP3    H179019   0.154   3.819   4.076  0.3917 -2.2706 -0.6855
19176TIP3    H279020   0.301   3.788   4.086  1.1573  1.2156  0.5149
19177TIP3   OH279021   2.313   3.634  13.827 -0.2508 -0.1184 -0.0079
19177TIP3    H179022   2.371   3.594  13.891  0.2912  0.6541  0.0010
19177TIP3    H279023   2.371   3.660  13.755 -0.8202 -0.7942 -0.7325
19178TIP3   OH279024   2.998   5.567  16.394 -0.6670 -0.1636 -0.6710
19178TIP3    H179025   3.032   5.481  16.371 -1.0900 -0.7987  0.9711
19178TIP3    H279026   2.941   5.552  16.469  0.5462  1.7507  0.7394
19179TIP3   OH279027   1.058   3.276   1.506  0.1896 -0.2199 -0.5379
19179TIP3    H179028   1.014   3.198   1.539  0.5612  1.2220  4.1010
19179TIP3    H279029   1.150   3.252   1.503  0.5414  0.2814  2.5390
19180TIP3   OH279030   0.624   3.415  16.195  0.1272  0.4193 -0.4848
19180TIP3    H179031   0.540   3.459  16.207 -0.1526 -0.3027  0.3028
19180TIP3    H279032   0.658   3.404  16.283 -1.5707 -4.2540 -0.1131
19181TIP3   OH279033   0.362   1.389   5.753 -0.2499 -0.0564 -0.3375
19181TIP3    H179034   0.420   1.379   5.678 -0.2141 -0.7584 -0.2176
19181TIP3    H279035   0.275   1.402   5.715 -0.0009  1.1995 -0.5199
19182TIP3   OH279036   3.878   0.658   4.005 -0.0989 -0.4926  0.9773
19182TIP3    H179037   3.948   0.622   3.950 -1.3925 -1.7832  0.0721
19182TIP3    H279038   3.915   0.736   4.044  1.2417 -0.0941 -0.9409
19183TIP3   OH279039   6.179   2.567  13.947 -0.0260 -0.1411  0.0829
19183TIP3    H179040   6.239   2.590  13.876  0.7535 -1.9629  0.1160
19183TIP3    H279041   6.178   2.645  14.003  1.2564  0.4218 -0.6374
19184TIP3   OH279042   0.422   3.395   6.110 -0.0418  0.6360 -0.5483
19184TIP3    H179043   0.339   3.437   6.132  0.5687  1.0511  1.1275
19184TIP3    H279044   0.481   3.467   6.090 -0.5781  0.2769 -3.8827
19185TIP3   OH279045   3.301   5.410  16.130 -0.4754  0.0543 -0.7093
19185TIP3    H179046   3.389   5.429  16.098 -0.7862  2.3565 -0.3899
19185TIP3    H279047   3.313   5.341  16.195  1.6499  2.4903  1.7559
19186TIP3   OH279048   6.335   5.657  15.381 -0.0510 -0.6756 -0.5835
19186TIP3    H179049   6.264   5.720  15.395  0.4988  0.2838 -1.9114
19186TIP3    H279050   6.303   5.598  15.314  0.3712 -0.2485 -1.1779
19187TIP3   OH279051   5.226   1.359   1.738 -0.1743  0.2953 -0.6955
19187TIP3    H179052   5.253   1.427   1.800  0.2746  0.7044 -1.3188
19187TIP3    H279053   5.219   1.279   1.790 -0.9379  0.8618  0.0986
19188TIP3   OH279054   2.325   2.748  16.473 -0.2464  0.6945 -0.4816
19188TIP3    H179055   2.342   2.788  16.388  3.8975  0.3618 -0.0173
19188TIP3    H279056   2.368   2.806  16.536 -0.0076 -0.9432  0.9459
19189TIP3   OH279057   1.079   4.550  17.003 -0.2521 -0.4241  0.4567
19189TIP3    H179058   0.990   4.582  17.019 -0.2262  0.6147 -1.1559
19189TIP3    H279059   1.134   4.628  17.010  0.0172 -0.2953 -2.1013
19190TIP3   OH279060   2.030   4.603  16.145  0.0686 -0.5774 -0.0416
19190TIP3    H179061   2.126   4.608  16.143  0.1198  3.4244  2.1830
19190TIP3    H279062   2.010   4.566  16.231 -0.2531  1.1897  0.6936
19191TIP3   OH279063   2.371   1.686   3.533  0.5297 -0.0005  0.4977
19191TIP3    H179064   2.430   1.649   3.599 -1.4595 -2.4200  1.0807
19191TIP3    H279065   2.303   1.731   3.584 -0.6558 -1.3048  0.1319
19192TIP3   OH279066   1.641   4.131  15.480 -0.0207  0.0160  0.0662
19192TIP3    H179067   1.574   4.079  15.523 -0.7105 -0.5080 -1.5841
19192TIP3    H279068   1.605   4.152  15.393  1.1330  1.4022 -0.1326
19193TIP3   OH279069   0.212   6.829  11.326  0.0622 -0.1256 -0.2023
19193TIP3    H179070   0.162   6.832  11.244  0.2960 -2.7305 -0.5079
19193TIP3    H279071   0.249   6.741  11.329  2.1237  0.7003  1.5258
19194TIP3   OH279072   5.245   5.947  15.108 -0.0141 -0.3916  0.2637
19194TIP3    H179073   5.322   5.993  15.074  1.6489 -1.4921  2.3609
19194TIP3    H279074   5.269   5.920  15.196 -2.9414 -0.5219  1.1424
19195TIP3   OH279075   2.257   1.109  15.751  0.5893 -0.8425  0.1283
19195TIP3    H179076   2.227   1.053  15.679  1.5834  0.8911 -1.7376
19195TIP3    H279077   2.351   1.092  15.757  1.0302  0.9526 -0.8796
19196TIP3   OH279078   2.426   2.381  12.711  0.3764  0.0747  0.1780
19196TIP3    H179079   2.336   2.375  12.743  0.6643 -0.6711  0.8645
19196TIP3    H279080   2.440   2.475  12.699 -0.3271  0.2334  0.5397
19197TIP3   OH279081   4.995   3.592  10.843 -0.3156  0.3437 -0.5234
19197TIP3    H179082   4.989   3.593  10.939 -0.3350  0.8663 -0.5281
19197TIP3    H279083   4.920   3.540  10.815  0.7268 -1.4392 -0.1825
19198TIP3   OH279084   0.560   6.531   1.653  0.3028 -0.3938  0.4330
19198TIP3    H179085   0.510   6.542   1.572  0.0123  0.3277  0.7092
19198TIP3    H279086   0.575   6.436   1.659  0.2933 -0.4556 -0.4427
19199TIP3   OH279087   4.912   4.930  11.888  0.5704 -0.2021  0.7853
19199TIP3    H179088   4.904   4.835  11.893 -1.2877 -0.0600  1.0001
19199TIP3    H279089   4.872   4.962  11.968  2.2404  0.7459  1.2769
19200TIP3   OH279090   5.487   2.624   2.148 -0.3473 -0.3271  0.6343
19200TIP3    H179091   5.504   2.633   2.054  1.4172 -0.1927  0.9496
19200TIP3    H279092   5.457   2.711   2.175  2.7158  0.7534  0.8619
19201TIP3   OH279093   5.273   5.926  15.365  0.3354  0.3262 -0.2216
19201TIP3    H179094   5.351   5.886  15.405  1.6525  1.3692 -1.6275
19201TIP3    H279095   5.201   5.897  15.421  1.4092 -2.4511 -0.0905
19202TIP3   OH279096   5.107   2.942  12.801  0.8082  0.4815  0.8356
19202TIP3    H179097   5.145   3.029  12.788  2.3725 -0.2271  0.3444
19202TIP3    H279098   5.020   2.948  12.761  1.2054  1.5861  0.0630
19203TIP3   OH279099   4.795   2.114   3.353  0.2627 -0.4449  0.9469
19203TIP3    H179100   4.781   2.021   3.334  0.1329 -0.3663  0.6511
19203TIP3    H279101   4.783   2.122   3.447 -1.4389 -0.4218  0.7598
19204TIP3   OH279102   6.701   0.832  10.064  0.1706 -0.5403 -1.3567
19204TIP3    H179103   6.660   0.788   9.989 -1.0338 -0.7142 -0.6284
19204TIP3    H279104   6.638   0.820  10.135  1.4673 -0.7236 -0.2080
19205TIP3   OH279105   3.909   1.949   2.410  0.0476 -0.3617 -0.5627
19205TIP3    H179106   3.843   1.891   2.373  0.1719  0.4072 -2.0479
19205TIP3    H279107   3.867   2.035   2.413  0.0700 -0.3644  1.0685
19206TIP3   OH279108   0.226   3.587  11.829  0.6104 -0.1879  0.1719
19206TIP3    H179109   0.165   3.523  11.791  0.0086 -0.4843  1.5755
19206TIP3    H279110   0.230   3.657  11.765  1.4494 -1.7022 -1.5203
19207TIP3   OH279111   3.639   1.272  12.462  0.0047 -0.2756 -0.0577
19207TIP3    H179112   3.720   1.233  12.428 -0.2397  0.0788 -1.0966
19207TIP3    H279113   3.572   1.206  12.446  0.1194 -0.6919  1.0776
19208TIP3   OH279114   2.958   0.276  15.186 -0.2093  0.3560  0.9175
19208TIP3    H179115   2.929   0.319  15.267 -1.5326 -0.0938  0.7097
19208TIP3    H279116   2.903   0.315  15.118 -0.3235 -0.5123  0.4977
19209TIP3   OH279117   0.247   3.543   3.307  0.0389 -0.1880 -0.7100
19209TIP3    H179118   0.336   3.510   3.313 -0.0995 -0.3212  0.8515
19209TIP3    H279119   0.198   3.493   3.372 -0.9892  0.4619 -0.9628
19210TIP3   OH279120   5.346   2.382   1.558  0.7736 -0.1532  0.4986
19210TIP3    H179121   5.401   2.368   1.481  1.0127  0.1175  0.6173
19210TIP3    H279122   5.296   2.301   1.567  1.3689 -0.5243  0.5530
19211TIP3   OH279123   2.046   2.263   1.845  0.0402 -0.0616 -0.4598
19211TIP3    H179124   2.088   2.187   1.885 -2.1893 -0.3763  1.5460
19211TIP3    H279125   2.075   2.338   1.898 -1.7665 -0.2889  0.9780
19212TIP3   OH279126   2.882   1.142  12.976  0.3904  0.2459  0.0291
19212TIP3    H179127   2.842   1.060  12.947  0.7505  0.3178 -0.6942
19212TIP3    H279128   2.927   1.176  12.898 -1.2995  2.0639 -0.2377
19213TIP3   OH279129   0.929   5.966  16.952 -0.3316  0.1099 -0.0411
19213TIP3    H179130   0.967   5.887  16.990 -1.8808  0.4696  2.4659
19213TIP3    H279131   1.004   6.015  16.917  0.8302 -1.6655 -0.1338
19214TIP3   OH279132   5.253   3.295  11.560  0.9419 -0.3090 -0.3835
19214TIP3    H179133   5.260   3.388  11.543 -0.0845 -0.2215 -0.4082
19214TIP3    H279134   5.342   3.268  11.585  0.7581  1.2251  2.3856
19215TIP3   OH279135   2.849   2.430  10.591  0.4074 -0.1501 -0.2754
19215TIP3    H179136   2.933   2.441  10.636 -0.5963  0.9972  1.4342
19215TIP3    H279137   2.823   2.519  10.566 -0.8780 -0.3079  0.3870
19216TIP3   OH279138   4.348   4.342  12.332 -0.1334 -0.4628  0.1192
19216TIP3    H179139   4.366   4.430  12.298  0.5295 -0.2838  0.9060
19216TIP3    H279140   4.256   4.326  12.308 -1.0186  1.4097  1.9691
19217TIP3   OH279141   5.134   4.018  10.979 -0.2925 -0.7391 -0.0977
19217TIP3    H179142   5.122   4.081  10.907 -0.6476 -0.0230  0.5766
19217TIP3    H279143   5.185   3.947  10.940  1.8753  0.8785 -0.4075
19218TIP3   OH279144   6.674   5.357   1.332  0.0175  0.0223 -0.8255
19218TIP3    H179145   6.599   5.380   1.385 -0.0998 -0.5616 -0.7359
19218TIP3    H279146   6.692   5.436   1.280  0.1309  0.5873  0.0617
19219TIP3   OH279147   2.475   4.842   5.703 -0.3321  0.2028  0.2285
19219TIP3    H179148   2.548   4.866   5.761 -0.5880  0.1369  0.5789
19219TIP3    H279149   2.500   4.756   5.668 -0.6619 -0.2508  1.0657
19220TIP3   OH279150   2.663   3.496  12.200 -0.1658 -0.1009  0.4710
19220TIP3    H179151   2.656   3.488  12.105  0.6835 -0.9150  0.4591
19220TIP3    H279152   2.644   3.408  12.233 -0.1773  0.1075  1.0350
19221TIP3   OH279153   0.949   4.244  10.723  0.0128  0.2524 -0.9409
19221TIP3    H179154   0.881   4.189  10.684  0.9892 -0.6670 -1.3841
19221TIP3    H279155   0.973   4.305  10.654  0.7373 -0.4473 -1.3142
19222TIP3   OH279156   4.118   0.014   4.871  0.0676  0.2493 -0.7779
19222TIP3    H179157   4.076  -0.069   4.852  2.8858 -0.9300 -2.6319
19222TIP3    H279158   4.209  -0.009   4.890  0.1049  2.6007  2.8700
19223TIP3   OH279159   0.621   5.544  16.243  0.3070 -0.0292  0.5286
19223TIP3    H179160   0.621   5.533  16.338  0.1302  0.6411  0.6159
19223TIP3    H279161   0.708   5.518  16.215 -0.3067 -2.3561  0.5926
19224TIP3   OH279162   5.101   3.504  11.459  0.2698 -0.3007  0.3150
19224TIP3    H179163   5.051   3.500  11.377  0.7314 -0.3334  0.0299
19224TIP3    H279164   5.173   3.565  11.441  0.0476  0.1395  0.8824
19225TIP3   OH279165   2.226   2.871   3.152  0.5633 -0.0181  0.2687
19225TIP3    H179166   2.275   2.818   3.090  0.7428 -1.2779  1.4496
19225TIP3    H279167   2.215   2.955   3.108  1.2291 -0.6677 -1.1971
19226TIP3   OH279168   4.512   1.595   4.512  0.1127 -0.4774 -0.0024
19226TIP3    H179169   4.572   1.663   4.480 -1.1465  1.2528  1.0803
19226TIP3    H279170   4.500   1.617   4.605 -1.8262 -1.0194 -0.0843
19227TIP3   OH279171   1.865   4.515  12.946  0.4194  0.3200 -0.3734
19227TIP3    H179172   1.863   4.476  13.033  0.6120 -0.6158 -0.7824
19227TIP3    H279173   1.775   4.512  12.916  0.6791 -1.3361 -1.0599
19228TIP3   OH279174   5.992   6.841  15.846 -0.1444  0.3517 -0.5137
19228TIP3    H179175   5.956   6.928  15.864  1.1123  0.6418  0.7388
19228TIP3    H279176   6.085   6.857  15.831 -0.0729 -0.6757 -1.2524
19229TIP3   OH279177   1.291   0.995  11.346  0.2482  0.3379  0.0711
19229TIP3    H179178   1.263   0.905  11.325  1.9195 -0.3272  0.5098
19229TIP3    H279179   1.362   0.983  11.408  1.8317  1.8835 -1.3641
19230TIP3   OH279180   5.281   1.899  11.055 -0.0801  0.1134  0.4056
19230TIP3    H179181   5.339   1.899  11.131  2.0814  0.8962 -1.1583
19230TIP3    H279182   5.198   1.864  11.089  1.1471 -0.7164  2.8207
19231TIP3   OH279183   1.329   6.746   0.709  0.2143 -0.6542  0.2365
19231TIP3    H179184   1.420   6.775   0.700 -0.0139 -0.3555 -1.4067
19231TIP3    H279185   1.319   6.678   0.643 -0.9732 -0.0736 -0.2137
19232TIP3   OH279186   6.205   4.489   2.478 -0.2649 -0.6573 -0.0717
19232TIP3    H179187   6.263   4.418   2.506  0.7983 -0.5811 -1.9343
19232TIP3    H279188   6.117   4.453   2.488  0.2259 -1.9693 -0.2462
19233TIP3   OH279189   2.697   4.631  15.581 -0.0991  0.0075 -0.1037
19233TIP3    H179190   2.708   4.553  15.635 -0.5019  0.0424  0.0358
19233TIP3    H279191   2.709   4.600  15.491 -0.4876 -0.2645 -0.0640
19234TIP3   OH279192   2.273   6.785   5.069  0.0787  0.2929 -0.1743
19234TIP3    H179193   2.270   6.722   5.141  0.4580 -1.0800 -1.3350
19234TIP3    H279194   2.330   6.855   5.102  0.5390 -0.4798  0.7219
19235TIP3   OH279195   4.587   0.155   2.636  0.1350 -0.2323 -0.0914
19235TIP3    H179196   4.673   0.127   2.605  0.6415 -0.3516  1.3510
19235TIP3    H279197   4.592   0.250   2.637  0.1028 -0.2250 -0.3807
19236TIP3   OH279198   3.434   0.572  12.318  0.1692  0.6624  0.1595
19236TIP3    H179199   3.342   0.593  12.335 -0.0308 -0.0623 -0.0030
19236TIP3    H279200   3.450   0.607  12.230 -0.3395 -0.3723 -0.3690
19237TIP3   OH279201   1.970   1.874  13.779  0.1023  0.1234  0.1705
19237TIP3    H179202   2.033   1.885  13.707 -0.2497 -2.9355 -0.7522
19237TIP3    H279203   1.884   1.888  13.737 -0.0289  0.2008  0.4655
19238TIP3   OH279204   4.097   5.965  10.345 -0.0728 -0.2921  0.3382
19238TIP3    H179205   4.074   6.030  10.278 -0.6549 -0.3741  0.4548
19238TIP3    H279206   4.017   5.915  10.358  0.3370 -0.9524  0.3431
19239TIP3   OH279207   6.078   0.480  12.163  0.2497 -0.1579  0.2282
19239TIP3    H179208   6.086   0.540  12.237  0.8249  1.9443 -1.4111
19239TIP3    H279209   6.161   0.433  12.161 -0.4327 -1.5323  1.8908
19240TIP3   OH279210   5.727   4.667  12.563  0.0936  0.2572  0.1810
19240TIP3    H179211   5.723   4.710  12.649 -3.4048  2.8108 -1.0116
19240TIP3    H279212   5.779   4.726  12.509 -0.7610  0.5664 -0.3158
19241TIP3   OH279213   0.589   4.734  10.953  0.1634  0.0619 -0.1146
19241TIP3    H179214   0.683   4.739  10.938  0.3222  1.7552  1.1555
19241TIP3    H279215   0.554   4.813  10.911 -0.4975  0.1406  0.5605
19242TIP3   OH279216   4.973   6.383   0.533  0.3146 -0.4286  0.5301
19242TIP3    H179217   4.899   6.409   0.478  0.6960 -0.4356  0.0080
19242TIP3    H279218   4.933   6.353   0.614 -0.2096  0.4215  0.5997
19243TIP3   OH279219   1.689   0.905   5.074 -0.0352  0.2763  0.2738
19243TIP3    H179220   1.658   0.858   5.152  0.6489  0.8764  0.9127
19243TIP3    H279221   1.759   0.850   5.040 -0.5541 -0.1549 -0.1230
19244TIP3   OH279222   0.130   1.420  16.360  0.4502 -0.2032 -0.3119
19244TIP3    H179223   0.160   1.381  16.443  0.8112 -0.8621 -0.7385
19244TIP3    H279224   0.069   1.356  16.324 -2.8207  1.7669  1.2603
19245TIP3   OH279225   2.250   0.152  16.446  0.0083 -0.0011 -0.0389
19245TIP3    H179226   2.174   0.158  16.504  0.7166 -1.0817  1.0431
19245TIP3    H279227   2.284   0.064  16.460  0.8723  0.1052 -1.2782
19246TIP3   OH279228   3.812   2.848  17.071 -0.4398  0.3400  0.0140
19246TIP3    H179229   3.865   2.883  17.142 -0.3962 -1.4837  0.9346
19246TIP3    H279230   3.723   2.845  17.107 -0.7033  0.8734 -0.5737
19247TIP3   OH279231   6.695   1.414  13.131 -0.0744 -0.1340  0.3521
19247TIP3    H179232   6.646   1.397  13.212 -1.0036 -1.9064 -0.5130
19247TIP3    H279233   6.730   1.502  13.142 -1.3395  0.2056  2.1048
19248TIP3   OH279234   1.451   0.227  10.913 -0.1858 -0.1080 -0.0325
19248TIP3    H179235   1.520   0.293  10.901  1.1612 -1.5918 -0.8047
19248TIP3    H279236   1.403   0.257  10.990  1.9966  0.4310  1.1889
19249TIP3   OH279237   2.005   4.781  10.840 -0.8348 -0.2818  0.2341
19249TIP3    H179238   1.931   4.823  10.794  0.3689  2.7140  0.7562
19249TIP3    H279239   2.065   4.757  10.769 -1.1077 -0.1825 -0.0375
19250TIP3   OH279240   2.689   5.301  15.041  0.5808 -0.2950  0.2395
19250TIP3    H179241   2.729   5.379  15.080  1.3239 -0.0659 -0.9301
19250TIP3    H279242   2.703   5.232  15.106 -1.5311  0.8235  2.0532
19251TIP3   OH279243   0.146   1.050  12.578  0.0208 -0.4217 -0.1646
19251TIP3    H179244   0.084   1.122  12.563  0.2880 -0.1196  0.1332
19251TIP3    H279245   0.210   1.059  12.507 -0.2515 -0.7068 -0.4459
19252TIP3   OH279246   0.280   2.419  13.694  0.1366  0.0316  0.2922
19252TIP3    H179247   0.366   2.404  13.735 -0.2358 -0.4445  0.9085
19252TIP3    H279248   0.219   2.421  13.767 -0.3978  0.2670 -0.1572
19253TIP3   OH279249   4.952   0.506  12.960 -1.0032  0.4716 -0.0952
19253TIP3    H179250   4.956   0.466  12.873 -1.4371  0.8759 -0.3101
19253TIP3    H279251   4.873   0.561  12.957 -1.6454 -0.3603  0.9227
19254TIP3   OH279252   3.235   3.873   0.529 -0.1950  0.3267  0.3308
19254TIP3    H179253   3.153   3.920   0.512 -0.0741  0.9508  1.3617
19254TIP3    H279254   3.302   3.925   0.484 -0.4222 -0.5687 -1.1096
19255TIP3   OH279255   3.915   5.064   0.108 -0.4518 -1.0303 -0.3003
19255TIP3    H179256   3.894   5.154   0.134 -0.2315 -0.7413 -1.0770
19255TIP3    H279257   3.846   5.011   0.146 -0.0287 -0.6703  1.0449
19256TIP3   OH279258   1.620   5.472  16.307  0.2342  0.4096 -0.2231
19256TIP3    H179259   1.623   5.414  16.383  0.9103 -0.0002 -0.5546
19256TIP3    H279260   1.567   5.547  16.336 -1.0076 -0.5536  0.0877
19257TIP3   OH279261   0.536   3.247   3.410  0.3058  0.6745  0.0080
19257TIP3    H179262   0.624   3.213   3.392  0.2595  1.7183 -2.5248
19257TIP3    H279263   0.482   3.214   3.338 -0.8489  1.9840  0.2340
19258TIP3   OH279264   0.219   1.880  11.404  0.0758  0.7741 -0.1501
19258TIP3    H179265   0.298   1.924  11.434 -0.9100  2.6792 -0.1940
19258TIP3    H279266   0.239   1.852  11.315  0.0516  3.1881 -0.9935
19259TIP3   OH279267   6.099   5.388   1.719 -0.0681 -0.3792  0.7473
19259TIP3    H179268   6.148   5.470   1.723 -0.8768  0.1936 -0.4465
19259TIP3    H279269   6.165   5.322   1.696  0.2405  0.3016 -0.4021
19260TIP3   OH279270   0.465   6.358   6.053  0.1088 -0.4647  0.6687
19260TIP3    H179271   0.539   6.335   6.109 -0.3374 -2.0466  0.6511
19260TIP3    H279272   0.505   6.407   5.980  1.2392 -1.7732  0.3724
19261TIP3   OH279273   3.939   6.304   4.347  0.3971  0.6100  0.0090
19261TIP3    H179274   3.961   6.314   4.255  0.7613  3.0827  0.2977
19261TIP3    H279275   3.847   6.276   4.347  0.5553  0.0570 -1.1052
19262TIP3   OH279276   0.679   5.514  14.584 -0.2393  0.1880 -0.3711
19262TIP3    H179277   0.623   5.471  14.648 -0.2233  0.7235  0.0162
19262TIP3    H279278   0.678   5.607  14.611  0.5259  0.2613 -0.5789
19263TIP3   OH279279   0.148   5.304  12.444 -0.3591 -0.2998  0.2849
19263TIP3    H179280   0.109   5.221  12.417 -0.8859  0.1293 -0.3147
19263TIP3    H279281   0.209   5.280  12.513 -0.3715 -1.2067  0.0008
19264TIP3   OH279282   5.377   3.438  13.772 -0.1034 -0.3471 -0.0676
19264TIP3    H179283   5.434   3.379  13.821 -0.0926 -0.2267  0.0674
19264TIP3    H279284   5.291   3.397  13.775 -0.1852 -0.1556  0.3806
19265TIP3   OH279285   2.761   1.319  17.101  0.5331 -0.5618 -0.4383
19265TIP3    H179286   2.742   1.408  17.131 -0.7599 -0.6321 -0.9519
19265TIP3    H279287   2.852   1.322  17.073  0.6371  0.4843 -0.0416
19266TIP3   OH279288   6.217   3.764   5.466 -0.8662  0.4869  0.3041
19266TIP3    H179289   6.214   3.751   5.561 -0.0066  1.0528  0.4188
19266TIP3    H279290   6.199   3.857   5.453 -1.0920  0.3918 -0.1046
19267TIP3   OH279291   3.063   1.255  14.038 -0.0519  0.3624 -0.6016
19267TIP3    H179292   3.009   1.308  14.097 -1.1991  0.3083 -1.5559
19267TIP3    H279293   3.003   1.189  14.004  1.3541 -1.6378  0.5829
19268TIP3   OH279294   1.280   6.109   2.767  0.3176 -0.1080  0.0247
19268TIP3    H179295   1.191   6.145   2.762  0.9838  1.4688 -1.4489
19268TIP3    H279296   1.276   6.029   2.715  0.0907  0.7746 -1.3742
19269TIP3   OH279297   6.537   2.373  16.336  0.3481  0.2710 -0.0929
19269TIP3    H179298   6.472   2.340  16.398  1.4884  0.1275  1.0752
19269TIP3    H279299   6.500   2.455  16.303 -0.5757  0.0095  0.2696
19270TIP3   OH279300   5.559   1.882   2.487  0.0997 -0.0803 -0.2686
19270TIP3    H179301   5.587   1.798   2.450 -0.2463 -0.4187  0.2123
19270TIP3    H279302   5.552   1.941   2.412  0.6456 -0.3954 -0.5719
19271TIP3   OH279303   5.356   1.345  11.752  0.1172  0.4861  0.2792
19271TIP3    H179304   5.322   1.259  11.777 -2.1420  1.4429  0.7797
19271TIP3    H279305   5.331   1.402  11.824  1.9725  1.5164  0.1571
19272TIP3   OH279306   2.196   4.012   6.313  0.5750  0.4424  0.3198
19272TIP3    H179307   2.270   4.046   6.363  0.1115 -0.3537  1.6153
19272TIP3    H279308   2.129   4.080   6.320 -0.7407 -0.9560  3.8072
19273TIP3   OH279309   2.532   3.414   2.747  0.0969  0.1237  0.6581
19273TIP3    H179310   2.494   3.407   2.835 -1.3334  2.2299  0.2592
19273TIP3    H279311   2.473   3.471   2.699  1.0223 -0.7106 -1.6263
19274TIP3   OH279312   3.332   4.022  16.845  0.0623 -0.2780  0.3291
19274TIP3    H179313   3.260   3.965  16.818 -1.7255  2.2422 -0.5890
19274TIP3    H279314   3.313   4.042  16.937 -0.8743  0.9113 -0.0895
19275TIP3   OH279315   2.024   0.179   0.245  0.1950 -0.2881  0.8563
19275TIP3    H179316   1.958   0.179   0.176  2.2669  1.6157 -1.2733
19275TIP3    H279317   1.995   0.110   0.305 -3.4072  0.1064 -0.1908
19276TIP3   OH279318   6.113   5.907   0.475  0.0783  0.4583  0.2398
19276TIP3    H179319   6.147   5.838   0.533 -1.3790  0.3737  1.0411
19276TIP3    H279320   6.133   5.876   0.387  0.0666 -0.6559  0.6137
19277TIP3   OH279321   1.649   5.586   4.033  0.2422  0.9791 -0.3559
19277TIP3    H179322   1.631   5.680   4.046  0.3997  0.8183  1.2613
19277TIP3    H279323   1.718   5.567   4.096 -0.1634 -0.3498 -0.2933
19278TIP3   OH279324   6.076   6.022   5.496 -0.7000  0.2103  0.1042
19278TIP3    H179325   5.990   5.983   5.478 -0.4936  0.0854 -0.6405
19278TIP3    H279326   6.065   6.115   5.474 -0.8028  0.3101  0.5629
19279TIP3   OH279327   3.325   1.606   4.795 -0.4501  0.9474  0.0486
19279TIP3    H179328   3.230   1.594   4.795 -0.3017 -1.2731  3.1924
19279TIP3    H279329   3.360   1.525   4.759  0.3559  2.1527 -2.1166
19280TIP3   OH279330   0.155   1.702  14.987 -0.3396 -0.2411 -0.1608
19280TIP3    H179331   0.238   1.671  14.949  0.0863  2.1042 -1.3143
19280TIP3    H279332   0.110   1.744  14.914 -1.1756  1.1956  1.1283
19281TIP3   OH279333   1.583   6.424   2.023  0.5098  0.2598  0.7053
19281TIP3    H179334   1.665   6.415   1.976  0.6306  1.2252  0.6995
19281TIP3    H279335   1.538   6.496   1.979 -0.9915 -1.1928 -0.1965
19282TIP3   OH279336   5.585   0.245  14.799 -0.1996 -0.0065  0.2659
19282TIP3    H179337   5.549   0.270  14.714  2.4875  1.3571 -0.5713
19282TIP3    H279338   5.676   0.223  14.781  0.4973  0.5004  2.8134
19283TIP3   OH279339   3.062   5.800  14.475 -0.6962  0.3398 -0.1293
19283TIP3    H179340   3.003   5.838  14.540  1.5215  2.0224  1.0717
19283TIP3    H279341   3.039   5.843  14.393 -0.0208  2.3795  0.6878
19284TIP3   OH279342   4.924   4.306   0.789 -0.0950 -0.1999 -0.5956
19284TIP3    H179343   4.895   4.242   0.854  0.3965  0.4569  0.2953
19284TIP3    H279344   4.847   4.360   0.772 -0.3761 -0.7132 -0.9795
19285TIP3   OH279345   0.745   3.467   2.674  0.2038 -0.0818  0.2120
19285TIP3    H179346   0.662   3.485   2.629  0.2723  1.4202  0.6426
19285TIP3    H279347   0.730   3.382   2.717 -1.2782  0.3520  0.6230
19286TIP3   OH279348   1.403   4.504  15.333  0.1969 -0.1172 -0.1946
19286TIP3    H179349   1.356   4.451  15.269 -3.6358  0.7461  1.5770
19286TIP3    H279350   1.380   4.466  15.418 -0.0452  2.3558  0.9662
19287TIP3   OH279351   1.876   0.698   1.181  0.8913 -0.3975 -0.0922
19287TIP3    H179352   1.940   0.726   1.247  2.0910 -0.1644 -1.3228
19287TIP3    H279353   1.904   0.609   1.157 -0.2735 -0.9754  0.5580
19288TIP3   OH279354   3.561   4.637  14.514  0.2282 -0.1094 -0.3517
19288TIP3    H179355   3.561   4.566  14.578  1.7840 -0.1202 -0.3361
19288TIP3    H279356   3.487   4.618  14.456 -0.8853 -0.3891  1.1035
19289TIP3   OH279357   6.210   5.720   0.645 -0.0378 -0.0437 -0.0764
19289TIP3    H179358   6.274   5.786   0.671 -0.0885  0.8612 -2.0963
19289TIP3    H279359   6.253   5.636   0.664  1.2375  0.5527 -0.2339
19290TIP3   OH279360   2.630   2.944   2.473  0.7743  0.4581  0.5346
19290TIP3    H179361   2.620   3.034   2.503 -1.8473  1.4437 -2.6918
19290TIP3    H279362   2.560   2.895   2.518  1.6847  0.1562  1.6674
19291TIP3   OH279363   4.325   2.282  13.228 -0.5719  0.2349  0.2137
19291TIP3    H179364   4.344   2.317  13.315  0.7058 -0.3025  0.1662
19291TIP3    H279365   4.385   2.329  13.170  0.7267 -1.5214  0.0580
19292TIP3   OH279366   2.046   6.597   5.190  0.3466 -0.3813  0.2849
19292TIP3    H179367   2.041   6.692   5.196 -2.2092 -0.4522  0.2908
19292TIP3    H279368   2.012   6.577   5.102 -0.4934 -1.3281  0.7996
19293TIP3   OH279369   0.893   6.550   2.696  0.1102 -0.0577 -0.3133
19293TIP3    H179370   0.887   6.456   2.682  1.5783 -0.1929 -0.2448
19293TIP3    H279371   0.948   6.559   2.774 -1.8749  0.8287  1.0778
19294TIP3   OH279372   5.331   6.393   3.782  0.2722 -0.4492  0.0911
19294TIP3    H179373   5.331   6.377   3.877 -2.2945 -1.3277  0.0118
19294TIP3    H279374   5.338   6.488   3.773 -1.5208 -0.1561  1.2814
19295TIP3   OH279375   4.999   0.838  16.245  0.9539  0.1709 -0.4849
19295TIP3    H179376   5.011   0.792  16.328  0.6449  0.6594 -0.1665
19295TIP3    H279377   4.904   0.837  16.231  0.9188  1.0019 -0.3108
19296TIP3   OH279378   0.074   4.142   4.734  0.3033 -0.0975 -0.2450
19296TIP3    H179379   0.061   4.235   4.748 -1.8726 -0.5583  1.2020
19296TIP3    H279380   0.107   4.109   4.818  0.1731 -0.7785 -0.4503
19297TIP3   OH279381   5.957   5.449   0.490  0.9097  0.1153 -0.5909
19297TIP3    H179382   5.946   5.428   0.582  0.6859 -0.1626 -0.6784
19297TIP3    H279383   5.874   5.489   0.464  1.3302  1.1237 -0.4270
19298TIP3   OH279384   1.155   6.590   4.890 -0.3972 -0.5304  0.0093
19298TIP3    H179385   1.189   6.617   4.975  0.9822 -0.9524 -0.3717
19298TIP3    H279386   1.198   6.506   4.873 -0.3160 -0.2531 -1.2817
19299TIP3   OH279387   5.484   1.205  15.074  0.1622  0.0790  0.0550
19299TIP3    H179388   5.453   1.224  14.986  1.0343  0.8090 -0.1003
19299TIP3    H279389   5.503   1.111  15.073 -1.2880 -0.2274 -0.0660
19300TIP3   OH279390   5.794   0.855  12.737 -0.1507  0.3087  0.4217
19300TIP3    H179391   5.870   0.831  12.789  0.1949  0.2003 -0.1242
19300TIP3    H279392   5.739   0.906  12.796  1.0434  1.6696  0.4131
19301TIP3   OH279393   3.678   0.151  13.753  0.5421  0.3565  0.1869
19301TIP3    H179394   3.761   0.130  13.796 -0.6044 -0.4755  2.1385
19301TIP3    H279395   3.622   0.184  13.823 -1.2296 -0.4315 -0.7824
19302TIP3   OH279396   3.671   1.731  12.969  0.0071  0.4184 -0.2616
19302TIP3    H179397   3.735   1.660  12.977 -1.3322 -0.8369 -0.3308
19302TIP3    H279398   3.603   1.696  12.912 -1.0886  1.4496  0.3551
19303TIP3   OH279399   4.380   5.322   4.586  0.1788 -0.1328  0.0623
19303TIP3    H179400   4.372   5.366   4.501  1.4521  0.3291  0.1571
19303TIP3    H279401   4.472   5.336   4.611 -0.4169  0.6572  2.0016
19304TIP3   OH279402   0.381   1.562  16.969  0.3473  0.6417 -0.5681
19304TIP3    H179403   0.336   1.490  17.013 -0.2882  1.8725  0.9188
19304TIP3    H279404   0.426   1.522  16.895 -1.3880 -0.9968 -0.8066
19305TIP3   OH279405   3.513   2.426   1.795 -0.1495 -0.1882 -0.7238
19305TIP3    H179406   3.498   2.425   1.890 -0.9851 -0.8221 -0.8600
19305TIP3    H279407   3.479   2.342   1.764  0.6792 -0.2491 -1.5081
19306TIP3   OH279408   6.433   3.774   0.237 -0.3120  0.0210 -0.1744
19306TIP3    H179409   6.480   3.746   0.315  1.6088  0.3439 -1.1561
19306TIP3    H279410   6.443   3.870   0.237 -0.6571  0.0582 -0.6055
19307TIP3   OH279411   4.690   0.970   2.403  0.0352  0.3825 -0.0516
19307TIP3    H179412   4.730   1.052   2.432 -1.0370  1.0445 -0.3665
19307TIP3    H279413   4.597   0.980   2.426 -0.3707 -0.1358 -1.3926
19308TIP3   OH279414   3.958   3.167   6.950  0.5534  0.2274 -0.1632
19308TIP3    H179415   3.970   3.168   6.856  1.7344 -0.3244 -0.0323
19308TIP3    H279416   4.039   3.130   6.985 -0.4193 -0.9499  0.9723
19309TIP3   OH279417   0.042   0.446   1.600 -0.4605  0.4750 -0.1051
19309TIP3    H179418   0.066   0.514   1.538 -1.0733 -0.8814 -1.9262
19309TIP3    H279419  -0.054   0.440   1.594 -0.4206 -0.5033  0.0565
19310TIP3   OH279420   4.147   2.200   6.505  0.3573  0.2184  0.1401
19310TIP3    H179421   4.158   2.253   6.585  0.1583  1.2227 -0.4803
19310TIP3    H279422   4.145   2.110   6.537  0.2772  0.5971  1.2783
19311TIP3   OH279423   1.923   4.284   1.809 -0.5833 -0.2408 -0.1718
19311TIP3    H179424   1.836   4.284   1.770  0.0498  1.2701 -1.7180
19311TIP3    H279425   1.949   4.376   1.808  1.1693 -0.7061 -0.0781
19312TIP3   OH279426   4.643   4.491  14.104 -0.1051  0.0687 -0.6504
19312TIP3    H179427   4.569   4.479  14.164 -1.1029  0.0093 -1.8647
19312TIP3    H279428   4.700   4.416  14.121 -1.2097 -0.8700 -0.9372
19313TIP3   OH279429   5.442   4.417   3.720 -0.3493  0.1466 -0.6819
19313TIP3    H179430   5.462   4.344   3.779  0.2785  0.2264 -0.7919
19313TIP3    H279431   5.450   4.379   3.632  0.2940  0.4214 -0.7472
19314TIP3   OH279432   6.732   1.759  14.363 -0.3175  0.4091  0.2848
19314TIP3    H179433   6.695   1.752  14.451  2.8290 -1.0009  1.6725
19314TIP3    H279434   6.807   1.818  14.373 -0.0931  0.5020 -1.5465
19315TIP3   OH279435   2.728   1.909  15.065 -0.4994 -0.6255 -0.1766
19315TIP3    H179436   2.702   2.000  15.077 -0.0810 -0.5483  0.1299
19315TIP3    H279437   2.646   1.864  15.044 -0.8993 -0.3905  0.8206
19316TIP3   OH279438   6.127   2.176   0.902  0.1087 -0.2521 -0.0446
19316TIP3    H179439   6.094   2.174   0.812  0.6958  2.1224 -0.3972
19316TIP3    H279440   6.054   2.147   0.956 -0.8717  0.0481 -1.1708
19317TIP3   OH279441   0.723   6.415   0.210  0.2337 -0.1379  0.0774
19317TIP3    H179442   0.773   6.421   0.291  0.4817  0.2794 -0.1024
19317TIP3    H279443   0.633   6.438   0.235  0.9282  3.6797 -0.3734
19318TIP3   OH279444   6.613   3.202   5.184  0.1198  0.5818 -0.3646
19318TIP3    H179445   6.590   3.113   5.211  0.4639  0.3218 -0.9201
19318TIP3    H279446   6.533   3.253   5.200 -0.2032  0.0940 -0.3970
19319TIP3   OH279447   0.317   0.031   0.799  0.0222 -0.0164 -0.1913
19319TIP3    H179448   0.328   0.061   0.889  0.4316 -0.5120 -0.0729
19319TIP3    H279449   0.396   0.059   0.754 -0.9349  1.7669 -0.8394
19320TIP3   OH279450   3.670   4.466   1.775  0.4294  0.2895  0.1962
19320TIP3    H179451   3.614   4.447   1.701 -0.1415 -0.2335  0.7596
19320TIP3    H279452   3.759   4.457   1.740  0.1771 -0.9708 -0.1677
19321TIP3   OH279453   2.180   3.160   0.070  0.4304 -0.1256 -0.5331
19321TIP3    H179454   2.111   3.126   0.014 -0.9980  3.3203 -1.1361
19321TIP3    H279455   2.146   3.150   0.159 -0.1784  0.1402 -0.7288
19322TIP3   OH279456   4.604   0.248  12.542  0.3143  0.1222 -0.3665
19322TIP3    H179457   4.627   0.337  12.570  0.0961 -0.1124  0.5694
19322TIP3    H279458   4.587   0.257  12.448 -0.5001  1.2219 -0.1327
19323TIP3   OH279459   5.834   5.545   2.707  0.1490  0.4593 -0.4196
19323TIP3    H179460   5.779   5.469   2.687  1.4083 -0.8422  0.8065
19323TIP3    H279461   5.924   5.514   2.695  0.6981  1.8361 -0.1162
19324TIP3   OH279462   3.794   6.272   5.626 -0.2081  0.4423  0.0512
19324TIP3    H179463   3.770   6.211   5.556 -0.8514  0.0913  0.5723
19324TIP3    H279464   3.773   6.226   5.707 -1.3957  1.6381  0.4456
19325TIP3   OH279465   2.715   0.252  10.422 -0.2282 -0.1556  0.7081
19325TIP3    H179466   2.744   0.162  10.437  0.0395  0.2643  3.1642
19325TIP3    H279467   2.719   0.293  10.508 -3.8673  1.1862  0.4410
19326TIP3   OH279468   4.612   0.690   0.829  0.1770 -0.2979  0.1208
19326TIP3    H179469   4.624   0.729   0.742 -3.2968  0.6774 -0.0669
19326TIP3    H279470   4.637   0.759   0.890  0.2026 -0.0801 -0.1326
19327TIP3   OH279471   0.375   3.762   4.701  0.1344 -0.3692  0.7759
19327TIP3    H179472   0.396   3.792   4.612 -0.5297 -0.2790  0.6404
19327TIP3    H279473   0.447   3.793   4.755 -1.1625  2.8037  0.9339
19328TIP3   OH279474   6.524   4.085  16.844  0.3695  0.2748  0.4661
19328TIP3    H179475   6.449   4.027  16.857 -0.9480  1.8628  0.1957
19328TIP3    H279476   6.591   4.050  16.903  0.4988 -2.8714 -1.2860
19329TIP3   OH279477   4.101   1.278   4.267 -0.4621  0.0245 -0.1616
19329TIP3    H179478   4.142   1.338   4.330 -2.0376  0.3559  0.5970
19329TIP3    H279479   4.130   1.311   4.181  1.6293 -0.3755  0.3270
19330TIP3   OH279480   2.534   1.060   5.045  0.1805  0.4313  0.0551
19330TIP3    H179481   2.489   1.145   5.048  1.0856  0.9616 -0.6665
19330TIP3    H279482   2.604   1.073   4.980 -0.4022 -1.2294 -0.9719
19331TIP3   OH279483   0.512   2.737  14.502 -0.1173  0.2218  0.5652
19331TIP3    H179484   0.453   2.693  14.563 -0.6905  0.0850 -0.0738
19331TIP3    H279485   0.524   2.824  14.538 -0.8813  0.3202  0.5915
19332TIP3   OH279486   2.737   1.759   2.095 -0.1369 -0.0087 -0.3830
19332TIP3    H179487   2.808   1.763   2.159  0.9524 -2.7628 -1.2283
19332TIP3    H279488   2.779   1.780   2.011 -1.2970  2.4374 -0.4308
19333TIP3   OH279489   4.995   5.692   0.827 -0.2537  0.0985  0.0754
19333TIP3    H179490   4.986   5.639   0.748  2.4245  0.2518 -0.4397
19333TIP3    H279491   5.064   5.756   0.806 -2.4198  3.0226  1.1044
19334TIP3   OH279492   5.112   5.941   0.849 -0.1707 -0.0550  0.7603
19334TIP3    H179493   5.056   5.935   0.927  0.0405 -1.0002  0.8441
19334TIP3    H279494   5.194   5.978   0.882 -0.4828  0.6436  0.7695
19335TIP3   OH279495   2.663   1.361   1.873  0.0886 -0.3763  0.0567
19335TIP3    H179496   2.590   1.400   1.923 -0.5997 -2.4264  0.7333
19335TIP3    H279497   2.719   1.436   1.852 -1.9199  1.2150 -0.0250
19336TIP3   OH279498   4.527   3.091  16.048  0.1525 -0.1223 -0.9251
19336TIP3    H179499   4.615   3.064  16.073  0.9106  1.0310 -2.2528
19336TIP3    H279500   4.514   3.054  15.960 -1.0951 -1.1133 -0.3663
19337TIP3   OH279501   2.726   6.850  11.665  0.2842  0.3573 -0.4610
19337TIP3    H179502   2.740   6.830  11.758  1.1363  1.1933 -0.3935
19337TIP3    H279503   2.631   6.856  11.656  0.0897 -1.3966 -0.0203
19338TIP3   OH279504   2.010   4.823  12.395  0.5405  0.2862 -0.4312
19338TIP3    H179505   2.101   4.852  12.389  0.7811 -0.2190  0.5398
19338TIP3    H279506   1.959   4.892  12.351  1.1949  1.6000  0.8103
19339TIP3   OH279507   3.988   5.064   4.298  0.1682 -0.0600  0.0202
19339TIP3    H179508   3.929   5.070   4.222  2.2319  0.3151 -1.6298
19339TIP3    H279509   4.002   5.156   4.323  0.9972 -0.0623 -0.3991
19340TIP3   OH279510   2.041   3.059  15.490  0.5674 -0.4106  0.2465
19340TIP3    H179511   2.133   3.051  15.462  0.9557  1.3394  0.8852
19340TIP3    H279512   2.012   3.142  15.452 -0.5811 -0.6465  0.5714
19341TIP3   OH279513   3.951   2.201   6.718  0.3405  0.1034  0.5116
19341TIP3    H179514   3.935   2.107   6.710  1.0140 -0.0880  1.2824
19341TIP3    H279515   3.899   2.240   6.647  1.3608 -0.9812 -0.9021
19342TIP3   OH279516   6.066   4.837   0.185  0.0100 -0.3762  1.0865
19342TIP3    H179517   6.111   4.885   0.255 -0.5165  0.9306  0.5668
19342TIP3    H279518   6.021   4.765   0.230 -0.1924  0.3482  2.0719
19343TIP3   OH279519   3.755   4.498  12.672  0.6055 -0.1227 -0.4219
19343TIP3    H179520   3.809   4.434  12.717  0.1849 -2.1251 -2.5607
19343TIP3    H279521   3.666   4.462  12.676  0.2518  0.6347 -1.1289
19344TIP3   OH279522   4.677   1.659   3.851 -0.2229  0.0597  0.4239
19344TIP3    H179523   4.605   1.700   3.897 -0.3723 -0.6028  0.8020
19344TIP3    H279524   4.750   1.660   3.913 -0.0969  0.1549  0.2759
19345TIP3   OH279525   5.853   4.110   5.330 -0.0745  0.1348  0.7937
19345TIP3    H179526   5.861   4.146   5.241  0.1762 -0.2073  0.6728
19345TIP3    H279527   5.843   4.186   5.386 -0.6113  0.3343  0.4311
19346TIP3   OH279528   6.147   4.893  15.476  0.2425  0.3010 -0.2091
19346TIP3    H179529   6.141   4.845  15.393 -3.1437 -0.7167  0.4688
19346TIP3    H279530   6.138   4.825  15.543  1.7550  1.2413  1.0276
19347TIP3   OH279531   6.232   3.220  14.041 -0.7250 -0.1969 -0.0629
19347TIP3    H179532   6.232   3.292  14.104  0.2424  0.8834 -1.2559
19347TIP3    H279533   6.324   3.211  14.015 -1.3133  0.6571 -2.7143
19348TIP3   OH279534   4.024   0.213  14.495 -0.1169  0.4929  0.0738
19348TIP3    H179535   4.048   0.128  14.459  1.9617  0.9749  0.1940
19348TIP3    H279536   4.008   0.268  14.418  0.4430  0.4954 -0.0427
19349TIP3   OH279537   6.229   6.311  12.243  0.0942  0.0832  0.7481
19349TIP3    H179538   6.308   6.361  12.265  2.8071 -3.3012 -0.4497
19349TIP3    H279539   6.195   6.282  12.327 -0.5546  2.3231  1.3461
19350TIP3   OH279540   5.018   6.060  13.460  0.3368  0.4775 -0.0942
19350TIP3    H179541   4.933   6.045  13.502 -0.4026 -1.2606 -2.0368
19350TIP3    H279542   5.082   6.029  13.524 -0.6947 -1.5311  0.0253
19351TIP3   OH279543   5.245   1.985   5.018  0.0199  0.0180 -0.3026
19351TIP3    H179544   5.278   1.987   5.108 -0.1095 -1.1873 -0.1983
19351TIP3    H279545   5.242   1.891   4.997 -1.0503  0.2274 -1.1513
19352TIP3   OH279546   2.805   2.607   3.612  0.1553  0.1199 -0.4282
19352TIP3    H179547   2.755   2.536   3.652 -0.4991 -0.4915 -2.1943
19352TIP3    H279548   2.738   2.660   3.567  0.8871  0.4216 -1.1855
19353TIP3   OH279549   4.197   3.528   1.302 -0.1140 -0.4162 -0.1706
19353TIP3    H179550   4.196   3.453   1.362 -1.5722 -0.0099  0.3544
19353TIP3    H279551   4.135   3.505   1.233  1.7505 -1.0045 -1.7678
19354TIP3   OH279552   3.513   0.214   3.794  0.4180 -0.5243 -0.1604
19354TIP3    H179553   3.561   0.297   3.793 -0.0881 -0.2307 -0.3826
19354TIP3    H279554   3.448   0.223   3.724  1.7286 -1.9289 -1.6510
19355TIP3   OH279555   2.672   3.785  13.535  0.2841 -0.0238  0.2799
19355TIP3    H179556   2.724   3.865  13.534 -0.5540  0.5607 -1.6732
19355TIP3    H279557   2.692   3.742  13.452 -2.0994  0.1092 -0.4387
19356TIP3   OH279558   3.854   2.929  13.020  0.3223  0.1248  0.0375
19356TIP3    H179559   3.938   2.945  13.063  0.6769  0.2406 -0.6708
19356TIP3    H279560   3.824   3.016  12.993  1.9826 -0.1705 -3.3162
19357TIP3   OH279561   3.985   5.345   0.243  0.3097  0.0657  0.4448
19357TIP3    H179562   3.912   5.383   0.196  0.9087  1.0870  0.3177
19357TIP3    H279563   3.967   5.364   0.335 -0.0243 -0.4649  0.4915
19358TIP3   OH279564   4.537   5.796  14.135 -1.0878 -0.4955 -0.0692
19358TIP3    H179565   4.569   5.712  14.166 -0.3220 -0.3385 -0.4299
19358TIP3    H279566   4.460   5.775  14.082 -0.9148 -0.9636 -0.1315
19359TIP3   OH279567   1.583   1.270  10.299  0.2064 -0.1291 -0.1349
19359TIP3    H179568   1.515   1.255  10.364 -0.3747  0.2912 -0.6320
19359TIP3    H279569   1.536   1.274  10.215  0.8860 -0.2244 -0.5324
19360TIP3   OH279570   2.710   3.017   4.092  0.2952  0.4302 -0.5096
19360TIP3    H179571   2.659   2.936   4.087 -1.5896  1.5481 -0.5679
19360TIP3    H279572   2.648   3.082   4.126  2.1648  1.5372  0.9974
19361TIP3   OH279573   1.709   1.875  17.020  0.6359  0.6834  0.4379
19361TIP3    H179574   1.640   1.877  17.086 -0.7832  0.2044 -0.9668
19361TIP3    H279575   1.705   1.787  16.983  2.5803  0.3620  0.8574
19362TIP3   OH279576   6.622   3.665   3.688 -0.2139 -0.3287 -0.0362
19362TIP3    H179577   6.626   3.624   3.602 -1.0279 -0.8051  0.1439
19362TIP3    H279578   6.581   3.599   3.744  0.2439  0.0017  0.7038
19363TIP3   OH279579   5.633   4.528   3.900 -0.7659 -0.3987  0.3165
19363TIP3    H179580   5.599   4.585   3.969  0.4319  0.6611  0.0811
19363TIP3    H279581   5.562   4.525   3.835 -0.3292  2.1674 -0.4055
19364TIP3   OH279582   6.696   1.152  12.745 -0.1418  0.5963 -0.5508
19364TIP3    H179583   6.729   1.063  12.731 -0.5054  0.6821 -2.2317
19364TIP3    H279584   6.760   1.192  12.804  0.3031 -0.6193 -0.1711
19365TIP3   OH279585   4.466   6.531  13.767 -0.1588 -0.0956 -0.2569
19365TIP3    H179586   4.484   6.575  13.851  0.5841 -0.6021 -0.1395
19365TIP3    H279587   4.374   6.551  13.749  0.1316  1.4500 -0.1787
19366TIP3   OH279588   5.209   2.863   2.695  0.0649 -0.2278 -0.5000
19366TIP3    H179589   5.278   2.808   2.731  0.1669  0.0665 -0.2403
19366TIP3    H279590   5.245   2.895   2.612  0.2339 -0.0941 -0.3770
19367TIP3   OH279591   1.725   6.293   0.478  0.2112 -0.1504 -0.1337
19367TIP3    H179592   1.637   6.303   0.515  0.5434 -0.6158  0.8261
19367TIP3    H279593   1.726   6.204   0.443  0.6950 -0.6058  0.9997
19368TIP3   OH279594   1.833   0.057   1.041  0.1524  0.3337 -0.4101
19368TIP3    H179595   1.780   0.037   1.118  0.6310 -1.3551 -0.4659
19368TIP3    H279596   1.923   0.049   1.071  0.3801  1.6914 -0.6814
19369TIP3   OH279597   6.056   2.708   2.090 -0.7468 -0.2595  0.0763
19369TIP3    H179598   6.005   2.665   2.159 -2.3459 -0.5876 -1.2504
19369TIP3    H279599   6.129   2.648   2.075 -0.0406  0.0822  1.8293
19370TIP3   OH279600   2.248   4.623  14.506 -0.4508 -0.5071 -0.1885
19370TIP3    H179601   2.289   4.543  14.475 -0.1616 -0.2955 -0.3620
19370TIP3    H279602   2.308   4.693  14.479  0.0558 -0.3448  1.2449
19371TIP3   OH279603   1.812   0.893  13.821 -0.6589  0.1648  0.3392
19371TIP3    H179604   1.731   0.867  13.777 -0.4414 -0.2776  0.1933
19371TIP3    H279605   1.815   0.988  13.811 -0.3310  0.0379 -1.1363
19372TIP3   OH279606   2.489   5.769   5.336 -0.6322  0.4062 -0.1183
19372TIP3    H179607   2.577   5.742   5.364 -0.3091  1.0093 -0.5278
19372TIP3    H279608   2.445   5.687   5.314  0.4737  0.2060 -1.7681
19373TIP3   OH279609   6.202   6.081   2.100  0.1900 -0.3075  0.2225
19373TIP3    H179610   6.152   6.005   2.128  0.2035  0.4121  2.3707
19373TIP3    H279611   6.176   6.096   2.009 -0.6721 -2.1569  0.1398
19374TIP3   OH279612   1.002   2.583  11.005 -0.2674  0.1460  0.0335
19374TIP3    H179613   1.050   2.663  11.029 -0.8854  1.4739 -2.7197
19374TIP3    H279614   1.069   2.526  10.968 -0.4020  1.2697 -2.1191
19375TIP3   OH279615   3.658   5.057  11.877 -0.4048  0.2600  0.6093
19375TIP3    H179616   3.671   5.152  11.882 -0.3348  0.2529  0.5596
19375TIP3    H279617   3.740   5.023  11.841 -0.4110  0.1754  0.6764
19376TIP3   OH279618   2.014   1.356  16.249  0.2590  0.6606  0.2404
19376TIP3    H179619   2.026   1.408  16.329 -0.3374 -1.9633  2.1787
19376TIP3    H279620   1.928   1.382  16.217 -0.2107  0.6176  1.4075
19377TIP3   OH279621   5.512   2.300  12.002 -0.4423 -0.6844  0.1884
19377TIP3    H179622   5.428   2.273  12.040 -1.6974  3.0775  0.4238
19377TIP3    H279623   5.491   2.323  11.912  0.6720 -0.9970 -0.1621
19378TIP3   OH279624   5.420   6.289   1.937  0.0363 -0.7552 -0.5192
19378TIP3    H179625   5.470   6.214   1.968  0.8980 -0.1748 -0.4993
19378TIP3    H279626   5.479   6.364   1.944 -0.2105 -0.3563 -2.1817
19379TIP3   OH279627   0.917   3.868  15.257  0.3535 -0.3357  0.0491
19379TIP3    H179628   0.861   3.796  15.228 -0.1083 -0.4601  1.1806
19379TIP3    H279629   0.976   3.829  15.321  1.5389 -0.1356 -0.9056
19380TIP3   OH279630   4.361   4.982   5.568  0.1890  0.2547 -0.1012
19380TIP3    H179631   4.335   4.896   5.535 -1.0280  1.3627 -2.3356
19380TIP3    H279632   4.443   5.002   5.522  0.5514  0.2129  0.5285
19381TIP3   OH279633   5.515   6.517   5.714  0.6487  0.1971  0.2943
19381TIP3    H179634   5.493   6.448   5.651  1.0947  2.9445 -3.1686
19381TIP3    H279635   5.440   6.576   5.712  1.1485  0.9006  1.5629
19382TIP3   OH279636   4.637   3.603  11.630  0.5275 -0.7698 -0.2954
19382TIP3    H179637   4.594   3.673  11.679  0.0597 -0.9036 -0.5112
19382TIP3    H279638   4.582   3.590  11.553  1.8536  0.2441 -1.4721
19383TIP3   OH279639   3.980   4.513   4.605 -0.1965 -0.1406 -0.5385
19383TIP3    H179640   4.016   4.553   4.526 -0.0572 -0.8864 -0.8540
19383TIP3    H279641   4.045   4.533   4.673 -1.3211  2.3769 -0.0813
19384TIP3   OH279642   6.384   3.009   2.859 -0.0947 -0.1804  0.5506
19384TIP3    H179643   6.452   3.056   2.908 -0.1187 -0.4572  0.8513
19384TIP3    H279644   6.380   2.923   2.900  1.7332 -1.3900 -1.5728
19385TIP3   OH279645   0.844   5.873   1.443  0.4265  0.0152 -0.7392
19385TIP3    H179646   0.838   5.955   1.492  0.3032 -0.2128 -0.3763
19385TIP3    H279647   0.786   5.812   1.489 -2.2292  0.6673 -2.8978
19386TIP3   OH279648   2.739   4.090   6.679 -0.0067  0.6660  0.2417
19386TIP3    H179649   2.683   4.134   6.615  1.0532  0.2816 -0.9882
19386TIP3    H279650   2.777   4.016   6.631 -1.8886 -1.8138  2.2945
19387TIP3   OH279651   3.568   1.308   2.961  0.2689 -0.2316 -0.0182
19387TIP3    H179652   3.486   1.259   2.956 -0.4443  0.9796 -0.4662
19387TIP3    H279653   3.614   1.270   3.037  0.6644 -2.9254 -1.4914
19388TIP3   OH279654   1.080   1.374  12.076 -0.0960 -0.2406 -0.1234
19388TIP3    H179655   1.095   1.402  11.985 -1.5870  2.5309  0.3565
19388TIP3    H279656   1.012   1.308  12.069  2.1186 -2.5597 -1.1884
19389TIP3   OH279657   6.694   1.683   3.684 -0.2315 -0.1020 -0.3794
19389TIP3    H179658   6.653   1.679   3.771 -0.0353 -0.1967 -0.2891
19389TIP3    H279659   6.771   1.626   3.692  1.2770  1.8767  0.1993
19390TIP3   OH279660   1.717   4.098   1.457 -0.4312  0.2254 -0.2305
19390TIP3    H179661   1.712   4.147   1.539  0.3063  0.5688 -0.3899
19390TIP3    H279662   1.722   4.166   1.389  0.2958 -0.0692 -0.4714
19391TIP3   OH279663   3.085   6.188  15.134  0.2245  1.1262  0.3101
19391TIP3    H179664   3.068   6.100  15.167  3.2408  0.8586  1.4282
19391TIP3    H279665   3.089   6.178  15.039  2.8829 -0.5321  0.5036
19392TIP3   OH279666   5.263   4.900   0.747 -0.5322 -0.2377 -0.0780
19392TIP3    H179667   5.231   4.859   0.828  0.7325  1.4929  1.3957
19392TIP3    H279668   5.353   4.871   0.739  0.1098  1.4558  0.5157
19393TIP3   OH279669   1.647   1.684  11.997 -0.0640 -0.5327 -0.3805
19393TIP3    H179670   1.604   1.714  12.077  0.7219  0.3682 -0.2794
19393TIP3    H279671   1.609   1.597  11.981 -0.5298 -0.5579  0.7368
19394TIP3   OH279672   3.539   4.815   3.128  0.4772  0.2542  0.2294
19394TIP3    H179673   3.521   4.744   3.190  0.9664 -0.7559 -0.7608
19394TIP3    H279674   3.453   4.841   3.096  0.3291 -0.3211  0.1441
19395TIP3   OH279675   2.006   5.386  16.409  0.0999  0.3722  0.2417
19395TIP3    H179676   1.968   5.309  16.366  1.5137 -0.2099 -0.0066
19395TIP3    H279677   1.985   5.375  16.501  1.9946 -1.3825  0.5177
19396TIP3   OH279678   4.513   2.406  13.046  0.7980  0.1597 -0.1775
19396TIP3    H179679   4.600   2.367  13.030  0.6017 -0.4043  0.1031
19396TIP3    H279680   4.518   2.493  13.006  1.3412 -0.0471 -0.5715
19397TIP3   OH279681   6.002   4.019   2.273 -0.4055  0.2566 -0.0725
19397TIP3    H179682   5.995   4.115   2.272  1.5490  0.4277  0.2916
19397TIP3    H279683   6.090   4.001   2.240 -0.2071 -1.3472  1.2463
19398TIP3   OH279684   2.946   2.699   0.189  0.0978  0.2164 -0.5857
19398TIP3    H179685   2.911   2.620   0.148  0.2089  0.1811 -0.6129
19398TIP3    H279686   2.905   2.771   0.141  2.1949  0.2344 -2.5731
19399TIP3   OH279687   4.647   1.037   0.529  0.3986  0.2794  0.4828
19399TIP3    H179688   4.716   1.044   0.595 -0.2353  1.8959  1.0211
19399TIP3    H279689   4.599   1.120   0.535  0.0112  0.2728 -1.6765
19400TIP3   OH279690   0.771   4.277   2.446  0.6252  0.2868 -0.0133
19400TIP3    H179691   0.776   4.227   2.364 -2.5760  1.5721 -1.1439
19400TIP3    H279692   0.706   4.230   2.499  0.3851  1.1612  0.4914
19401TIP3   OH279693   1.345   0.646  12.465 -0.5858  0.6597 -0.0398
19401TIP3    H179694   1.306   0.649  12.552 -0.5674 -0.8851  0.0562
19401TIP3    H279695   1.273   0.666  12.405 -0.3319  2.9409  0.3536
19402TIP3   OH279696   0.510   6.248   1.650 -0.1184  0.1906  0.0798
19402TIP3    H179697   0.416   6.259   1.656 -0.2789 -0.9258 -0.1838
19402TIP3    H279698   0.522   6.157   1.624  1.0837 -0.0898  1.5192
19403TIP3   OH279699   3.429   0.218   2.726  0.2728 -0.6788 -0.7013
19403TIP3    H179700   3.512   0.170   2.730  0.0696 -0.9816  1.1312
19403TIP3    H279701   3.441   0.282   2.656  2.3030 -0.3005 -0.0910
19404TIP3   OH279702   2.270   5.184  17.090  0.4647  0.5859  0.1973
19404TIP3    H179703   2.272   5.237  17.170 -0.3828  0.5067  0.2772
19404TIP3    H279704   2.237   5.243  17.023  1.5261  0.7591 -0.1870
19405TIP3   OH279705   1.178   5.132   5.271 -0.0742  0.2676 -1.0338
19405TIP3    H179706   1.207   5.175   5.190  1.6790 -0.8221 -1.0323
19405TIP3    H279707   1.178   5.039   5.250  0.7226 -0.0547  0.3070
19406TIP3   OH279708   6.016   5.571   3.797 -0.2337 -0.7074 -0.1486
19406TIP3    H179709   6.014   5.514   3.721 -0.0468  1.1689 -1.6323
19406TIP3    H279710   5.981   5.655   3.766  0.7514  0.4073  1.5577
19407TIP3   OH279711   0.091   4.447  11.210 -0.0167  0.0493 -0.6958
19407TIP3    H179712  -0.001   4.423  11.222  0.1845 -0.2449  0.3374
19407TIP3    H279713   0.127   4.376  11.156  0.0106 -0.7496  0.3590
19408TIP3   OH279714   0.343   4.929  14.306 -0.4447  0.4054  0.0632
19408TIP3    H179715   0.296   4.998  14.259  0.3622  0.9674  0.0742
19408TIP3    H279716   0.311   4.936  14.396 -0.9542  0.2382 -0.0996
19409TIP3   OH279717   1.793   1.232  16.783 -0.1051  0.3551  0.0269
19409TIP3    H179718   1.871   1.247  16.729  0.5178  0.3981  0.9188
19409TIP3    H279719   1.827   1.196  16.865 -1.1195 -0.6456  0.0316
19410TIP3   OH279720   3.613   5.556  12.870 -0.0202  0.5116 -0.4433
19410TIP3    H179721   3.702   5.580  12.845  0.2555 -1.8719 -2.0807
19410TIP3    H279722   3.574   5.521  12.790 -2.3796  1.2576  0.2929
19411TIP3   OH279723   2.051   4.952   6.166  0.1968 -0.4256 -0.2956
19411TIP3    H179724   2.083   4.862   6.174 -0.6455 -0.6208  1.3340
19411TIP3    H279725   2.092   4.985   6.087  3.2480 -1.1401  0.8447
19412TIP3   OH279726   6.289   1.956   3.641 -0.1361  0.3132 -0.1316
19412TIP3    H179727   6.277   1.928   3.732 -1.5880 -0.2021 -0.4412
19412TIP3    H279728   6.377   1.993   3.638  0.7665 -1.5766  0.9991
19413TIP3   OH279729   6.714   1.192   2.670  0.0611  0.4414 -0.4722
19413TIP3    H179730   6.648   1.219   2.734  1.1680 -1.0794  1.4300
19413TIP3    H279731   6.671   1.202   2.585 -2.3071  0.3337  0.6358
19414TIP3   OH279732   2.229   5.484  16.252 -0.5932  0.6053 -0.2394
19414TIP3    H179733   2.271   5.398  16.260  0.8518  1.4145  1.5097
19414TIP3    H279734   2.136   5.466  16.266 -0.1045 -0.4569  2.2510
19415TIP3   OH279735   5.452   4.966   0.991 -0.1938  0.0584  0.2742
19415TIP3    H179736   5.491   5.033   1.047  1.5404 -0.8149  0.1734
19415TIP3    H279737   5.364   4.998   0.973 -0.1765  1.2286  2.0255
19416TIP3   OH279738   6.644   2.398   0.632  0.6836  0.0958  0.4199
19416TIP3    H179739   6.657   2.413   0.539 -0.8710  1.4301  0.3805
19416TIP3    H279740   6.702   2.325   0.653  0.6259 -0.6236 -1.7168
19417TIP3   OH279741   4.993   0.388  15.155 -0.2093 -0.1914 -0.0511
19417TIP3    H179742   4.942   0.468  15.164  1.1949  0.6893  0.5066
19417TIP3    H279743   5.075   0.416  15.113  0.1362 -1.4111 -0.2374
19418TIP3   OH279744   2.304   0.842  13.719 -0.1207 -0.2130 -0.6207
19418TIP3    H179745   2.218   0.819  13.755  0.0616 -1.8153 -1.1513
19418TIP3    H279746   2.304   0.938  13.719 -1.0102 -0.1504  1.4801
19419TIP3   OH279747   4.706   2.062  12.701 -0.5642  0.3456 -0.0224
19419TIP3    H179748   4.784   2.090  12.749 -0.6601  1.4123 -0.4608
19419TIP3    H279749   4.640   2.128  12.721 -1.0742 -0.0394 -0.3901
19420TIP3   OH279750   3.557   5.763  10.248  0.4781  0.1892 -0.5343
19420TIP3    H179751   3.502   5.822  10.300 -0.6822 -0.9640 -0.4235
19420TIP3    H279752   3.499   5.692  10.221  2.3119 -2.2343  1.3741
19421TIP3   OH279753   2.651   0.545   0.515 -0.2844  0.1810  0.0329
19421TIP3    H179754   2.677   0.577   0.601  1.2409 -1.6382  0.3240
19421TIP3    H279755   2.729   0.556   0.461 -0.3179 -1.1983 -0.3456
19422TIP3   OH279756   0.392   1.339   0.048 -0.3452 -0.2788 -0.1282
19422TIP3    H179757   0.477   1.334   0.004 -0.5670  0.8805 -0.7289
19422TIP3    H279758   0.409   1.306   0.136  0.7697  0.0751 -0.1921
19423TIP3   OH279759   5.875   2.029   2.594 -0.8631  0.1670 -0.0845
19423TIP3    H179760   5.818   2.092   2.550 -1.7086 -0.2103  0.4642
19423TIP3    H279761   5.822   1.992   2.664  0.7138  1.4250  1.8926
19424TIP3   OH279762   0.095   5.606  11.453  0.3624 -0.4880 -0.2002
19424TIP3    H179763   0.144   5.671  11.403 -1.7251  0.6826 -0.8381
19424TIP3    H279764   0.090   5.642  11.542  0.5167 -0.5340 -0.1720
19425TIP3   OH279765   4.513   1.902   4.727  0.4760 -0.5869  0.1560
19425TIP3    H179766   4.499   1.997   4.720  2.2965  0.0698  3.6084
19425TIP3    H279767   4.607   1.892   4.720  0.5626 -1.7924  2.3465
19426TIP3   OH279768   4.110   2.869  15.041  0.0826  0.1262  0.0968
19426TIP3    H179769   4.153   2.945  15.079 -1.8744  1.0307  0.6370
19426TIP3    H279770   4.135   2.796  15.098  0.7613  0.6293  0.4591
19427TIP3   OH279771   4.124   3.005   4.089  0.2022 -0.1543  0.2587
19427TIP3    H179772   4.037   2.974   4.112  0.7490 -1.4162  0.7459
19427TIP3    H279773   4.118   3.027   3.996 -0.2467 -1.7607 -0.1290
19428TIP3   OH279774   4.361   3.958   6.470 -0.6770  0.0437  0.1993
19428TIP3    H179775   4.439   3.918   6.508 -1.0541  0.8801  1.9744
19428TIP3    H279776   4.304   3.884   6.448  0.5746 -0.5774 -1.1406
19429TIP3   OH279777   3.553   5.232  11.168 -0.6944  0.1354 -0.4989
19429TIP3    H179778   3.483   5.223  11.233 -1.0073 -1.4785 -1.0110
19429TIP3    H279779   3.630   5.259  11.218 -1.8732  2.9666 -0.0636
19430TIP3   OH279780   5.476   4.713   2.878  0.3919  0.6746 -0.3045
19430TIP3    H179781   5.541   4.779   2.853  2.6553 -1.3577 -0.1116
19430TIP3    H279782   5.495   4.638   2.822  0.7257 -1.3387  2.3361
19431TIP3   OH279783   4.607   6.359  14.864 -0.2057  0.4469  0.8672
19431TIP3    H179784   4.645   6.446  14.851 -0.3479  0.5915  1.4380
19431TIP3    H279785   4.644   6.307  14.792  2.0306  0.2693  2.0514
19432TIP3   OH279786   1.357   3.690   1.813 -1.1694  0.1129 -0.1042
19432TIP3    H179787   1.335   3.699   1.906 -1.6166  0.9194 -0.2842
19432TIP3    H279788   1.452   3.680   1.812 -1.1464  0.2400  0.4343
19433TIP3   OH279789   5.880   6.106   5.883 -0.1526 -0.3768  0.2870
19433TIP3    H179790   5.825   6.116   5.961 -1.2328 -1.2647 -0.3321
19433TIP3    H279791   5.962   6.149   5.906 -0.7678  0.1559  1.5874
19434TIP3   OH279792   0.603   5.740  16.027 -0.0966  0.3316  0.3885
19434TIP3    H179793   0.667   5.789  15.976 -0.7349  1.5218  0.6779
19434TIP3    H279794   0.646   5.723  16.110  0.3394 -0.1258  0.0736
19435TIP3   OH279795   4.439   5.299  16.980  0.1889  0.1511 -0.6097
19435TIP3    H179796   4.512   5.347  17.018 -0.1216  1.4139 -1.5474
19435TIP3    H279797   4.471   5.209  16.973  0.7361  0.1386  1.3060
19436TIP3   OH279798   3.091   2.954  10.937 -0.5980 -0.0341 -0.0328
19436TIP3    H179799   3.100   2.952  11.033 -0.1443 -1.5461 -0.0811
19436TIP3    H279800   2.998   2.968  10.922 -0.5155  1.4939  0.5952
19437TIP3   OH279801   6.591   5.780   0.019  0.1907  0.6693  0.5721
19437TIP3    H179802   6.667   5.723   0.008  0.0316  0.6640 -0.5593
19437TIP3    H279803   6.599   5.846  -0.050 -0.4255  1.1304  0.9269
19438TIP3   OH279804   0.310   5.933   5.570 -0.3338 -0.5353  0.0457
19438TIP3    H179805   0.281   5.986   5.495 -0.9389  0.3910  0.9120
19438TIP3    H279806   0.278   5.980   5.647  1.5236 -0.6875  0.9745
19439TIP3   OH279807   1.036   1.394  12.378  0.4532  0.5955 -0.1069
19439TIP3    H179808   1.078   1.365  12.297  1.8234  1.7455  0.1615
19439TIP3    H279809   1.041   1.318  12.436 -0.5777 -0.2580 -1.0663
19440TIP3   OH279810   0.193   5.168   0.251  0.6450 -0.4951  0.0806
19440TIP3    H179811   0.244   5.179   0.331 -0.1888 -0.0295  0.5584
19440TIP3    H279812   0.245   5.213   0.183  0.2031  1.2410  0.8401
19441TIP3   OH279813   5.667   6.797  12.352 -0.6029  0.9862  0.0104
19441TIP3    H179814   5.591   6.799  12.293 -1.5031  1.0743  1.1401
19441TIP3    H279815   5.683   6.890  12.372 -1.1664  0.8924  0.9583
19442TIP3   OH279816   3.475   3.803  15.485 -0.0620 -0.5764 -0.0935
19442TIP3    H179817   3.430   3.820  15.401  0.4216 -1.0791 -0.4598
19442TIP3    H279818   3.449   3.877  15.540 -3.4941 -2.1130  0.6401
19443TIP3   OH279819   1.862   0.772  14.775 -0.0794  0.0842  0.4238
19443TIP3    H179820   1.835   0.786  14.684 -2.2148  0.0299  0.9981
19443TIP3    H279821   1.879   0.678  14.780  0.2669  0.1231  0.0272
19444TIP3   OH279822   1.247   6.644   3.150  0.1107  0.1901  0.2061
19444TIP3    H179823   1.236   6.589   3.228  1.0292  0.6861  0.7097
19444TIP3    H279824   1.316   6.602   3.100  0.9287  0.9373  0.6713
19445TIP3   OH279825   4.333   5.424  14.523  0.3166  0.5685  0.2952
19445TIP3    H179826   4.370   5.380  14.446 -1.7812 -0.4756 -0.1843
19445TIP3    H279827   4.356   5.516  14.511  0.4691  0.3575 -1.3382
19446TIP3   OH279828   1.168   2.865  15.824 -1.0282 -0.0857 -0.3234
19446TIP3    H179829   1.159   2.922  15.748 -1.5795  1.1358  0.6300
19446TIP3    H279830   1.221   2.916  15.887 -0.3582 -1.1697  0.0246
19447TIP3   OH279831   0.984   4.913   4.383 -0.0223  0.8685 -0.0448
19447TIP3    H179832   1.030   4.901   4.466  1.1957 -1.5402 -0.9669
19447TIP3    H279833   0.897   4.878   4.398  0.8324 -1.5352 -0.2583
19448TIP3   OH279834   5.406   1.168  12.001  0.0671  0.2041  0.2213
19448TIP3    H179835   5.451   1.134  11.923 -0.1725  1.0447 -0.2976
19448TIP3    H279836   5.338   1.104  12.019 -0.6595  0.5904 -1.0015
19449TIP3   OH279837   1.555   6.804  12.525 -0.0583 -0.4999  0.7117
19449TIP3    H179838   1.518   6.886  12.493 -0.2310 -0.1082  1.8546
19449TIP3    H279839   1.492   6.737  12.498  0.5930 -0.4188 -1.1201
19450TIP3   OH279840   5.421   4.255   0.989 -0.2005  0.3554 -0.0108
19450TIP3    H179841   5.404   4.253   1.083  1.2337 -0.0692  0.2590
19450TIP3    H279842   5.341   4.292   0.951 -0.1915  2.0766  1.5129
19451TIP3   OH279843   0.800   6.804  15.656 -0.0286 -0.2299  0.5794
19451TIP3    H179844   0.829   6.717  15.628 -0.6518  0.0865 -1.1822
19451TIP3    H279845   0.757   6.789  15.741 -0.2062 -1.6640  0.2580
19452TIP3   OH279846   2.952   4.389   3.623 -0.3766 -0.6051  0.7462
19452TIP3    H179847   2.940   4.444   3.546  0.8165 -1.0547  0.1998
19452TIP3    H279848   2.899   4.430   3.691 -0.4048  0.5623  0.0487
19453TIP3   OH279849   6.774   6.450   6.612  0.2443 -0.3234  0.2263
19453TIP3    H179850   6.773   6.544   6.594  0.4403 -0.5110 -0.8419
19453TIP3    H279851   6.828   6.442   6.691 -0.1198  0.4925  0.5725
19454TIP3   OH279852   0.571   3.763   3.828 -0.1249  0.1544  0.1723
19454TIP3    H179853   0.652   3.745   3.782 -0.9647 -0.2949 -1.1923
19454TIP3    H279854   0.510   3.791   3.760 -1.0450  0.7545  1.2003
19455TIP3   OH279855   6.359   1.745  12.196  0.0868 -0.0152  0.1349
19455TIP3    H179856   6.369   1.767  12.288  1.4539 -0.4928  0.1261
19455TIP3    H279857   6.384   1.652  12.191 -1.1070 -0.3246 -0.5423
19456TIP3   OH279858   5.374   6.730   0.786 -0.2039  0.2840  0.1377
19456TIP3    H179859   5.347   6.685   0.706 -0.1700  0.5058  0.0009
19456TIP3    H279860   5.450   6.680   0.816  1.3449  1.6507 -1.3262
19457TIP3   OH279861   3.803   1.462   2.122 -0.5720  0.2178 -0.3633
19457TIP3    H179862   3.749   1.481   2.046  0.8882 -0.1489 -1.5330
19457TIP3    H279863   3.892   1.489   2.097 -0.4800  2.9755  2.3244
19458TIP3   OH279864   2.698   5.637   3.586  0.0313  0.4160  0.0678
19458TIP3    H179865   2.646   5.569   3.544 -0.6192  0.9764 -0.0487
19458TIP3    H279866   2.657   5.651   3.671  1.1875 -0.5272  0.8196
19459TIP3   OH279867   2.893   2.219  12.644 -1.1471  0.3433 -0.0966
19459TIP3    H179868   2.924   2.227  12.734  1.7588 -1.7334 -0.7824
19459TIP3    H279869   2.829   2.148  12.646 -0.1947 -0.5265  0.1784
19460TIP3   OH279870   4.417   1.414  15.544  0.0197 -0.0018 -0.1172
19460TIP3    H179871   4.445   1.464  15.467 -3.7334  0.0056 -1.6940
19460TIP3    H279872   4.437   1.323  15.523  2.4002  0.2594  0.6552
19461TIP3   OH279873   5.232   2.424  13.434  0.5334 -0.1082  0.1659
19461TIP3    H179874   5.298   2.449  13.500  0.0367 -2.2352  1.6075
19461TIP3    H279875   5.283   2.409  13.354  1.1312  2.7457 -0.0761
19462TIP3   OH279876   5.734   0.756  16.544  0.1708 -0.4635 -0.1806
19462TIP3    H179877   5.730   0.675  16.493  0.8922  1.1026 -2.9052
19462TIP3    H279878   5.644   0.771  16.574  0.0546 -2.2863  0.5093
19463TIP3   OH279879   0.586   4.243   5.192 -0.3389 -0.5410  0.1524
19463TIP3    H179880   0.681   4.244   5.206 -0.5733 -3.0077  2.5801
19463TIP3    H279881   0.553   4.317   5.243  0.2906  1.1768 -1.7864
19464TIP3   OH279882   5.993   5.342   2.573  0.8393 -0.2125 -0.3475
19464TIP3    H179883   5.923   5.356   2.510  0.7944 -0.2168 -0.2982
19464TIP3    H279884   6.067   5.312   2.520  0.3152 -1.8384 -0.2288
19465TIP3   OH279885   2.715   5.985   0.935 -0.9561 -0.0942  0.5720
19465TIP3    H179886   2.717   5.889   0.941  0.0218 -0.2384 -1.3352
19465TIP3    H279887   2.799   6.008   0.895 -1.5480  1.4991  0.1983
19466TIP3   OH279888   6.750   5.391  16.939 -0.7861  0.0949  0.3469
19466TIP3    H179889   6.660   5.375  16.911 -0.6015  1.0368 -0.8502
19466TIP3    H279890   6.803   5.378  16.861  0.1259 -0.3542  1.0196
19467TIP3   OH279891   4.293   2.583  12.784  1.0909  0.1966 -0.0579
19467TIP3    H179892   4.224   2.518  12.773  2.1767 -0.9308 -0.4384
19467TIP3    H279893   4.260   2.642  12.852 -0.7072  0.3628 -1.0215
19468TIP3   OH279894   5.783   1.641   3.289  0.0085 -0.0158  0.0043
19468TIP3    H179895   5.863   1.676   3.250  0.7470 -0.6630  0.9003
19468TIP3    H279896   5.801   1.548   3.302 -0.9867 -0.2239 -0.0147
19469TIP3   OH279897   1.620   5.846  13.035  0.0064 -0.3446  0.3913
19469TIP3    H179898   1.578   5.920  13.079 -1.3992 -0.4066 -0.7690
19469TIP3    H279899   1.679   5.887  12.972 -1.1413 -0.1610 -0.6012
19470TIP3   OH279900   6.025   1.144   2.595  0.2669 -0.1058  0.2171
19470TIP3    H179901   6.051   1.177   2.509 -1.9898 -1.4369 -1.0721
19470TIP3    H279902   5.943   1.190   2.615  0.7513  0.1834  1.6956
19471TIP3   OH279903   3.805   0.678  13.073 -0.1468 -0.3345 -0.2833
19471TIP3    H179904   3.721   0.632  13.062  0.3893 -1.1942 -0.9257
19471TIP3    H279905   3.796   0.724  13.156 -0.8120 -1.3940  0.2547
19472TIP3   OH279906   5.950   4.688   5.622  0.1516  0.3473 -0.1802
19472TIP3    H179907   6.031   4.737   5.632  0.2634  0.1882 -0.2979
19472TIP3    H279908   5.938   4.646   5.708  1.3927 -1.4401 -0.8107
19473TIP3   OH279909   2.892   5.046   1.223  0.1218 -0.0038  0.1623
19473TIP3    H179910   2.857   5.006   1.144  0.5250 -0.9422  0.4463
19473TIP3    H279911   2.892   5.140   1.204 -1.6408 -0.0297 -0.2023
19474TIP3   OH279912   1.642   0.051  11.468  0.1532  0.4339 -0.1887
19474TIP3    H179913   1.631   0.024  11.559  0.2905 -1.6103 -0.7228
19474TIP3    H279914   1.678   0.140  11.473 -0.7905  0.7645  1.7137
19475TIP3   OH279915   3.541   1.983  17.049  0.6186 -0.1965  0.2992
19475TIP3    H179916   3.448   1.961  17.045  1.3212 -3.7251  0.3883
19475TIP3    H279917   3.564   2.008  16.960 -0.1705 -0.5921 -0.0203
19476TIP3   OH279918   5.992   0.286   3.937 -0.1351  0.1380 -0.4089
19476TIP3    H179919   5.919   0.225   3.941 -0.6968  0.6341 -2.1955
19476TIP3    H279920   5.953   0.370   3.915  0.8655  0.6754 -0.2168
19477TIP3   OH279921   3.131   5.505   3.128  0.3239 -0.2182  0.2226
19477TIP3    H179922   3.220   5.539   3.124 -0.2175  1.3430  0.6851
19477TIP3    H279923   3.106   5.515   3.220 -0.2992 -0.7415  0.1186
19478TIP3   OH279924   4.743   4.962  15.800  0.0151 -0.2679  0.0423
19478TIP3    H179925   4.778   4.937  15.715 -0.4726  2.3124 -0.9791
19478TIP3    H279926   4.671   4.901  15.816  0.7616 -1.4238 -0.8794
19479TIP3   OH279927   5.006   5.696   5.227 -0.3057  0.6256  0.4478
19479TIP3    H179928   4.927   5.747   5.211 -0.1317  0.8085  0.1610
19479TIP3    H279929   4.985   5.608   5.195 -0.1017  0.8895 -0.4199
19480TIP3   OH279930   5.491   0.243  10.783  0.3971  0.2335  0.1064
19480TIP3    H179931   5.433   0.167  10.780  1.6369 -0.7362 -0.0439
19480TIP3    H279932   5.433   0.318  10.769 -0.6672 -0.7753 -1.1409
19481TIP3   OH279933   0.109   2.086  16.363  0.6733 -0.1433 -0.1875
19481TIP3    H179934   0.068   2.050  16.442  2.2996 -1.8419 -0.0674
19481TIP3    H279935   0.184   2.136  16.395  1.4870 -1.0413 -0.6222
19482TIP3   OH279936   2.939   3.089  16.433  0.1969 -0.5199 -0.4069
19482TIP3    H179937   2.964   3.001  16.461  3.7675  0.5702  0.3419
19482TIP3    H279938   3.017   3.143  16.450 -2.0588  2.9758 -0.1148
19483TIP3   OH279939   0.122   4.115   2.193 -0.4011 -0.1026  0.2571
19483TIP3    H179940   0.082   4.071   2.118 -1.5325  0.2588  0.6280
19483TIP3    H279941   0.078   4.077   2.269  0.3079 -0.0325  0.7141
19484TIP3   OH279942   3.038   3.584  13.921  0.3240 -0.7211  0.7141
19484TIP3    H179943   3.103   3.528  13.877 -1.2585 -1.8258 -0.3359
19484TIP3    H279944   2.998   3.527  13.987  0.4562 -0.0258  1.4096
19485TIP3   OH279945   3.355   0.428  13.620  0.1156  0.1324 -0.1427
19485TIP3    H179946   3.436   0.387  13.590  1.1538  0.3984  2.0666
19485TIP3    H279947   3.349   0.510  13.570  0.5284 -0.4766 -1.2135
19486TIP3   OH279948   3.432   5.195   5.971 -0.1198 -0.0801  0.4582
19486TIP3    H179949   3.380   5.267   6.007  0.9126  0.4169  0.9839
19486TIP3    H279950   3.464   5.229   5.887  1.4149  0.5888  1.2768
19487TIP3   OH279951   0.682   0.407  17.075 -0.3827 -0.1488  0.3532
19487TIP3    H179952   0.679   0.337  17.010 -0.6146  0.0145  0.1873
19487TIP3    H279953   0.698   0.362  17.158  3.6683 -0.0969 -0.2324
19488TIP3   OH279954   2.052   6.170  15.466  0.7461 -0.3407 -0.0935
19488TIP3    H179955   2.104   6.183  15.387  2.0200  0.4948  0.8529
19488TIP3    H279956   2.031   6.258  15.496  0.5429 -0.6388  0.6749
19489TIP3   OH279957   3.819   1.857  12.042 -0.9713  0.0171 -0.5251
19489TIP3    H179958   3.752   1.891  12.101 -1.9985 -2.3179 -0.2116
19489TIP3    H279959   3.883   1.928  12.034 -0.1239  0.1588  4.3369
19490TIP3   OH279960   4.096   2.943  11.121  0.1235  0.1005  0.3873
19490TIP3    H179961   4.089   3.024  11.071 -0.2205 -0.0308  0.2213
19490TIP3    H279962   4.183   2.910  11.101 -0.8259 -1.1868 -2.0308
19491TIP3   OH279963   3.729   4.392  16.865 -0.3592 -0.0278  0.2694
19491TIP3    H179964   3.711   4.298  16.862  1.1381 -0.3158 -1.0165
19491TIP3    H279965   3.674   4.424  16.936 -3.2389 -1.3311 -1.2232
19492TIP3   OH279966   0.741   6.641   0.441  0.3406  0.3607  0.3088
19492TIP3    H179967   0.661   6.625   0.391  0.1289  1.6121  0.2178
19492TIP3    H279968   0.714   6.634   0.533  0.1650  0.6287  0.2767
19493TIP3   OH279969   6.212   3.715  15.817 -0.6113 -0.0208  0.0451
19493TIP3    H179970   6.207   3.798  15.770 -0.4010 -0.8365 -1.4871
19493TIP3    H279971   6.302   3.685  15.805 -1.0183 -1.0841 -0.5802
19494TIP3   OH279972   2.873   4.517   6.688 -0.0224  0.7224  0.0139
19494TIP3    H179973   2.887   4.579   6.759  0.6286  0.7390 -0.1177
19494TIP3    H279974   2.807   4.456   6.721  0.5439  0.5088  0.7792
19495TIP3   OH279975   3.188   0.283   3.796  0.0507  0.5700 -0.2801
19495TIP3    H179976   3.256   0.294   3.862  1.1092  1.2291 -1.4338
19495TIP3    H279977   3.235   0.252   3.718 -1.2919 -1.1559 -0.4710
19496TIP3   OH279978   1.118   6.763  15.573  0.5467  0.0536 -0.1446
19496TIP3    H179979   1.146   6.675  15.549  0.2374 -0.1253  0.1392
19496TIP3    H279980   1.067   6.794  15.498  1.3196  0.3027 -0.5774
19497TIP3   OH279981   6.301   0.528  15.636  0.0415 -0.2508  0.2084
19497TIP3    H179982   6.377   0.574  15.672 -0.4660 -0.2456  1.3062
19497TIP3    H279983   6.227   0.559  15.688 -0.4730 -1.5010  0.2590
19498TIP3   OH279984   3.968   3.741  14.341  0.2397 -0.9493  0.5475
19498TIP3    H179985   3.899   3.783  14.290  1.7409 -0.0066 -0.7947
19498TIP3    H279986   3.921   3.689  14.406 -1.7145  0.6066  0.4692
19499TIP3   OH279987   1.558   1.924   4.121 -0.0817 -0.0092 -0.4083
19499TIP3    H179988   1.590   2.014   4.121 -0.0995 -0.0006  0.0816
19499TIP3    H279989   1.572   1.894   4.211 -2.5656  0.4018  0.1943
19500TIP3   OH279990   4.062   0.487  11.571 -0.0841 -0.0272  0.3496
19500TIP3    H179991   4.010   0.533  11.505 -1.4171  0.2077  1.5115
19500TIP3    H279992   4.046   0.395  11.554  0.7423 -0.0246 -0.5358
19501TIP3   OH279993   6.157   0.055   4.747 -0.2108  0.1080  0.1661
19501TIP3    H179994   6.125   0.099   4.668  0.7951 -0.3751 -0.5187
19501TIP3    H279995   6.077   0.023   4.789 -0.7626  0.3288 -0.6755
19502TIP3   OH279996   1.292   0.896   6.333  0.3220  0.2824 -0.5411
19502TIP3    H179997   1.347   0.967   6.366  0.2505  0.3606 -0.5919
19502TIP3    H279998   1.244   0.866   6.410 -0.8285  1.3388 -0.8266
19503TIP3   OH279999   1.603   5.109   3.587  0.7680  0.1499  0.1230
19503TIP3    H180000   1.539   5.066   3.531 -0.1873  0.2886  1.0749
19503TIP3    H280001   1.665   5.040   3.610 -0.9929 -0.9021  2.0068
19504TIP3   OH280002   5.640   0.689  14.938 -0.2987  0.3965 -0.1329
19504TIP3    H180003   5.709   0.718  14.998 -1.6996  3.9068  0.0503
19504TIP3    H280004   5.586   0.630  14.989  0.1784  1.0007  1.1075
19505TIP3   OH280005   0.866   6.258   6.374  0.0835 -0.3137  0.3350
19505TIP3    H180006   0.826   6.269   6.461  0.2815 -0.7662  0.4896
19505TIP3    H280007   0.889   6.165   6.371 -2.7057 -1.0773 -1.3640
19506TIP3   OH280008   0.842   6.079   5.208  0.6564  0.4423  0.6194
19506TIP3    H180009   0.845   6.169   5.241 -0.1694 -0.3892  3.2076
19506TIP3    H280010   0.760   6.074   5.159  0.7608  1.1229  0.3712
19507TIP3   OH280011   6.523   0.058  16.502  0.5208 -0.5109 -0.2318
19507TIP3    H180012   6.530  -0.027  16.459 -0.0463 -1.2620  1.0955
19507TIP3    H280013   6.492   0.038  16.591 -2.4685  1.2497 -0.7270
19508TIP3   OH280014   3.338   6.237   4.164 -0.1882 -0.1531 -0.2852
19508TIP3    H180015   3.385   6.277   4.237  1.0458 -0.8889 -0.6549
19508TIP3    H280016   3.353   6.296   4.090 -0.7348  0.1502 -0.1632
19509TIP3   OH280017   6.351   6.153  10.531  0.0703 -0.7679 -0.4026
19509TIP3    H180018   6.376   6.214  10.601  2.2281 -2.0156  0.0014
19509TIP3    H280019   6.389   6.190  10.452 -4.0163  1.7180 -1.5273
19510TIP3   OH280020   5.564   5.944   4.747 -0.1949  0.1183  0.3302
19510TIP3    H180021   5.646   5.908   4.714 -0.2288  0.7801 -0.4925
19510TIP3    H280022   5.539   6.011   4.683 -1.6480 -0.4317  0.2943
19511TIP3   OH280023   5.609   4.441  13.474 -0.3825  0.4125 -0.0266
19511TIP3    H180024   5.519   4.417  13.451 -0.7612  2.0234 -0.3430
19511TIP3    H280025   5.603   4.531  13.504  0.9754  0.1649  1.0654
19512TIP3   OH280026   6.742   4.216  11.490 -0.5128 -0.2351 -0.1342
19512TIP3    H180027   6.654   4.253  11.492  0.0534  1.2414 -0.8759
19512TIP3    H280028   6.754   4.187  11.399 -0.7912 -1.9154  0.3384
19513TIP3   OH280029   3.888   6.052  12.796 -0.1458  0.7518  0.1310
19513TIP3    H180030   3.908   6.098  12.877  1.1739  1.2722 -0.4687
19513TIP3    H280031   3.795   6.028  12.804 -0.3552  1.8679  1.2578
19514TIP3   OH280032   5.307   6.410   4.889  0.4542 -0.2707  0.2110
19514TIP3    H180033   5.300   6.495   4.933  0.2335 -0.4837  0.5940
19514TIP3    H280034   5.254   6.351   4.943  0.5366 -0.6324 -0.1013
19515TIP3   OH280035   6.266   2.237  14.936  0.1910  0.1040 -0.0076
19515TIP3    H180036   6.232   2.289  14.863 -0.1351  0.7595  0.6064
19515TIP3    H280037   6.194   2.236  15.000  0.5457 -0.3071  0.3918
19516TIP3   OH280038   5.293   6.668   4.994 -0.2810 -0.2850 -0.1507
19516TIP3    H180039   5.307   6.633   5.082 -0.2561 -0.8442 -0.3722
19516TIP3    H280040   5.230   6.739   5.006  0.8058  0.6021  0.5205
19517TIP3   OH280041   1.640   3.371  10.426 -0.0723  0.6535  0.0584
19517TIP3    H180042   1.559   3.359  10.475 -0.4003 -0.0041 -0.6184
19517TIP3    H280043   1.613   3.367  10.334  0.5068  1.9751 -0.1873
19518TIP3   OH280044   5.705   5.453  14.617  0.2438 -0.4287 -0.5820
19518TIP3    H180045   5.679   5.408  14.538 -0.5478 -0.1305 -0.4984
19518TIP3    H280046   5.623   5.476  14.661  0.6143  0.8607 -0.4989
19519TIP3   OH280047   2.509   4.618   1.061 -0.1306 -0.0592  0.2379
19519TIP3    H180048   2.562   4.545   1.093 -0.5295 -1.0770 -1.2918
19519TIP3    H280049   2.568   4.692   1.059  0.3155 -0.3436  1.7327
19520TIP3   OH280050   6.023   2.788   3.114  0.4651 -0.2630  0.1835
19520TIP3    H180051   6.112   2.761   3.138  0.4056  0.4577  1.3117
19520TIP3    H280052   6.035   2.873   3.073  0.2388  0.2304  1.1133
19521TIP3   OH280053   1.174   4.301   1.125  0.0408 -0.4893 -0.0913
19521TIP3    H180054   1.114   4.368   1.158  1.0582  0.4999 -0.1964
19521TIP3    H280055   1.248   4.351   1.089  1.5529 -1.6929  1.2304
19522TIP3   OH280056   0.725   6.504   1.359 -0.3795  0.6168  0.4154
19522TIP3    H180057   0.703   6.417   1.392 -0.7668  0.5232 -0.0879
19522TIP3    H280058   0.640   6.544   1.339 -0.1534  0.7254 -0.3346
19523TIP3   OH280059   0.872   4.233   5.565 -0.4588 -0.2481  0.0531
19523TIP3    H180060   0.799   4.279   5.607 -0.6646  0.3973 -0.9734
19523TIP3    H280061   0.948   4.257   5.617 -0.5345  1.4220 -0.5468
19524TIP3   OH280062   2.170   3.367  12.786  0.7671  0.2900  0.2107
19524TIP3    H180063   2.151   3.389  12.877 -1.6729  0.1071 -0.1904
19524TIP3    H280064   2.153   3.448  12.737  0.7023  0.0129 -0.2366
19525TIP3   OH280065   2.700   3.118   5.834  0.1574 -0.4737  0.3096
19525TIP3    H180066   2.718   3.024   5.840  0.3096 -0.5178 -0.6947
19525TIP3    H280067   2.605   3.124   5.846  0.0544 -0.8275 -0.2872
19526TIP3   OH280068   2.503   2.743  14.972 -0.1332  0.0200  0.2118
19526TIP3    H180069   2.442   2.777  14.906  1.4998 -1.9839 -2.5240
19526TIP3    H280070   2.579   2.801  14.966  0.8413 -1.3286 -1.2496
19527TIP3   OH280071   6.156   0.729  14.789  0.0159 -0.1705  0.6049
19527TIP3    H180072   6.187   0.671  14.720 -0.0587 -1.5859  1.7143
19527TIP3    H280073   6.225   0.794  14.799  1.0136 -1.1975  0.6149
19528TIP3   OH280074   6.149   2.217  11.172 -0.1314 -0.0829 -0.2303
19528TIP3    H180075   6.096   2.150  11.216  0.4894  0.0403  0.7290
19528TIP3    H280076   6.121   2.300  11.211 -0.0880  0.1088 -0.5990
19529TIP3   OH280077   0.995   6.184  11.432 -0.3465  0.1626 -0.0595
19529TIP3    H180078   0.983   6.244  11.359 -0.1166 -1.3383 -1.3845
19529TIP3    H280079   1.072   6.217  11.478 -0.8566  1.4747 -0.1206
19530TIP3   OH280080   0.486   0.980   1.050 -0.5316 -0.0591  0.5859
19530TIP3    H180081   0.492   0.890   1.080  0.9350  0.1627  1.0638
19530TIP3    H280082   0.525   1.032   1.120  0.9330  0.6789 -0.6848
19531TIP3   OH280083   5.916   2.548  12.509  0.2987  0.3813 -0.1128
19531TIP3    H180084   5.835   2.527  12.464  0.1321  1.0807 -0.1552
19531TIP3    H280085   5.898   2.631  12.554  1.4180  1.3172 -1.3102
19532TIP3   OH280086   6.075   1.253  11.816 -0.0545 -0.2028  0.0969
19532TIP3    H180087   6.070   1.314  11.889  1.7151  3.1323 -2.2761
19532TIP3    H280088   6.048   1.305  11.739 -1.5909 -3.4061 -1.7647
19533TIP3   OH280089   5.049   3.616  16.409 -0.3632  0.3587 -0.0326
19533TIP3    H180090   5.144   3.611  16.425 -0.2144 -0.3028 -1.0405
19533TIP3    H280091   5.027   3.531  16.371 -1.9632 -0.7667  3.0874
19534TIP3   OH280092   3.279   2.130   4.867  0.2817  0.1507 -0.0780
19534TIP3    H180093   3.199   2.081   4.847  0.6436 -0.5835  0.2127
19534TIP3    H280094   3.338   2.064   4.904  0.6247  0.8958  0.7409
19535TIP3   OH280095   6.114   5.803  15.424 -0.4617  0.0901 -0.2914
19535TIP3    H180096   6.075   5.847  15.499 -1.1964  0.0864 -0.6574
19535TIP3    H280097   6.041   5.792  15.362  0.1601  0.2491 -1.0740
19536TIP3   OH280098   5.586   6.041  12.620  0.3450 -0.1149 -0.1179
19536TIP3    H180099   5.562   6.124  12.580  1.1193  0.3434  0.3582
19536TIP3    H280100   5.562   6.051  12.712  1.6781  0.0892  0.2214
19537TIP3   OH280101   4.837   4.140   0.168  0.1186 -0.1843  0.0080
19537TIP3    H180102   4.885   4.220   0.188  1.2491 -1.1333  1.2725
19537TIP3    H280103   4.883   4.103   0.092 -0.5680  0.4770 -0.7444
19538TIP3   OH280104   5.003   2.210  11.468 -0.7055 -0.4525 -0.1154
19538TIP3    H180105   5.047   2.159  11.400  0.5500  1.0727 -0.5074
19538TIP3    H280106   4.966   2.285  11.421 -1.4325 -0.3374  0.6189
19539TIP3   OH280107   5.297   5.743   3.044 -0.2255  0.0311 -0.4484
19539TIP3    H180108   5.212   5.732   2.999 -1.0542 -0.6879  1.2018
19539TIP3    H280109   5.282   5.813   3.107  0.4252 -0.0827 -0.1624
19540TIP3   OH280110   5.617   5.771  13.923 -0.1786  1.0536  0.2282
19540TIP3    H180111   5.605   5.749  14.015  1.3265 -0.8291  0.0377
19540TIP3    H280112   5.618   5.867  13.921 -1.1553  1.1387  2.0100
19541TIP3   OH280113   1.967   6.542   2.030  0.6923  0.4581  0.4958
19541TIP3    H180114   1.910   6.489   2.087  0.2416 -3.0000 -2.7113
19541TIP3    H280115   2.056   6.513   2.051  0.7685  1.2553  1.2966
19542TIP3   OH280116   1.821   6.289   4.542 -0.2327 -0.8093  0.5453
19542TIP3    H180117   1.798   6.354   4.609  0.9022  0.0644  0.1109
19542TIP3    H280118   1.736   6.264   4.505 -0.8262 -0.8019  1.8302
19543TIP3   OH280119   2.756   5.883  16.408  0.0691  0.1745  0.4065
19543TIP3    H180120   2.681   5.830  16.436  0.4605 -0.5275  0.1592
19543TIP3    H280121   2.779   5.849  16.321 -0.8132  1.9825 -0.6088
19544TIP3   OH280122   0.933   2.387  15.263 -0.2279  0.0835  0.0881
19544TIP3    H180123   0.993   2.402  15.190  0.1333 -1.4434  0.0580
19544TIP3    H280124   0.934   2.470  15.311  2.7374 -0.2147  0.7235
19545TIP3   OH280125   4.498   4.333   6.216 -0.4315  0.4640 -0.0128
19545TIP3    H180126   4.528   4.422   6.236 -0.3129  0.3119  0.4853
19545TIP3    H280127   4.429   4.345   6.150 -0.5264  0.9359  0.1696
19546TIP3   OH280128   2.687   0.924   2.826 -0.4140 -0.2322 -0.0983
19546TIP3    H180129   2.603   0.951   2.789 -0.0042  1.2307 -0.0545
19546TIP3    H280130   2.680   0.829   2.836 -1.3240 -0.4069 -1.9191
19547TIP3   OH280131   4.277   3.841  11.499 -0.1114  0.4651  0.2380
19547TIP3    H180132   4.305   3.779  11.432  0.4667 -0.8200  1.5942
19547TIP3    H280133   4.185   3.858  11.480  0.1399  0.4400 -1.0788
19548TIP3   OH280134   2.137   1.371   3.184  0.6286  0.1425  0.2520
19548TIP3    H180135   2.220   1.387   3.229  0.7294  2.4470 -0.6225
19548TIP3    H280136   2.108   1.458   3.157 -1.4725 -0.7601 -0.5334
19549TIP3   OH280137   1.641   0.330   2.657  0.2046  0.0335 -0.4345
19549TIP3    H180138   1.546   0.341   2.662  0.3866  1.9105 -0.2312
19549TIP3    H280139   1.676   0.399   2.712  1.7041 -0.8598 -0.2070
19550TIP3   OH280140   5.719   5.217   3.415 -0.5222  0.2594 -0.1018
19550TIP3    H180141   5.786   5.218   3.346 -1.1371 -1.4137 -0.7736
19550TIP3    H280142   5.648   5.271   3.380 -0.8770 -0.6702 -0.8773
19551TIP3   OH280143   0.599   3.752   2.588 -0.2844 -0.0400  0.3124
19551TIP3    H180144   0.628   3.761   2.679  1.5284 -0.4953 -0.1717
19551TIP3    H280145   0.541   3.676   2.588  0.6775 -0.7974  0.9106
19552TIP3   OH280146   3.983   3.399  13.504 -0.2535  0.1232 -0.1266
19552TIP3    H180147   4.037   3.336  13.552  0.9037  1.9924  1.1632
19552TIP3    H280148   3.908   3.415  13.560 -0.0726  0.5670 -0.0040
19553TIP3   OH280149   5.467   0.524  13.184 -0.0191  0.2708 -0.0727
19553TIP3    H180150   5.408   0.547  13.113  1.2831 -2.4058 -2.2191
19553TIP3    H280151   5.448   0.431  13.202 -0.2575  0.8084  3.1154
19554TIP3   OH280152   6.774   5.631   1.553 -0.2369  0.5828  0.1115
19554TIP3    H180153   6.832   5.571   1.506  0.4646  1.3943 -0.0807
19554TIP3    H280154   6.762   5.591   1.639  0.8929  0.5676  0.2733
19555TIP3   OH280155   4.321   3.883   2.977 -0.5162  0.4730 -1.1627
19555TIP3    H180156   4.248   3.863   2.919 -0.0883 -0.2964 -1.4482
19555TIP3    H280157   4.398   3.852   2.929 -0.0688  0.7024 -0.5931
19556TIP3   OH280158   6.031   6.751  15.366  0.1350 -0.1678  1.0562
19556TIP3    H180159   5.979   6.736  15.445 -0.3172  0.4688  0.8943
19556TIP3    H280160   5.982   6.818  15.318 -0.5744 -1.7806 -0.6398
19557TIP3   OH280161   3.544   1.667   1.192 -0.1749 -0.1173  0.0899
19557TIP3    H180162   3.531   1.612   1.114 -0.4617 -0.4174  0.3454
19557TIP3    H280163   3.456   1.678   1.228  0.2624 -2.9602  2.3911
19558TIP3   OH280164   0.134   1.684   2.016  0.3920 -0.3852  0.0934
19558TIP3    H180165   0.087   1.624   2.074 -0.5355 -2.4950 -2.6107
19558TIP3    H280166   0.227   1.666   2.033  0.1482 -2.7804 -0.6647
19559TIP3   OH280167   2.062   0.676  12.830  0.0550 -0.2277 -0.3186
19559TIP3    H180168   2.043   0.720  12.746  1.5765 -0.8329 -1.0167
19559TIP3    H280169   2.057   0.583  12.809  1.8725 -0.3995 -0.1231
19560TIP3   OH280170   1.288   1.771  16.633 -0.6586 -0.7009 -0.1815
19560TIP3    H180171   1.222   1.702  16.644 -1.4823  0.2545  1.2166
19560TIP3    H280172   1.237   1.851  16.621  0.2580 -0.0934 -0.1115
19561TIP3   OH280173   5.150   2.410   5.014  0.1065  0.3713  0.1337
19561TIP3    H180174   5.227   2.368   5.051  0.9325 -0.5382 -2.3906
19561TIP3    H280175   5.085   2.339   5.008  0.2298  0.3116 -0.7084
19562TIP3   OH280176   3.946   0.008   1.898  0.6538 -0.3201 -0.3885
19562TIP3    H180177   3.932   0.046   1.811  0.4900  1.6146  0.4299
19562TIP3    H280178   4.026   0.049   1.930  0.3677 -0.5285  0.6318
19563TIP3   OH280179   1.487   4.325   4.318  0.1148 -0.5368 -0.3137
19563TIP3    H180180   1.421   4.393   4.300 -0.1297 -1.1917 -2.0331
19563TIP3    H280181   1.514   4.295   4.232  1.2884 -1.6227  0.4137
19564TIP3   OH280182   5.658   2.159   0.873 -0.1356 -0.7065 -0.0786
19564TIP3    H180183   5.694   2.170   0.961  0.6634 -1.4954 -0.2872
19564TIP3    H280184   5.647   2.248   0.840  2.1501 -0.4075 -0.1932
19565TIP3   OH280185   5.756   3.154   6.127 -0.1279 -0.5947 -0.4487
19565TIP3    H180186   5.699   3.078   6.140 -0.2181 -0.6415 -1.0635
19565TIP3    H280187   5.807   3.133   6.049 -0.7066  0.2878 -1.1030
19566TIP3   OH280188   1.279   0.367  12.350  0.4862  0.2650  0.1816
19566TIP3    H180189   1.274   0.453  12.308  0.1616  0.2120  0.1084
19566TIP3    H280190   1.199   0.361  12.401 -0.5353 -0.8477 -1.4526
19567TIP3   OH280191   3.518   0.260   5.829  0.3142  0.1355 -0.3798
19567TIP3    H180192   3.576   0.232   5.899 -0.1499 -2.5920 -0.9808
19567TIP3    H280193   3.576   0.299   5.764  1.1240 -0.0582  0.2082
19568TIP3   OH280194   1.488   1.886  13.250  0.4927  0.0929 -0.1702
19568TIP3    H180195   1.565   1.928  13.211  1.0657 -1.0182 -0.2859
19568TIP3    H280196   1.523   1.835  13.323 -0.1334 -0.3828 -0.1950
19569TIP3   OH280197   1.229   6.366   4.507  0.0377  0.1628 -0.3406
19569TIP3    H180198   1.298   6.411   4.457 -0.8061  1.6840 -0.2055
19569TIP3    H280199   1.149   6.382   4.457 -0.3156 -1.2287 -0.2774
19570TIP3   OH280200   0.517   5.475   1.642  0.2726  0.2331 -0.3678
19570TIP3    H180201   0.600   5.428   1.637  0.0565 -0.3323  0.9941
19570TIP3    H280202   0.451   5.411   1.616  0.1286  0.2339 -0.0128
19571TIP3   OH280203   6.399   4.049   1.216 -0.1679  0.2132  0.3516
19571TIP3    H180204   6.355   4.093   1.143 -0.6054  0.7476  0.9314
19571TIP3    H280205   6.481   4.097   1.227 -0.0742  0.0947  0.1747
19572TIP3   OH280206   1.355   4.961   0.905 -0.2159  0.4818  0.3249
19572TIP3    H180207   1.390   4.967   0.816  0.0870  2.8569  0.5334
19572TIP3    H280208   1.407   4.893   0.947 -0.0352 -0.3305 -1.1594
19573TIP3   OH280209   5.106   6.340  13.530  0.1830 -0.1655 -0.5629
19573TIP3    H180210   5.074   6.323  13.619 -0.3821 -1.4684 -0.9985
19573TIP3    H280211   5.074   6.266  13.478  2.0725 -0.4109 -1.4684
19574TIP3   OH280212   3.772   4.917  16.734 -0.0031  0.0067  0.5137
19574TIP3    H180213   3.708   4.868  16.682  0.0424  0.4600  0.0130
19574TIP3    H280214   3.776   5.003  16.692  1.6361 -0.3106 -0.0616
19575TIP3   OH280215   2.806   2.604  16.725  0.1025 -0.1201 -0.7661
19575TIP3    H180216   2.891   2.623  16.685  0.0073  1.5346 -0.2606
19575TIP3    H280217   2.765   2.690  16.737 -1.2468 -0.8160 -0.1252
19576TIP3   OH280218   0.683   4.286  13.428 -0.2867 -0.0533 -0.9177
19576TIP3    H180219   0.767   4.329  13.444 -1.2211  1.6258 -0.1535
19576TIP3    H280220   0.675   4.281  13.333  0.9958 -0.9490 -0.9938
19577TIP3   OH280221   5.285   6.711  15.229 -0.2845 -0.5305 -0.0090
19577TIP3    H180222   5.264   6.798  15.194 -1.5226 -0.0453  1.7924
19577TIP3    H280223   5.214   6.692  15.290  1.2571 -1.7468  1.4941
19578TIP3   OH280224   4.314   2.503   2.070 -0.0421 -0.6946  0.0695
19578TIP3    H180225   4.221   2.516   2.089 -0.3049 -1.0391 -0.9253
19578TIP3    H280226   4.320   2.413   2.039  0.5989 -0.6076 -0.0716
19579TIP3   OH280227   4.170   5.546   5.192  0.3549 -0.2140  0.4202
19579TIP3    H180228   4.195   5.461   5.226  0.9365 -0.5104 -0.7131
19579TIP3    H280229   4.074   5.548   5.201  0.5122 -0.0320  2.5620
19580TIP3   OH280230   2.331   6.760   2.781 -0.3630  0.2132 -0.0423
19580TIP3    H180231   2.275   6.820   2.830 -1.1936 -1.0949  0.6717
19580TIP3    H280232   2.285   6.749   2.697  0.0318  0.9012 -0.3627
19581TIP3   OH280233   2.821   4.789  11.658 -0.7505  0.1758  0.3037
19581TIP3    H180234   2.895   4.813  11.713  0.7490 -1.2969 -0.9782
19581TIP3    H280235   2.758   4.861  11.669  0.2402  0.7779  2.5071
19582TIP3   OH280236   5.621   1.206   5.032  0.1658 -0.0154 -0.3727
19582TIP3    H180237   5.644   1.170   5.118 -2.0194  2.1268  1.2324
19582TIP3    H280238   5.542   1.257   5.048 -0.2718  0.5277 -3.6864
19583TIP3   OH280239   0.768   5.384   1.632  0.3844  0.2060 -0.0161
19583TIP3    H180240   0.816   5.467   1.637 -0.2029  0.6212 -0.9160
19583TIP3    H280241   0.832   5.322   1.597  0.1320  0.9049 -1.8330
19584TIP3   OH280242   3.103   3.741   4.859  0.3255  0.5091 -0.9391
19584TIP3    H180243   3.134   3.755   4.948  0.1543 -2.2942 -0.3209
19584TIP3    H280244   3.177   3.700   4.814 -0.4012 -0.4508 -1.2984
19585TIP3   OH280245   4.679   1.355   1.119 -0.2382  0.5757  0.4612
19585TIP3    H180246   4.654   1.445   1.140  0.4141  1.1579 -1.1177
19585TIP3    H280247   4.600   1.304   1.136 -1.5667  1.8852 -1.3473
19586TIP3   OH280248   1.952   1.477  15.354 -0.7642  0.4628 -0.3320
19586TIP3    H180249   1.924   1.436  15.435  0.8755 -0.5587 -0.2328
19586TIP3    H280250   1.899   1.557  15.347 -1.0983  0.4388  1.5904
19587TIP3   OH280251   0.332   0.651   4.646 -0.3264 -0.1661  0.4595
19587TIP3    H180252   0.245   0.690   4.656 -0.5549 -0.8384  1.1662
19587TIP3    H280253   0.318   0.574   4.592 -0.1091 -0.0906  0.2921
19588TIP3   OH280254   4.191   2.560  16.987  0.2294  0.1974  0.0669
19588TIP3    H180255   4.208   2.628  17.053 -0.1290 -0.0363  0.4065
19588TIP3    H280256   4.171   2.482  17.038  3.5477 -0.9929 -0.2556
19589TIP3   OH280257   0.446   4.918   3.346 -0.2757  0.0495  0.2052
19589TIP3    H180258   0.488   4.894   3.263 -0.1240  2.6811 -0.5944
19589TIP3    H280259   0.362   4.873   3.344  1.1982 -2.9471  0.4510
19590TIP3   OH280260   2.622   2.180  10.452  0.1153  0.0119 -0.4545
19590TIP3    H180261   2.651   2.114  10.388 -0.5591 -2.9678  2.0850
19590TIP3    H280262   2.540   2.214  10.415 -0.3398 -1.7417 -1.1927
19591TIP3   OH280263   2.505   5.637  15.417 -0.4304 -0.2256  1.1367
19591TIP3    H180264   2.454   5.700  15.367  0.8887  0.1918  0.2593
19591TIP3    H280265   2.455   5.556  15.413 -1.4721  0.4055  1.1121
19592TIP3   OH280266   4.892   2.345   0.765  0.1727 -0.1413  0.2785
19592TIP3    H180267   4.953   2.356   0.692  1.3270 -2.4591  0.7931
19592TIP3    H280268   4.858   2.433   0.781 -1.3392  0.2930 -4.0236
19593TIP3   OH280269   4.401   2.421  13.444  0.3412 -0.1674  0.2874
19593TIP3    H180270   4.462   2.495  13.438  0.4550 -0.3431 -1.4947
19593TIP3    H280271   4.371   2.421  13.535  0.0889  2.2610  0.2621
19594TIP3   OH280272   1.871   5.037  12.301 -0.3235 -0.3034 -0.2141
19594TIP3    H180273   1.794   5.059  12.354  1.9330  1.6061  2.6531
19594TIP3    H280274   1.849   5.067  12.213 -2.7313  0.3917  0.5286
19595TIP3   OH280275   4.903   3.977  11.156 -0.3612  0.1577  0.0048
19595TIP3    H180276   4.879   4.068  11.176  0.5313  0.8749 -1.9022
19595TIP3    H280277   4.966   3.984  11.084  0.3649 -1.9568  0.3521
19596TIP3   OH280278   4.150   4.548   1.547 -0.3957  0.6082 -0.1796
19596TIP3    H180279   4.085   4.524   1.480 -0.8458 -1.0989  0.7910
19596TIP3    H280280   4.188   4.630   1.516 -1.8088  0.7571 -1.6427
19597TIP3   OH280281   6.782   2.049   3.363  0.6519 -0.2184  1.2320
19597TIP3    H180282   6.772   2.021   3.454  1.7424 -0.5284  1.2611
19597TIP3    H280283   6.806   2.142   3.369  0.7981 -0.2582  1.2665
19598TIP3   OH280284   3.407   2.725  16.147  0.1125 -0.2990  0.6324
19598TIP3    H180285   3.412   2.737  16.242  1.2526 -0.2188  0.5767
19598TIP3    H280286   3.397   2.813  16.112 -0.5585 -0.3508  0.6864
19599TIP3   OH280287   1.801   1.616   5.720  0.3373  0.4621 -0.1510
19599TIP3    H180288   1.810   1.692   5.778 -0.3604  0.3854  0.0703
19599TIP3    H280289   1.729   1.565   5.758 -0.4743  0.6568 -1.3370
19600TIP3   OH280290   0.137   6.017  15.458 -0.1785 -0.2099  0.3759
19600TIP3    H180291   0.194   6.003  15.383  1.7799  0.2826  1.6923
19600TIP3    H280292   0.070   5.949  15.451 -0.0329 -0.1994 -1.7524
19601TIP3   OH280293   2.769   0.243   5.640 -0.0480 -0.0395  0.6531
19601TIP3    H180294   2.697   0.278   5.692  0.0638 -0.3285  1.0078
19601TIP3    H280295   2.748   0.150   5.631  0.9798 -0.4168  1.9377
19602TIP3   OH280296   0.110   4.812   0.102  0.0785 -0.4520 -0.3996
19602TIP3    H180297   0.049   4.862   0.156  0.5906 -0.3931  0.1225
19602TIP3    H280298   0.053   4.767   0.038 -0.4244  0.4528 -0.6160
19603TIP3   OH280299   3.808   4.969  11.532 -0.0084  0.6537  0.5115
19603TIP3    H180300   3.747   5.031  11.570 -0.4191  1.2078 -0.9721
19603TIP3    H280301   3.762   4.885  11.534 -0.5389  0.9280  0.0713
19604TIP3   OH280302   2.414   1.366   0.165 -0.3617  0.5252  0.0581
19604TIP3    H180303   2.501   1.326   0.161 -0.3493  0.4158  1.2171
19604TIP3    H280304   2.378   1.354   0.077 -0.3584 -2.0134  0.3496
19605TIP3   OH280305   5.330   5.019  12.069 -0.0933  0.1235  0.2718
19605TIP3    H180306   5.345   5.078  12.143  1.2869  0.7930 -0.5161
19605TIP3    H280307   5.407   4.962  12.066 -0.2192 -0.0241 -0.5328
19606TIP3   OH280308   0.536   0.659   4.001 -0.3616  0.6122 -0.1925
19606TIP3    H180309   0.572   0.744   4.027 -0.4026  0.3899  0.6239
19606TIP3    H280310   0.613   0.607   3.976 -0.4267  1.2270 -1.7595
19607TIP3   OH280311   1.665   4.640   1.571 -0.1384 -0.2386  0.0663
19607TIP3    H180312   1.610   4.703   1.618 -0.4070 -0.4141 -0.0156
19607TIP3    H280313   1.748   4.687   1.558 -0.4006  0.1670 -0.1622
19608TIP3   OH280314   4.581   4.805   3.145  0.1452 -0.1678  0.9101
19608TIP3    H180315   4.621   4.824   3.230 -0.5361 -0.9155  1.4165
19608TIP3    H280316   4.586   4.887   3.097  3.2328 -0.4622  0.5347
19609TIP3   OH280317   3.997   2.810  14.066 -0.5583 -0.3981  0.2213
19609TIP3    H180318   4.038   2.758  13.996  0.6433  0.2099  0.4703
19609TIP3    H280319   3.993   2.750  14.141 -0.3051 -0.5136  0.1426
19610TIP3   OH280320   3.903   2.213  12.297 -0.1535 -0.3602  0.2893
19610TIP3    H180321   3.927   2.207  12.390  0.9522 -1.4901 -0.0404
19610TIP3    H280322   3.987   2.214  12.251 -0.6890  0.5322 -0.6891
19611TIP3   OH280323   3.950   0.211   0.878  0.0037 -0.1081  0.5732
19611TIP3    H180324   3.870   0.231   0.829  0.0978 -1.8708 -0.4162
19611TIP3    H280325   3.983   0.296   0.905 -1.3606  0.7802 -0.3628
19612TIP3   OH280326   0.851   1.640   2.162  0.0087 -0.1180 -0.1858
19612TIP3    H180327   0.794   1.679   2.228 -0.7080  0.6828 -1.2541
19612TIP3    H280328   0.797   1.571   2.122  0.3317 -0.3871 -0.1623
19613TIP3   OH280329   0.866   5.772   0.137  0.0820  0.3664  0.3634
19613TIP3    H180330   0.770   5.779   0.143  0.1885  0.4100  2.8354
19613TIP3    H280331   0.898   5.859   0.160  0.7362  0.1411  0.3154
19614TIP3   OH280332   5.166   4.787  15.630  0.6662  0.2440 -0.3961
19614TIP3    H180333   5.163   4.861  15.568  0.5387  0.2717 -0.3586
19614TIP3    H280334   5.227   4.725  15.590 -0.1588 -0.1731 -1.0441
19615TIP3   OH280335   4.688   2.652  11.269  0.3198  0.0007 -1.0587
19615TIP3    H180336   4.662   2.738  11.236  0.4978  0.1496 -0.8253
19615TIP3    H280337   4.714   2.603  11.192  1.0958  0.4711 -1.1100
19616TIP3   OH280338   4.743   6.096   4.972 -0.4902  0.5420 -0.3221
19616TIP3    H180339   4.741   6.187   5.004 -0.6462  0.5806 -0.4447
19616TIP3    H280340   4.835   6.081   4.951  0.0158 -0.1429  2.0481
19617TIP3   OH280341   5.146   4.059   6.073  0.4689  0.6064 -0.2201
19617TIP3    H180342   5.150   4.010   6.156 -1.3743  0.7384 -0.0263
19617TIP3    H280343   5.209   4.014   6.017  0.2532 -0.7801  0.5950
19618TIP3   OH280344   5.657   2.755   2.827 -0.5816  0.8592 -0.2785
19618TIP3    H180345   5.705   2.838   2.821  0.0606  0.4069 -2.1949
19618TIP3    H280346   5.725   2.690   2.846 -1.0639  0.7275  1.0963
19619TIP3   OH280347   6.819   6.541   4.422  0.0686  0.3905 -0.4721
19619TIP3    H180348   6.772   6.621   4.446 -1.6536 -0.3505 -1.2089
19619TIP3    H280349   6.865   6.563   4.341  1.6403  1.3290  0.6135
19620TIP3   OH280350   1.882   3.724  13.351 -0.0024 -0.2500 -0.0607
19620TIP3    H180351   1.886   3.697  13.443 -3.0909 -0.1910  0.2058
19620TIP3    H280352   1.880   3.641  13.302 -3.2887 -0.5882  0.3684
19621TIP3   OH280353   0.742   1.366   2.109  0.2367 -0.1800  0.4604
19621TIP3    H180354   0.769   1.367   2.201  0.4950 -1.9933  0.4259
19621TIP3    H280355   0.652   1.332   2.111  0.3846 -0.5945  0.0071
19622TIP3   OH280356   2.506   3.738   2.756 -0.0762 -0.1826 -0.0745
19622TIP3    H180357   2.498   3.759   2.849 -0.5659 -1.8952  0.2959
19622TIP3    H280358   2.601   3.737   2.741  0.0147 -0.1456  0.4576
19623TIP3   OH280359   2.266   5.101   0.935  0.3688  0.3715  0.3863
19623TIP3    H180360   2.290   5.009   0.938  0.2387  0.3224  0.0008
19623TIP3    H280361   2.284   5.134   1.023 -0.9432 -0.3595  0.9555
19624TIP3   OH280362   6.283   6.167   2.776 -0.1058 -0.2924  0.3979
19624TIP3    H180363   6.250   6.203   2.694 -2.3177 -0.8474  0.9679
19624TIP3    H280364   6.345   6.099   2.749 -0.8746 -0.5474 -0.8247
19625TIP3   OH280365   3.334   1.266  13.396  0.4055  0.1600  0.0583
19625TIP3    H180366   3.323   1.236  13.306  1.4691  0.6001 -0.2209
19625TIP3    H280367   3.417   1.313  13.397  0.6373 -0.2182  1.3682
19626TIP3   OH280368   2.047   4.509  13.626  0.0536  0.5543  0.0951
19626TIP3    H180369   2.017   4.553  13.546  1.4352 -0.8792 -1.2795
19626TIP3    H280370   2.052   4.416  13.602  0.1534  0.0346  1.9739
19627TIP3   OH280371   0.072   4.653  11.491 -0.2123 -0.4086  0.3592
19627TIP3    H180372   0.037   4.737  11.523 -1.7780 -0.5951 -0.7824
19627TIP3    H280373   0.165   4.671  11.476 -0.7683  1.5554 -1.1587
19628TIP3   OH280374   3.072   3.192   1.249  0.5578 -0.1773 -0.2263
19628TIP3    H180375   3.021   3.178   1.169  1.3837  0.5702 -0.9083
19628TIP3    H280376   3.032   3.269   1.289 -0.7058 -1.3213  0.8169
19629TIP3   OH280377   3.520   4.127   1.319  0.2538  0.0911  0.0168
19629TIP3    H180378   3.446   4.070   1.340  0.3084  0.8557  2.5717
19629TIP3    H280379   3.590   4.067   1.291 -0.8873 -0.7187 -1.2303
19630TIP3   OH280380   0.441   5.966   5.824  1.2922 -0.4268 -1.0550
19630TIP3    H180381   0.494   5.888   5.814 -0.1186 -1.9435  2.1132
19630TIP3    H280382   0.414   5.966   5.915 -3.0388  0.9243 -2.0912
19631TIP3   OH280383   6.232   4.658   4.559  0.1843 -0.7867  0.3659
19631TIP3    H180384   6.267   4.573   4.531  2.0337 -0.2711  0.9693
19631TIP3    H280385   6.256   4.718   4.489 -1.0464 -0.7211 -0.0204
19632TIP3   OH280386   5.131   3.400  13.207 -0.0968 -0.4693 -0.8602
19632TIP3    H180387   5.198   3.336  13.232  0.9154 -0.1358 -2.5734
19632TIP3    H280388   5.049   3.362  13.239  0.4546 -2.6558 -1.8351
19633TIP3   OH280389   3.932   1.538   4.095  0.2553 -0.3311  0.1862
19633TIP3    H180390   4.016   1.581   4.112 -0.3717  0.0663  2.7797
19633TIP3    H280391   3.931   1.463   4.156 -0.3168 -1.7583 -1.4947
19634TIP3   OH280392   1.737   0.152  15.527 -0.4622 -0.0626 -0.1335
19634TIP3    H180393   1.749   0.185  15.617  0.7771 -1.7531  0.3743
19634TIP3    H280394   1.692   0.223  15.482  0.1161  1.4080  1.4576
19635TIP3   OH280395   1.082   4.261  11.178 -0.0873  0.3913  0.4232
19635TIP3    H180396   1.141   4.186  11.186  1.6769  1.4325 -1.7561
19635TIP3    H280397   1.004   4.226  11.135  0.5460 -0.2978 -0.1885
19636TIP3   OH280398   6.387   6.818  12.469 -0.3043 -0.2513  0.5382
19636TIP3    H180399   6.345   6.814  12.383 -2.8677 -1.9034  1.7549
19636TIP3    H280400   6.329   6.872  12.522 -0.1263 -1.3257  1.8833
19637TIP3   OH280401   3.672   1.531  15.275  0.3536 -0.2202  0.3664
19637TIP3    H180402   3.742   1.529  15.210  0.2240 -0.1022  0.2202
19637TIP3    H280403   3.656   1.440  15.297  1.0705 -0.2169  0.9643
19638TIP3   OH280404   2.601   2.793   4.215 -0.0906  0.1042 -0.0398
19638TIP3    H180405   2.570   2.705   4.196 -1.5122  0.3509  0.9941
19638TIP3    H280406   2.677   2.780   4.272 -0.4048 -0.4551  0.2574
19639TIP3   OH280407   1.517   1.850  12.238  0.1571  0.1771 -0.0980
19639TIP3    H180408   1.561   1.866  12.322 -1.3604  1.4722  0.4977
19639TIP3    H280409   1.447   1.789  12.259  0.5042 -0.4399 -0.6872
19640TIP3   OH280410   3.371   4.656  12.573  0.0154  0.0853 -0.1744
19640TIP3    H180411   3.463   4.681  12.585  0.0391 -0.2088  0.2716
19640TIP3    H280412   3.371   4.599  12.497  0.3524 -0.7199  0.4186
19641TIP3   OH280413   4.450   6.815  12.822 -0.1814  0.5404 -0.6922
19641TIP3    H180414   4.421   6.906  12.819 -1.2129  0.2521 -0.0447
19641TIP3    H280415   4.407   6.779  12.899  1.7994  0.0131  0.2187
19642TIP3   OH280416   5.440   2.790   0.661 -0.9599  0.2732  0.1310
19642TIP3    H180417   5.400   2.709   0.628  1.7239 -0.6807 -1.1401
19642TIP3    H280418   5.445   2.847   0.584  2.4783 -0.7304 -0.5423
19643TIP3   OH280419   0.209   5.071   5.539  0.6498 -0.1780 -0.1978
19643TIP3    H180420   0.261   5.033   5.610  1.5942 -0.2219 -0.8875
19643TIP3    H280421   0.270   5.128   5.492  0.5959 -1.5300 -2.0574
19644TIP3   OH280422   0.227   0.395  17.027 -0.0647  0.1123 -0.0370
19644TIP3    H180423   0.208   0.363  16.939  1.0262 -0.1297 -0.1865
19644TIP3    H280424   0.141   0.418  17.062 -0.4785  0.5676 -1.2957
19645TIP3   OH280425   4.073   6.340   5.028 -0.5831 -0.2897 -0.3357
19645TIP3    H180426   4.055   6.337   4.934 -1.8430  1.5605 -0.2007
19645TIP3    H280427   4.108   6.427   5.043  2.1688 -1.4382  0.5619
19646TIP3   OH280428   2.671   1.876   2.538  0.3089  0.5817  0.0439
19646TIP3    H180429   2.674   1.937   2.464  0.9082 -0.4357 -0.7969
19646TIP3    H280430   2.762   1.869   2.566  0.5614 -1.3684 -1.1054
19647TIP3   OH280431   1.756   4.410   3.458 -0.3762 -0.1177  0.0108
19647TIP3    H180432   1.775   4.375   3.371  4.4996 -1.3876  1.2811
19647TIP3    H280433   1.763   4.504   3.448 -0.4691 -0.2119 -1.0608
19648TIP3   OH280434   0.047   6.041   3.704  0.1822  0.7009 -0.5712
19648TIP3    H180435   0.045   6.131   3.673 -0.3710  1.5212  1.6446
19648TIP3    H280436   0.137   6.029   3.736 -0.0011  0.7827 -0.0222
19649TIP3   OH280437   4.314   0.626  10.717 -0.0682  0.5016 -0.0566
19649TIP3    H180438   4.399   0.654  10.684  0.9309  0.7822  2.5238
19649TIP3    H280439   4.330   0.541  10.758 -0.3181  1.7187  2.8166
19650TIP3   OH280440   3.486   0.747  11.787  0.1118 -0.3220  0.4636
19650TIP3    H180441   3.469   0.832  11.828 -3.1606 -0.6789  0.1503
19650TIP3    H280442   3.557   0.764  11.725  0.3120  1.9016  1.2048
19651TIP3   OH280443   1.340   4.579   5.687  0.3887 -0.4440  0.4723
19651TIP3    H180444   1.298   4.664   5.701 -1.9460 -1.6417  1.4105
19651TIP3    H280445   1.414   4.579   5.748  0.2574  0.7995  0.6679
19652TIP3   OH280446   2.215   3.488  13.498 -0.3206 -0.1230 -0.4303
19652TIP3    H180447   2.249   3.560  13.552 -0.0239 -0.5245 -0.0741
19652TIP3    H280448   2.291   3.432  13.482 -0.5796 -0.4343 -0.5832
19653TIP3   OH280449   4.938   6.652   0.078 -0.5770  0.3622 -0.2985
19653TIP3    H180450   4.995   6.694   0.142 -1.1622  1.1679 -0.2877
19653TIP3    H280451   4.952   6.558   0.091 -0.0764  0.5337  0.4413
19654TIP3   OH280452   0.876   5.558  13.519 -0.4483 -0.2991  0.2993
19654TIP3    H180453   0.805   5.520  13.467 -0.2569  2.5539 -2.3237
19654TIP3    H280454   0.831   5.619  13.578 -0.3716 -0.5232  0.5889
19655TIP3   OH280455   5.346   4.369   2.234 -0.4817 -0.1166 -0.4731
19655TIP3    H180456   5.358   4.464   2.238  1.0607 -0.2643 -0.6818
19655TIP3    H280457   5.318   4.352   2.144 -1.7862  0.2123 -0.1477
19656TIP3   OH280458   6.783   1.669   3.295 -0.5717  0.3713  0.3744
19656TIP3    H180459   6.758   1.761   3.309 -0.4441  0.4914 -0.1816
19656TIP3    H280460   6.706   1.619   3.323 -1.0019  0.6909 -0.2201
19657TIP3   OH280461   3.688   2.678  16.694  0.2145 -0.6393  0.6926
19657TIP3    H180462   3.747   2.608  16.667  0.9149 -0.0055  0.5533
19657TIP3    H280463   3.743   2.757  16.697 -0.8087  0.1432 -0.3278
19658TIP3   OH280464   4.549   5.610  12.068  0.3458 -0.5838 -0.3896
19658TIP3    H180465   4.475   5.550  12.055 -1.9610  1.7509  1.1086
19658TIP3    H280466   4.612   5.585  12.000 -1.0313 -3.7857 -0.6631
19659TIP3   OH280467   6.773   5.418  12.072  0.0683 -0.8444 -0.2519
19659TIP3    H180468   6.683   5.442  12.051  0.6046  0.4655 -1.1823
19659TIP3    H280469   6.803   5.486  12.133  0.6749 -0.8336 -0.5571
19660TIP3   OH280470   3.199   0.555  13.261  0.1877 -0.1204  0.2669
19660TIP3    H180471   3.216   0.599  13.344  0.0707 -0.1390  0.3010
19660TIP3    H280472   3.273   0.495  13.249  0.2551 -0.0461  0.3086
19661TIP3   OH280473   5.333   5.546   0.590  0.2086 -0.0683  0.0189
19661TIP3    H180474   5.265   5.503   0.641  1.4079 -0.6268  1.1908
19661TIP3    H280475   5.339   5.634   0.626  0.2462 -0.0767  0.0325
19662TIP3   OH280476   3.937   4.672   3.784  0.3564  0.0116 -0.1049
19662TIP3    H180477   3.954   4.765   3.800 -1.6899  0.4275 -0.0430
19662TIP3    H280478   3.988   4.651   3.706  2.0575  0.7618  0.7502
19663TIP3   OH280479   2.356   3.011  11.716  0.0645 -0.2638 -0.1863
19663TIP3    H180480   2.416   3.056  11.656 -1.6143 -1.5083 -3.0521
19663TIP3    H280481   2.384   2.919  11.713 -2.6632 -1.1872 -2.8367
19664TIP3   OH280482   1.208   3.096   0.936 -0.0353  0.1248  0.0900
19664TIP3    H180483   1.232   3.031   1.002 -0.9610  0.6196  0.9239
19664TIP3    H280484   1.263   3.074   0.860 -0.1105 -1.4433  0.4591
19665TIP3   OH280485   3.685   2.605  13.913 -0.0748 -0.0280 -0.0186
19665TIP3    H180486   3.701   2.599  14.008  1.5337  2.5084 -0.0439
19665TIP3    H280487   3.728   2.528  13.877 -0.8553 -1.1266  1.2983
19666TIP3   OH280488   6.102   1.087   5.614  0.4019  0.6514 -0.4238
19666TIP3    H180489   6.047   1.091   5.692  0.4605 -0.3308 -0.3224
19666TIP3    H280490   6.104   1.177   5.581 -1.3610  0.6924 -0.4917
19667TIP3   OH280491   0.974   0.386  17.020  0.0855  0.5962 -0.5015
19667TIP3    H180492   0.944   0.471  17.051  0.4855  0.9003 -0.9309
19667TIP3    H280493   0.896   0.346  16.981 -0.1998  0.5890  0.0695
19668TIP3   OH280494   3.954   2.222   6.288  0.5466 -0.7622 -1.1509
19668TIP3    H180495   4.027   2.229   6.350 -0.1120 -0.1157 -0.4211
19668TIP3    H280496   3.923   2.312   6.278 -2.5400 -1.3187  1.5196
19669TIP3   OH280497   2.059   4.385  14.921 -0.2057 -0.2223  0.6773
19669TIP3    H180498   2.150   4.380  14.951  0.7562  2.4436 -1.4978
19669TIP3    H280499   2.056   4.458  14.860 -3.5286 -1.1267 -0.5078
19670TIP3   OH280500   2.828   5.312   0.755  0.6470 -0.4497  0.0965
19670TIP3    H180501   2.854   5.222   0.738 -0.3553 -0.8046  0.4274
19670TIP3    H280502   2.869   5.362   0.684  1.3634 -1.1287  0.0170
19671TIP3   OH280503   2.298   5.616   4.620  0.1504  0.1421  0.4319
19671TIP3    H180504   2.239   5.674   4.572 -1.7885 -1.1515  1.1244
19671TIP3    H280505   2.313   5.660   4.703  1.2424  1.0674 -0.2250
19672TIP3   OH280506   4.003   3.421  15.278 -0.0088 -0.3644  0.1430
19672TIP3    H180507   4.019   3.508  15.316 -1.0212 -0.7269  1.5013
19672TIP3    H280508   3.939   3.436  15.209 -2.6126 -0.3278  2.3999
19673TIP3   OH280509   1.690   4.968   5.216  0.9155 -0.0579  0.3962
19673TIP3    H180510   1.724   4.960   5.305 -0.5047 -0.3668  0.9271
19673TIP3    H280511   1.625   4.898   5.208  0.1943  0.6866 -0.4909
19674TIP3   OH280512   2.383   2.202  14.870 -0.4027 -0.8205  0.0999
19674TIP3    H180513   2.337   2.119  14.857 -0.7322 -0.4219 -1.5098
19674TIP3    H280514   2.318   2.258  14.913 -1.0484 -0.6482 -1.0458
19675TIP3   OH280515   4.022   0.534   0.439  0.0709  0.2321 -0.8274
19675TIP3    H180516   3.946   0.589   0.423 -0.5741 -0.0990  0.9071
19675TIP3    H280517   4.068   0.578   0.511  0.7748 -0.3083 -0.9379
19676TIP3   OH280518   4.795   1.299   4.868 -0.5794 -0.1971 -0.1415
19676TIP3    H180519   4.820   1.374   4.922  1.0438  0.1717 -1.3095
19676TIP3    H280520   4.811   1.223   4.923  0.5876  0.1875  0.0746
19677TIP3   OH280521   1.193   0.739   3.862  0.1966 -0.4242  0.4553
19677TIP3    H180522   1.111   0.787   3.864  1.2584  1.5809 -0.9422
19677TIP3    H280523   1.200   0.700   3.949 -2.0256 -0.3354  0.7221
19678TIP3   OH280524   0.481   4.882   4.357 -0.0700  0.4701 -0.1257
19678TIP3    H180525   0.462   4.814   4.292  1.2954  0.8420 -0.9651
19678TIP3    H280526   0.401   4.933   4.363 -0.3072  0.2663 -1.3411
19679TIP3   OH280527   3.434   2.622   4.902 -0.0860  0.2756  0.7025
19679TIP3    H180528   3.463   2.534   4.925 -1.6080 -0.9918 -1.7124
19679TIP3    H280529   3.497   2.652   4.837 -0.6387  0.0851  0.0545
19680TIP3   OH280530   1.796   5.162  12.572 -0.1094 -0.5724  0.4282
19680TIP3    H180531   1.794   5.228  12.503 -0.8117 -2.2012 -1.1932
19680TIP3    H280532   1.850   5.200  12.641  2.7671  0.1506 -2.0376
19681TIP3   OH280533   5.285   4.806   5.303  0.2005  0.4726 -0.0823
19681TIP3    H180534   5.304   4.870   5.372 -0.7937  1.5417 -0.7513
19681TIP3    H280535   5.233   4.739   5.347  0.8867  0.3331  0.5372
19682TIP3   OH280536   2.581   3.388   1.785 -0.3267 -0.0699  0.3874
19682TIP3    H180537   2.573   3.403   1.879 -0.7770 -1.4781  0.5906
19682TIP3    H280538   2.550   3.298   1.772 -0.9720  0.3416 -1.1951
19683TIP3   OH280539   5.846   1.952   0.357  0.1969 -0.3666 -0.1053
19683TIP3    H180540   5.878   1.864   0.376  0.2521 -0.5957 -1.1866
19683TIP3    H280541   5.924   2.008   0.363 -0.0786 -0.1054  2.0461
19684TIP3   OH280542   2.381   1.274  16.640 -0.1033  0.3565  0.0041
19684TIP3    H180543   2.374   1.185  16.605 -0.4037  0.1580  0.5514
19684TIP3    H280544   2.290   1.302  16.651 -0.0099  0.7205 -0.1320
19685TIP3   OH280545   4.987   0.534   2.389  0.1308 -0.4264 -0.3938
19685TIP3    H180546   4.909   0.583   2.361 -1.1204 -2.7722 -1.2465
19685TIP3    H280547   5.014   0.486   2.311  2.7458  0.6037 -0.2338
19686TIP3   OH280548   5.644   1.052   5.252 -0.4797  0.1868  0.0483
19686TIP3    H180549   5.576   1.070   5.316 -1.0107  0.2810 -0.5275
19686TIP3    H280550   5.725   1.081   5.294 -0.8826  0.7251  0.4745
19687TIP3   OH280551   5.655   3.603  16.014  0.5646 -0.1272 -0.0863
19687TIP3    H180552   5.611   3.566  16.091  1.0694 -1.1089 -0.2465
19687TIP3    H280553   5.720   3.537  15.990  0.7192  0.3696 -1.0918
19688TIP3   OH280554   0.430   6.746  12.440  0.3381  0.0680 -0.6439
19688TIP3    H180555   0.388   6.737  12.525  0.5827 -0.2342 -0.5538
19688TIP3    H280556   0.522   6.726  12.456  1.0904  3.3407 -0.2861
19689TIP3   OH280557   0.623   6.433  14.725 -0.2045  0.0401  0.0926
19689TIP3    H180558   0.615   6.361  14.788 -0.8412  0.8099  0.9227
19689TIP3    H280559   0.706   6.475  14.747  0.0821 -0.3257 -0.2778
19690TIP3   OH280560   6.080   4.175  13.729 -0.2788  0.0324  0.1419
19690TIP3    H180561   6.050   4.122  13.803 -0.4639  1.5907  1.2289
19690TIP3    H280562   6.175   4.173  13.736 -0.2274 -1.1489 -0.5789
19691TIP3   OH280563   3.868   2.989   3.449  0.2432  0.7203  0.5355
19691TIP3    H180564   3.893   3.018   3.537  2.1679 -0.1115  0.3051
19691TIP3    H280565   3.931   2.920   3.428 -0.5508  0.5073 -1.2717
19692TIP3   OH280566   6.377   4.908   1.118  0.5148  0.1025 -0.1596
19692TIP3    H180567   6.397   4.905   1.024  1.7789 -0.4870  0.1086
19692TIP3    H280568   6.376   4.816   1.145 -0.8301  0.2147  0.2251
19693TIP3   OH280569   1.921   6.579   4.189 -0.5883  0.5609 -0.1100
19693TIP3    H180570   1.863   6.561   4.115  0.4799 -0.3398 -0.7629
19693TIP3    H280571   1.992   6.631   4.153  0.1311 -0.1835  0.1785
19694TIP3   OH280572   0.383   0.365  13.715  0.2708  0.1410  0.5566
19694TIP3    H180573   0.300   0.322  13.737  0.4271 -0.0420  0.8018
19694TIP3    H280574   0.370   0.456  13.740  0.2373  0.0562  0.8539
19695TIP3   OH280575   1.316   5.993   4.081  0.0037  0.5342 -0.1812
19695TIP3    H180576   1.227   5.966   4.060 -0.5066  0.7498  1.5759
19695TIP3    H280577   1.334   5.956   4.167  0.8591  2.1550  0.3880
19696TIP3   OH280578   6.562   5.845  12.873 -0.2066 -0.5073 -0.4450
19696TIP3    H180579   6.467   5.845  12.885 -0.0477  1.4224  1.6359
19696TIP3    H280580   6.593   5.775  12.931 -0.2666  0.5054  0.8758
19697TIP3   OH280581   0.643   6.491  13.909 -0.6472  0.2102  0.8352
19697TIP3    H180582   0.722   6.546  13.909 -0.9354  0.7009 -1.1383
19697TIP3    H280583   0.586   6.532  13.845 -1.5570 -1.4749  0.5151
19698TIP3   OH280584   1.820   4.280  16.696  0.0636  0.4295 -0.2183
19698TIP3    H180585   1.781   4.332  16.626 -0.1958 -0.0073 -0.3992
19698TIP3    H280586   1.858   4.204  16.652  0.9220  0.7285 -0.0229
19699TIP3   OH280587   3.321   3.974   1.434 -0.5998  0.3718 -0.1542
19699TIP3    H180588   3.331   3.891   1.481 -0.1440 -0.4880 -1.6994
19699TIP3    H280589   3.289   3.949   1.348  1.3096  1.5945 -1.2949
19700TIP3   OH280590   5.636   4.414   5.936 -0.0874  0.8281  0.3889
19700TIP3    H180591   5.625   4.321   5.914  0.1338  1.0983 -0.9294
19700TIP3    H280592   5.721   4.418   5.980  0.1479  0.4876 -0.0264
19701TIP3   OH280593   4.997   5.506  15.745 -0.3508  0.4456 -0.0625
19701TIP3    H180594   5.036   5.432  15.791 -1.7016 -0.1723  0.1405
19701TIP3    H280595   5.013   5.581  15.802 -0.9551 -0.0940  0.8354
19702TIP3   OH280596   3.714   4.374  13.816  0.5788  0.1983  0.3726
19702TIP3    H180597   3.626   4.395  13.786 -0.2001 -1.2077  1.5387
19702TIP3    H280598   3.735   4.442  13.879 -1.2232 -1.3517  2.8459
19703TIP3   OH280599   6.621   6.668  11.008 -0.2990  0.7410 -0.1974
19703TIP3    H180600   6.588   6.716  10.932  0.3314  0.1347 -0.8690
19703TIP3    H280601   6.624   6.576  10.979 -0.4123  0.4466  0.6869
19704TIP3   OH280602   1.397   5.530  12.450 -0.1484 -0.4196  0.3436
19704TIP3    H180603   1.345   5.478  12.511  0.4036 -1.8241 -0.3422
19704TIP3    H280604   1.465   5.570  12.505 -0.5318 -0.4804  0.8692
19705TIP3   OH280605   6.522   3.361  15.426  0.3888  0.3158  0.3487
19705TIP3    H180606   6.524   3.415  15.347 -2.8981  1.0851  0.6237
19705TIP3    H280607   6.455   3.295  15.408  2.0252 -1.7092  1.2644
19706TIP3   OH280608   2.806   5.545   1.339 -0.1976  0.1387 -0.1019
19706TIP3    H180609   2.714   5.568   1.357  0.0292 -0.6086  2.4387
19706TIP3    H280610   2.856   5.606   1.393  0.7232 -0.6202 -0.0858
19707TIP3   OH280611   4.751   5.579  14.716  0.5852  0.5409 -0.5608
19707TIP3    H180612   4.704   5.593  14.634  0.4351  1.5816 -0.3152
19707TIP3    H280613   4.721   5.493  14.746  0.1449  0.4348 -1.2648
19708TIP3   OH280614   4.058   4.814   4.700  1.0737  0.4766 -0.2807
19708TIP3    H180615   3.993   4.846   4.637  0.0509 -0.1027  0.4517
19708TIP3    H280616   4.141   4.818   4.652  0.4915  1.1249 -1.2779
19709TIP3   OH280617   5.568   0.437   4.350  0.0840  0.1767  0.1612
19709TIP3    H180618   5.594   0.347   4.370  0.0609  0.3998  1.2592
19709TIP3    H280619   5.514   0.430   4.271 -2.5294 -1.1702  1.9299
19710TIP3   OH280620   0.767   4.043  11.885 -0.1972  0.3323  0.9168
19710TIP3    H180621   0.683   4.030  11.842  0.6349 -0.1678 -0.6554
19710TIP3    H280622   0.776   3.969  11.945 -0.6324  0.1009  0.6958
19711TIP3   OH280623   0.501   4.212  14.336  0.6170 -0.2335  0.4266
19711TIP3    H180624   0.512   4.154  14.411 -1.1501 -1.8907 -0.4951
19711TIP3    H280625   0.412   4.194  14.304  1.2943  0.3811 -2.0731
19712TIP3   OH280626   6.254   2.058  12.784  0.0871 -0.0175  0.4928
19712TIP3    H180627   6.343   2.026  12.771  0.0793  0.6208 -1.5791
19712TIP3    H280628   6.264   2.151  12.803 -0.1408  0.2004 -0.4134
19713TIP3   OH280629   1.696   5.086  16.294  0.1849 -0.3748  0.6115
19713TIP3    H180630   1.710   5.148  16.223 -0.9843  0.1760  0.8488
19713TIP3    H280631   1.762   5.018  16.278 -0.2433 -0.4383 -1.1879
19714TIP3   OH280632   6.205   0.043   5.570 -0.0663  0.0768 -0.1178
19714TIP3    H180633   6.176   0.079   5.486 -0.7110  0.5373  0.2903
19714TIP3    H280634   6.167   0.102   5.636 -0.4771 -0.8975  0.5351
19715TIP3   OH280635   2.309   1.375  14.092  0.1603  0.0979  0.0151
19715TIP3    H180636   2.245   1.339  14.154 -0.5721 -1.0260 -1.3345
19715TIP3    H280637   2.325   1.464  14.123  1.9282 -1.2387  3.3834
19716TIP3   OH280638   3.647   5.640   4.341 -0.1710  0.7796 -0.1324
19716TIP3    H180639   3.643   5.597   4.256  0.4873  1.0253 -0.2938
19716TIP3    H280640   3.685   5.573   4.399  1.2457  1.2648 -0.4751
19717TIP3   OH280641   2.639   1.043   0.587 -0.7372 -0.3195 -0.1064
19717TIP3    H180642   2.613   0.977   0.523  0.3694 -0.6703 -0.2180
19717TIP3    H280643   2.655   0.995   0.668  2.4136 -0.6645 -0.7768
19718TIP3   OH280644   0.572   6.798  14.037 -0.4219 -0.3336  0.1176
19718TIP3    H180645   0.572   6.723  14.097  0.1832 -0.3458  0.1091
19718TIP3    H280646   0.630   6.771  13.965  1.3569  0.8401  1.0214
19719TIP3   OH280647   5.474   0.082   4.012  0.0921  0.2651  0.5481
19719TIP3    H180648   5.452  -0.009   4.033  2.0636 -0.5127 -0.4906
19719TIP3    H280649   5.392   0.119   3.979  0.0473 -2.3944 -2.9976
19720TIP3   OH280650   3.979   1.895  15.976 -0.1629 -0.0217  0.1249
19720TIP3    H180651   3.980   1.899  15.880 -0.9129 -1.0603  0.0550
19720TIP3    H280652   4.010   1.806  15.996  1.2408  0.6135  0.9076
19721TIP3   OH280653   5.577   1.355   2.302 -0.4098 -0.1021 -0.0559
19721TIP3    H180654   5.652   1.300   2.322 -0.4116  0.9318  3.4131
19721TIP3    H280655   5.581   1.426   2.366 -2.2067  2.1839 -2.2574
19722TIP3   OH280656   6.283   2.499  16.736 -0.2582 -0.4601  0.3110
19722TIP3    H180657   6.269   2.593  16.730  0.9268 -0.3190 -0.7224
19722TIP3    H280658   6.199   2.464  16.768 -2.0330  0.5548 -2.7800
19723TIP3   OH280659   5.206   5.824  13.319  0.6013  0.0379  0.0492
19723TIP3    H180660   5.235   5.910  13.288  1.6950 -0.8169 -1.4587
19723TIP3    H280661   5.282   5.788  13.364 -0.1859  0.2438  1.6137
19724TIP3   OH280662   0.378   0.263   3.392 -0.0424 -0.2585 -0.1710
19724TIP3    H180663   0.308   0.275   3.327  0.1541  0.2583 -0.2981
19724TIP3    H280664   0.432   0.341   3.382 -1.0316  0.7730  1.8846
19725TIP3   OH280665   0.641   0.194   5.461 -0.0459 -0.1695  0.3109
19725TIP3    H180666   0.642   0.286   5.490 -0.0210  0.0120 -0.2439
19725TIP3    H280667   0.628   0.144   5.541  0.2800  0.3016  0.6672
19726TIP3   OH280668   3.693   0.490   0.721 -0.1551 -0.2846  0.0580
19726TIP3    H180669   3.695   0.509   0.627  0.5140  0.4387  0.2062
19726TIP3    H280670   3.717   0.398   0.728  0.2369 -0.2278 -0.4630
19727TIP3   OH280671   2.220   0.195   4.248 -0.2626 -0.0560 -0.1108
19727TIP3    H180672   2.309   0.224   4.230 -0.7482  0.7677 -1.3229
19727TIP3    H280673   2.169   0.276   4.253 -1.1924 -0.5660 -0.9440
19728TIP3   OH280674   4.939   0.867   4.294  0.6252  0.3258  0.4285
19728TIP3    H180675   4.973   0.855   4.382 -0.3819  0.1893  0.8148
19728TIP3    H280676   4.859   0.918   4.306 -0.6466 -1.4393 -0.1852
19729TIP3   OH280677   2.139   1.368   1.160 -0.1023  0.1326  0.7781
19729TIP3    H180678   2.194   1.357   1.238  0.4443 -0.0147  0.3840
19729TIP3    H280679   2.083   1.290   1.159  0.0251  0.0386  0.9187
19730TIP3   OH280680   3.085   3.694  12.300 -0.4606  0.2737  0.0227
19730TIP3    H180681   3.170   3.677  12.260  0.1476  1.6023  0.6889
19730TIP3    H280682   3.068   3.787  12.282 -0.1193  0.9771  2.8333
19731TIP3   OH280683   2.200   4.475   2.386  0.1370  0.1848 -0.0258
19731TIP3    H180684   2.173   4.538   2.320  1.1336  1.3905  0.6803
19731TIP3    H280685   2.232   4.400   2.336 -1.1694  0.1520 -0.8726
19732TIP3   OH280686   3.957   6.142  11.436  0.0587  0.1047 -0.1480
19732TIP3    H180687   3.874   6.133  11.483  0.1964  0.3380  0.1475
19732TIP3    H280688   3.969   6.059  11.390  0.1778 -0.3337  0.6508
19733TIP3   OH280689   3.404   1.849  11.218 -0.1255  0.5908  0.6941
19733TIP3    H180690   3.496   1.829  11.239 -0.1801 -0.8624 -0.2679
19733TIP3    H280691   3.385   1.794  11.142 -0.9530  2.9971 -0.9672
19734TIP3   OH280692   2.716   4.448  13.954 -0.2450 -0.3577 -0.2013
19734TIP3    H180693   2.798   4.496  13.943 -0.1807 -0.3116  0.4157
19734TIP3    H280694   2.685   4.432  13.865 -0.0955  0.5340 -0.4217
19735TIP3   OH280695   2.401   4.029   4.735  0.0031 -0.0392 -0.9992
19735TIP3    H180696   2.437   4.111   4.704 -1.4247  0.4596 -1.4505
19735TIP3    H280697   2.476   3.969   4.741  1.1359  1.4179 -0.1806
19736TIP3   OH280698   0.850   2.156   1.715  0.3814  0.2760  0.7096
19736TIP3    H180699   0.832   2.130   1.805 -0.5142  1.6778  0.9750
19736TIP3    H280700   0.764   2.180   1.679  0.8172  0.3919 -0.2929
19737TIP3   OH280701   0.894   1.946  14.139 -0.4481  0.3912  0.1731
19737TIP3    H180702   0.883   1.921  14.048  2.3168 -0.9686  0.0894
19737TIP3    H280703   0.968   2.008  14.138 -0.3792  0.3735  1.4645
19738TIP3   OH280704   2.589   6.233   1.617 -0.0330 -0.5049  0.3597
19738TIP3    H180705   2.624   6.176   1.686 -0.0411 -0.5000  0.3679
19738TIP3    H280706   2.495   6.239   1.635 -0.3923 -2.0616 -0.7632
19739TIP3   OH280707   5.477   0.675  12.649 -0.6279 -0.1657 -0.0367
19739TIP3    H180708   5.503   0.743  12.587  1.0376 -0.4673  0.2953
19739TIP3    H280709   5.470   0.720  12.733  1.5228 -0.5424  0.3951
19740TIP3   OH280710   6.035   4.183  11.947  0.1226 -0.2580  0.3735
19740TIP3    H180711   6.043   4.270  11.986 -0.4833 -0.2377  0.4681
19740TIP3    H280712   5.950   4.151  11.978  0.3741 -0.9123  0.3994
19741TIP3   OH280713   2.025   3.339   2.517 -0.1261 -0.3487 -0.1123
19741TIP3    H180714   1.951   3.326   2.457  0.8136  0.2334 -1.4622
19741TIP3    H280715   2.019   3.432   2.542 -0.3065 -0.5026  0.4257
19742TIP3   OH280716   6.717   4.622   3.473 -0.5592 -0.4715 -0.4028
19742TIP3    H180717   6.748   4.695   3.419  0.0315  0.0244  0.5774
19742TIP3    H280718   6.633   4.598   3.435 -2.5517  3.0436  1.3284
19743TIP3   OH280719   6.840   5.043  16.574 -0.3926 -0.1075  0.5220
19743TIP3    H180720   6.850   5.072  16.665 -1.0685 -1.6791  1.1423
19743TIP3    H280721   6.809   4.953  16.581 -1.0971 -0.0473 -1.2821
19744TIP3   OH280722   4.388   6.559   2.119 -0.4047  0.1769 -0.1139
19744TIP3    H180723   4.408   6.586   2.029 -1.6012  1.3743 -0.0521
19744TIP3    H280724   4.388   6.641   2.169 -1.1875 -0.3027  0.6875
19745TIP3   OH280725   3.649   6.232  16.188 -0.6333 -0.6858  0.1681
19745TIP3    H180726   3.567   6.265  16.152 -0.6103  0.7534  1.3186
19745TIP3    H280727   3.624   6.155  16.239 -0.8413 -1.9311 -1.7229
19746TIP3   OH280728   3.604   0.830   4.440  0.4642 -0.0285 -0.2420
19746TIP3    H180729   3.666   0.759   4.424  1.4827  0.5970  0.7756
19746TIP3    H280730   3.576   0.816   4.531 -1.0558 -0.4159 -0.7482
19747TIP3   OH280731   0.334   3.854  10.568  0.2011  0.9533  0.4699
19747TIP3    H180732   0.242   3.876  10.577 -0.0948 -0.1427  0.3118
19747TIP3    H280733   0.378   3.938  10.552 -1.0107  1.3029 -1.2909
19748TIP3   OH280734   3.950   3.135  15.911 -0.7154 -0.3788 -1.0191
19748TIP3    H180735   3.925   3.064  15.970  0.2724 -0.5578 -0.7966
19748TIP3    H280736   4.012   3.095  15.850  0.7319  0.5357 -0.1920
19749TIP3   OH280737   5.573   3.936   2.318  0.3908  0.4832  0.0987
19749TIP3    H180738   5.571   3.841   2.310  0.7284  0.5241 -0.4720
19749TIP3    H280739   5.505   3.967   2.257  0.6728  0.6321 -0.1434
19750TIP3   OH280740   3.527   6.786   2.591  0.1931  0.6328  0.7045
19750TIP3    H180741   3.513   6.737   2.672  1.1003  0.5421  0.8197
19750TIP3    H280742   3.589   6.854   2.615  0.3733  0.6853  0.1136
19751TIP3   OH280743   3.085   6.140  14.438 -0.2022  0.0847 -0.4421
19751TIP3    H180744   3.157   6.099  14.391  0.9002  1.8820 -0.3957
19751TIP3    H280745   3.013   6.141  14.375  0.2024 -0.5493 -0.9333
19752TIP3   OH280746   6.219   6.320   4.413 -0.2574 -0.0073 -0.1624
19752TIP3    H180747   6.203   6.274   4.495 -0.1941  0.0429 -0.1221
19752TIP3    H280748   6.257   6.254   4.355 -1.9389 -0.5281 -0.7396
19753TIP3   OH280749   0.624   6.401   0.942  0.5223  0.4036 -0.1528
19753TIP3    H180750   0.713   6.425   0.967  0.5959 -0.6655  0.6810
19753TIP3    H280751   0.635   6.354   0.859  0.9885 -1.3281  0.8229
19754TIP3   OH280752   6.111   4.354  16.507 -0.2194 -0.1856 -0.2163
19754TIP3    H180753   6.151   4.268  16.492 -0.5047 -0.2319 -0.7163
19754TIP3    H280754   6.135   4.375  16.598  0.8919 -0.2299 -0.4859
19755TIP3   OH280755   0.070   4.192   3.521  0.2451 -0.4890  0.2257
19755TIP3    H180756   0.005   4.123   3.510 -1.4316  1.2157 -1.4329
19755TIP3    H280757   0.062   4.220   3.612 -1.9311  0.1553 -0.1152
19756TIP3   OH280758   4.582   1.532   1.823  0.4016 -0.3604 -0.1753
19756TIP3    H180759   4.508   1.535   1.884  0.7181 -1.3026  0.2784
19756TIP3    H280760   4.640   1.602   1.852  0.0376 -0.1028 -0.0693
19757TIP3   OH280761   5.457   0.603  16.937 -0.2173 -0.1414  0.0359
19757TIP3    H180762   5.489   0.680  16.889 -0.9137 -0.1963 -0.5311
19757TIP3    H280763   5.527   0.539  16.928  0.5517  0.5542  0.8656
19758TIP3   OH280764   5.707   0.487  16.278  0.4876 -0.0136 -0.3820
19758TIP3    H180765   5.788   0.465  16.325  0.5819  0.3835 -0.3556
19758TIP3    H280766   5.735   0.494  16.186  0.8402  1.7973 -0.1761
19759TIP3   OH280767   2.288   2.319   5.880  0.2643  0.8131  0.9331
19759TIP3    H180768   2.194   2.327   5.863  0.2310  1.8350  1.5415
19759TIP3    H280769   2.329   2.381   5.819  0.7987 -1.5210 -1.2701
19760TIP3   OH280770   3.110   0.394  12.803  0.8538 -0.1254 -0.4245
19760TIP3    H180771   3.105   0.381  12.708 -0.5420 -0.3410 -0.3494
19760TIP3    H280772   3.202   0.411  12.821  1.1459 -0.1742 -1.8089
19761TIP3   OH280773   1.393   0.789   5.769  0.1241 -0.2117 -0.1615
19761TIP3    H180774   1.375   0.701   5.738 -2.2005 -0.2594  1.1297
19761TIP3    H280775   1.369   0.846   5.696 -1.8859 -0.4963  0.2374
19762TIP3   OH280776   3.993   0.946   2.068  0.3218  0.3692 -0.3323
19762TIP3    H180777   3.932   1.007   2.108 -0.7880 -1.0443  0.2041
19762TIP3    H280778   3.955   0.926   1.983 -0.1706 -0.7908  0.1495
19763TIP3   OH280779   3.993   3.688   5.957 -0.1875 -0.1817 -0.2901
19763TIP3    H180780   3.991   3.759   5.893 -0.4012  1.1841  1.1752
19763TIP3    H280781   3.931   3.715   6.025 -0.5487 -1.9523  0.1301
19764TIP3   OH280782   0.080   2.059   5.188 -0.6827 -0.0161 -0.0534
19764TIP3    H180783  -0.009   2.026   5.184 -1.2156  1.3352  0.3025
19764TIP3    H280784   0.074   2.141   5.237  0.8269 -0.1535  0.4240
19765TIP3   OH280785   5.705   0.991  14.873 -0.6434 -0.1351  1.0948
19765TIP3    H180786   5.777   0.928  14.877 -1.1067 -0.7545  0.0871
19765TIP3    H280787   5.664   0.987  14.960  1.3709  1.2751  2.1826
19766TIP3   OH280788   4.381   1.406  11.486  0.0357 -0.5883 -0.8439
19766TIP3    H180789   4.390   1.501  11.493 -1.1528 -0.4305 -1.2445
19766TIP3    H280790   4.465   1.377  11.449  0.8798  0.1398  0.4132
19767TIP3   OH280791   2.521   2.655  15.538 -0.0448 -0.2642 -0.3776
19767TIP3    H180792   2.598   2.672  15.592 -0.4844 -2.8717  1.2190
19767TIP3    H280793   2.456   2.718  15.568  0.9619  1.0056 -0.7622
19768TIP3   OH280794   3.551   1.220   3.925  0.4622  0.3282 -0.0128
19768TIP3    H180795   3.534   1.218   4.019  0.2798  0.5744 -0.0400
19768TIP3    H280796   3.612   1.292   3.914  0.1558  0.5704 -0.1356
19769TIP3   OH280797   1.378   0.067  16.644 -0.1730 -0.3064 -0.0166
19769TIP3    H180798   1.450   0.093  16.587  0.7994 -1.6221  0.5645
19769TIP3    H280799   1.394   0.113  16.726 -0.2279 -0.2864 -0.0168
19770TIP3   OH280800   5.810   3.737  15.047 -0.8936 -0.6358 -0.4935
19770TIP3    H180801   5.809   3.642  15.035 -1.4204 -0.5967 -0.7912
19770TIP3    H280802   5.800   3.773  14.959  1.0647 -0.2726 -0.6105
19771TIP3   OH280803   1.688   1.122   4.467 -0.6177 -0.3444  0.0533
19771TIP3    H180804   1.766   1.075   4.496 -0.1185 -0.6671 -1.6852
19771TIP3    H280805   1.708   1.214   4.484  0.7829 -0.2856 -1.6566
19772TIP3   OH280806   4.617   1.207  12.701  0.2163  0.3169  0.1007
19772TIP3    H180807   4.536   1.227  12.748 -0.5017  1.5904 -1.5946
19772TIP3    H280808   4.594   1.133  12.644  0.6966 -0.3009  0.6842
19773TIP3   OH280809   6.034   4.668  16.166 -0.4435  1.0781  0.3970
19773TIP3    H180810   6.062   4.582  16.197 -1.4609  0.8442  0.7334
19773TIP3    H280811   6.096   4.691  16.098 -1.8819 -1.3389 -1.9313
19774TIP3   OH280812   6.680   1.017   4.372 -0.3535 -0.1093  0.2336
19774TIP3    H180813   6.703   1.090   4.314 -0.5833  1.5414  2.0865
19774TIP3    H280814   6.595   0.986   4.340 -0.7014  1.0818 -0.0445
19775TIP3   OH280815   4.203   0.223   2.691 -0.0521  0.4480 -0.1245
19775TIP3    H180816   4.159   0.159   2.747  0.1995  0.6424  0.2919
19775TIP3    H280817   4.263   0.269   2.749  0.4305  0.4442 -0.6124
19776TIP3   OH280818   4.323   4.011   4.466 -0.1955 -0.0062 -0.3457
19776TIP3    H180819   4.344   3.991   4.375  1.5035  1.9676 -0.4560
19776TIP3    H280820   4.341   4.104   4.475 -1.2394  0.0492  1.7922
19777TIP3   OH280821   3.629   3.351  13.893 -0.2647 -0.1666  0.6790
19777TIP3    H180822   3.590   3.276  13.937  1.2415 -0.2492  1.9311
19777TIP3    H280823   3.646   3.414  13.962 -1.5037  1.3893 -0.3444
19778TIP3   OH280824   6.073   5.460   5.746  0.8643 -0.1110 -0.0288
19778TIP3    H180825   6.108   5.531   5.692 -3.1383  0.7682 -1.8568
19778TIP3    H280826   6.031   5.401   5.684 -3.0255  0.3626  1.7966
19779TIP3   OH280827   5.923   1.639  13.716 -0.3988 -0.4585  0.2801
19779TIP3    H180828   5.962   1.714  13.672 -0.3608 -2.0177 -2.6191
19779TIP3    H280829   5.850   1.675  13.767  0.7021  1.6894  0.4330
19780TIP3   OH280830   4.757   5.998   1.270  0.0370  0.4337  0.4886
19780TIP3    H180831   4.754   5.948   1.188  1.7066 -0.5061  0.9504
19780TIP3    H280832   4.667   6.030   1.282 -0.1287  1.1443 -2.0086
19781TIP3   OH280833   2.858   5.962  13.459 -0.2623 -0.0637  0.5430
19781TIP3    H180834   2.931   5.988  13.403  0.4651 -2.8864  0.0348
19781TIP3    H280835   2.781   5.970  13.403 -0.2087  1.6332  0.6634
19782TIP3   OH280836   2.003   0.564   5.243 -0.3536  0.0901  0.0881
19782TIP3    H180837   1.996   0.552   5.149 -0.5530 -1.2534  0.2472
19782TIP3    H280838   1.970   0.482   5.280  0.7850  0.1374  1.2980
19783TIP3   OH280839   5.565   6.387   0.385  0.0938  0.0906 -0.4010
19783TIP3    H180840   5.656   6.380   0.413  0.0062 -0.5211 -0.2526
19783TIP3    H280841   5.524   6.443   0.451  0.0931 -0.6119  0.2096
19784TIP3   OH280842   6.043   4.364  14.011  0.2094  0.5775  0.0513
19784TIP3    H180843   6.062   4.346  13.920 -2.2010  2.1140 -0.8753
19784TIP3    H280844   5.968   4.309  14.032  1.1524 -0.2805  1.3819
19785TIP3   OH280845   6.207   1.053  12.937 -0.5875 -0.0456 -0.1471
19785TIP3    H180846   6.243   1.129  12.891 -1.4801 -0.1092 -0.9752
19785TIP3    H280847   6.276   1.029  13.000 -0.2182  1.3286  0.0215
19786TIP3   OH280848   0.890   1.337  15.276 -0.3545  0.2826  0.0928
19786TIP3    H180849   0.907   1.281  15.352  0.4524 -1.0863 -1.0354
19786TIP3    H280850   0.919   1.424  15.303  2.3869 -0.6741  0.5256
19787TIP3   OH280851   6.089   1.248  13.184  0.1317  0.2444  0.5991
19787TIP3    H180852   6.046   1.164  13.165 -0.6870  1.0196 -1.2123
19787TIP3    H280853   6.028   1.294  13.240 -0.5616  0.5630 -0.3851
19788TIP3   OH280854   5.927   0.569  15.649 -0.2143 -0.1079 -0.1807
19788TIP3    H180855   5.963   0.510  15.584  0.1581  1.7535 -1.7667
19788TIP3    H280856   6.002   0.619  15.681 -0.4285 -0.8261  1.5339
19789TIP3   OH280857   3.618   0.685  16.024  0.2004  0.1594 -0.1460
19789TIP3    H180858   3.596   0.660  15.934 -1.2378 -1.8518  0.6886
19789TIP3    H280859   3.686   0.623  16.050  0.0759  0.2404  0.3854
19790TIP3   OH280860   4.019   0.943   0.099  0.0009 -0.4783 -0.1641
19790TIP3    H180861   4.044   0.905   0.015  0.7659 -1.6422  0.5519
19790TIP3    H280862   4.101   0.945   0.149 -0.3683  0.5452  0.4182
19791TIP3   OH280863   5.223   3.331  14.426  0.4216 -0.0062 -0.0544
19791TIP3    H180864   5.304   3.357  14.470  0.8258  0.5011 -1.0700
19791TIP3    H280865   5.186   3.263  14.483  2.1227 -1.0500 -0.1165
19792TIP3   OH280866   3.478   1.308  14.038 -0.2238 -0.5949  0.0074
19792TIP3    H180867   3.471   1.216  14.011 -0.1473 -0.3238 -0.9625
19792TIP3    H280868   3.490   1.356  13.957 -0.7603  0.3328  0.4611
19793TIP3   OH280869   6.385   0.206   3.076 -0.2623 -0.4173 -0.4707
19793TIP3    H180870   6.313   0.242   3.024 -0.5452 -3.9215 -2.8702
19793TIP3    H280871   6.464   0.224   3.025  0.0109 -0.3009 -0.0132
19794TIP3   OH280872   1.461   5.067   4.577  0.3674 -0.5770 -0.1891
19794TIP3    H180873   1.378   5.073   4.624  0.3083 -0.0853 -0.3503
19794TIP3    H280874   1.528   5.075   4.645  0.2881  0.9413 -0.2551
19795TIP3   OH280875   2.159   1.868  14.148  0.0958 -0.2659  0.2850
19795TIP3    H180876   2.153   1.904  14.060  4.3005 -0.2354 -0.1970
19795TIP3    H280877   2.071   1.834  14.166 -1.4737  1.5110 -3.0390
19796TIP3   OH280878   4.203   0.405  16.649 -0.0470 -0.4438  0.8840
19796TIP3    H180879   4.181   0.334  16.588 -0.1972 -1.3929  1.9931
19796TIP3    H280880   4.127   0.463  16.646 -0.4194 -0.9262  0.7737
19797TIP3   OH280881   4.515   2.268   3.518 -0.2841 -0.7262  0.4291
19797TIP3    H180882   4.430   2.239   3.551 -0.8841 -1.6671 -1.7816
19797TIP3    H280883   4.564   2.187   3.502  0.0108 -0.3196 -0.8346
19798TIP3   OH280884   5.915   2.713   5.780 -0.7297  0.6237 -0.6504
19798TIP3    H180885   6.009   2.725   5.780 -0.8119  1.2937 -0.5958
19798TIP3    H280886   5.896   2.666   5.861 -0.4602  0.6369 -0.5799
19799TIP3   OH280887   0.305   0.850  13.575  0.6828  0.1406 -0.2616
19799TIP3    H180888   0.210   0.859  13.580  0.5501 -1.0592 -0.3558
19799TIP3    H280889   0.319   0.770  13.524  1.7302 -0.0651  0.3222
19800TIP3   OH280890   4.105   5.992   2.634 -0.1584  0.0645  0.0055
19800TIP3    H180891   4.174   5.932   2.605  0.2930  0.9184 -0.7028
19800TIP3    H280892   4.120   6.072   2.584 -2.1942 -0.0219 -0.8132
19801TIP3   OH280893   3.385   4.859  16.228 -0.0056  0.0441  0.4930
19801TIP3    H180894   3.404   4.917  16.154 -0.5289 -1.3904 -0.8250
19801TIP3    H280895   3.465   4.806  16.238 -0.2142 -0.2779  0.4580
19802TIP3   OH280896   3.635   0.049  11.493  0.5641  0.9708 -0.3074
19802TIP3    H180897   3.624   0.081  11.583  0.2862 -1.2311  0.4927
19802TIP3    H280898   3.546   0.047  11.458  0.4252 -0.0162  0.0676
19803TIP3   OH280899   5.080   2.969   5.717 -0.3410  0.0682  0.1850
19803TIP3    H180900   5.171   2.955   5.691 -0.2862  0.4264  0.1714
19803TIP3    H280901   5.075   2.935   5.807 -0.9604 -2.7713 -0.8174
19804TIP3   OH280902   3.433   4.858  12.951  0.0256  0.0116  0.4098
19804TIP3    H180903   3.521   4.849  12.987  0.3174 -2.5369 -0.7322
19804TIP3    H280904   3.405   4.769  12.932 -2.1480  0.8654 -0.8231
19805TIP3   OH280905   2.192   6.477  14.811  0.0502 -0.0619 -0.0558
19805TIP3    H180906   2.247   6.459  14.735 -1.7920 -2.4864 -0.9414
19805TIP3    H280907   2.152   6.393  14.833 -2.3900  1.2977  1.2299
19806TIP3   OH280908   0.682   0.521   0.260 -0.0291  0.2786  0.1270
19806TIP3    H180909   0.636   0.459   0.203  1.0803  1.0816 -1.7564
19806TIP3    H280910   0.740   0.466   0.313  0.8512 -0.3726 -1.4283
19807TIP3   OH280911   5.824   5.553   4.924 -0.3680  0.2951 -0.5611
19807TIP3    H180912   5.787   5.603   4.851 -0.0479 -0.1950 -1.0698
19807TIP3    H280913   5.783   5.589   5.002 -0.6136  0.9194 -0.9780
19808TIP3   OH280914   2.700   2.996   5.027 -0.2568  0.7813  0.1765
19808TIP3    H180915   2.654   3.054   5.088 -1.0048  0.7090 -0.2992
19808TIP3    H280916   2.752   2.939   5.082 -1.3199  0.3756  0.7842
19809TIP3   OH280917   3.957   0.669   5.931  0.1537 -0.6475  0.3205
19809TIP3    H180918   3.993   0.746   5.887  1.0100 -1.0847  0.2219
19809TIP3    H280919   3.914   0.703   6.010 -2.8574  0.3605 -1.5772
19810TIP3   OH280920   6.316   1.014  15.697 -0.4108  0.4278  0.2669
19810TIP3    H180921   6.281   0.933  15.734  0.3972  0.0407  0.2001
19810TIP3    H280922   6.346   0.989  15.609  1.3920  0.3762  0.8536
19811TIP3   OH280923   5.418   6.604   2.196  0.1567 -0.4813 -0.1363
19811TIP3    H180924   5.495   6.552   2.175  0.7798  0.1175  0.5959
19811TIP3    H280925   5.374   6.556   2.266 -0.5084 -1.1521 -0.9869
19812TIP3   OH280926   0.757   0.822   6.206 -0.5694  0.4799 -0.4182
19812TIP3    H180927   0.836   0.850   6.252 -1.0622 -1.1347  1.5631
19812TIP3    H280928   0.694   0.893   6.222 -0.8844 -0.2582  1.9706
19813TIP3   OH280929   5.537   3.618   5.502  0.7074 -0.2303  0.2384
19813TIP3    H180930   5.577   3.645   5.584 -1.8920  0.8815  1.2416
19813TIP3    H280931   5.505   3.700   5.463 -0.8362 -1.0662 -0.3349
19814TIP3   OH280932   3.082   4.913   6.785 -0.0751  1.3202 -0.2891
19814TIP3    H180933   3.137   4.888   6.711 -0.0941  1.0468 -0.2121
19814TIP3    H280934   3.132   4.980   6.831  0.4380  0.6748  0.0986
19815TIP3   OH280935   5.524   0.238  15.360 -0.1295  0.0689  0.2645
19815TIP3    H180936   5.494   0.329  15.354 -0.6080 -0.1554 -1.2128
19815TIP3    H280937   5.615   0.245  15.390 -0.2806  1.0157  0.5264
19816TIP3   OH280938   5.067   4.294  15.088  0.1740 -0.0017  0.2668
19816TIP3    H180939   5.145   4.327  15.134 -0.7018  1.7551  0.5739
19816TIP3    H280940   4.999   4.292  15.156 -0.5337  0.3256 -0.4226
19817TIP3   OH280941   1.022   2.158  15.371 -0.5371 -0.1351  0.4811
19817TIP3    H180942   1.105   2.151  15.323  1.0221 -2.3637  3.1313
19817TIP3    H280943   0.991   2.246  15.354  2.0880  0.5796 -1.1369
19818TIP3   OH280944   2.034   0.410   4.271 -0.0392 -0.2233 -0.6550
19818TIP3    H180945   2.008   0.399   4.180 -1.0467  3.1731 -0.8949
19818TIP3    H280946   2.111   0.467   4.267 -0.3352  0.2932  0.6017
19819TIP3   OH280947   3.190   2.534   0.390 -0.0544  0.0270  0.4144
19819TIP3    H180948   3.103   2.493   0.390  0.3362 -0.8681 -0.7021
19819TIP3    H280949   3.208   2.552   0.298  0.6871  0.7791  0.6997
19820TIP3   OH280950   1.203   0.722  16.126 -0.1454  0.2414 -0.0040
19820TIP3    H180951   1.137   0.758  16.067 -0.7363 -2.7588 -1.3748
19820TIP3    H280952   1.275   0.695  16.068 -0.1704 -1.5993  0.7663
19821TIP3   OH280953   0.137   1.571  14.577 -1.0360 -0.0183  0.1729
19821TIP3    H180954   0.172   1.578  14.666 -1.1012  0.2353  0.1791
19821TIP3    H280955   0.071   1.502  14.583 -1.6175  0.5554  0.5104
19822TIP3   OH280956   1.147   4.998   1.278 -0.4960  0.7186 -0.4198
19822TIP3    H180957   1.084   5.014   1.349 -0.6753  2.4596 -0.9122
19822TIP3    H280958   1.113   4.922   1.232 -1.0921  0.3669  0.5598
19823TIP3   OH280959   0.742   5.973   2.158 -0.7136  0.6449 -0.0598
19823TIP3    H180960   0.767   6.043   2.217  1.7699  1.0764 -1.4660
19823TIP3    H280961   0.690   5.913   2.212 -0.9836  2.4123  1.7485
19824TIP3   OH280962   2.400   0.276  15.091 -0.2736 -0.0680 -0.1462
19824TIP3    H180963   2.381   0.309  15.003  2.4776 -2.1437 -1.6690
19824TIP3    H280964   2.380   0.182  15.087  1.8128 -0.6200  0.7272
19825TIP3   OH280965   5.385   6.290   5.279  0.6445 -0.2633 -0.1767
19825TIP3    H180966   5.301   6.295   5.326  1.5753 -0.0531  1.5489
19825TIP3    H280967   5.418   6.380   5.278  0.5816 -0.2343 -1.4171
19826TIP3   OH280968   5.622   2.480  16.988  0.0274 -0.0256  0.0356
19826TIP3    H180969   5.620   2.529  16.906  2.9702 -0.7133 -0.5525
19826TIP3    H280970   5.628   2.548  17.056  0.8660  0.5161 -0.5597
19827TIP3   OH280971   0.665   5.611  15.688 -0.1520  0.7814  0.2655
19827TIP3    H180972   0.647   5.526  15.647  1.8906 -0.0816  1.0143
19827TIP3    H280973   0.706   5.663  15.619 -1.2692  1.1210 -0.1534
19828TIP3   OH280974   1.333   4.747   2.890  0.0917  0.1093 -0.0146
19828TIP3    H180975   1.273   4.701   2.832  2.1436 -1.3713 -1.0546
19828TIP3    H280976   1.320   4.707   2.976  1.0151 -1.6865 -0.6700
19829TIP3   OH280977   3.720   3.260  15.387 -0.3427  0.4943  0.5937
19829TIP3    H180978   3.781   3.304  15.446  0.8624  3.7477 -2.6785
19829TIP3    H280979   3.633   3.292  15.413 -0.1280 -0.0166  2.0096
19830TIP3   OH280980   4.712   6.688  11.690  0.2086  0.1452  0.0776
19830TIP3    H180981   4.653   6.615  11.709 -0.5401 -0.0165 -2.4888
19830TIP3    H280982   4.772   6.653  11.624  2.4897  0.6826  1.7388
19831TIP3   OH280983   2.197   4.324  16.172 -0.4574  0.0512  0.3188
19831TIP3    H180984   2.202   4.309  16.267  2.4483 -1.8490  0.0177
19831TIP3    H280985   2.246   4.405  16.158  0.5236 -0.5122  0.3636
19832TIP3   OH280986   4.439   2.438   3.313 -0.6072  0.1877  0.6512
19832TIP3    H180987   4.496   2.408   3.383 -2.4536 -1.4274  1.5360
19832TIP3    H280988   4.466   2.386   3.236 -0.2536  0.1321  0.8126
19833TIP3   OH280989   1.090   0.777  14.905  0.3425  0.3073 -0.1138
19833TIP3    H180990   1.053   0.740  14.825  0.6063  0.4307 -0.2947
19833TIP3    H280991   1.183   0.790  14.885  0.8514 -1.4954  0.8629
19834TIP3   OH280992   1.005   5.837  13.510  0.4599 -0.6171  0.2927
19834TIP3    H180993   0.926   5.782  13.507  1.1305 -1.7135  1.6526
19834TIP3    H280994   1.041   5.822  13.597  2.9158 -1.2124 -0.7507
19835TIP3   OH280995   0.729   0.424   3.936 -0.2080  0.4360 -0.5985
19835TIP3    H180996   0.685   0.441   3.853  0.7684 -2.0866 -1.7491
19835TIP3    H280997   0.819   0.454   3.922  0.7008 -2.3785 -1.5603
19836TIP3   OH280998   4.307   5.260   3.616 -0.4593  0.1404  0.1291
19836TIP3    H180999   4.311   5.355   3.630 -0.7807  0.0874  0.5863
19836TIP3    H281000   4.397   5.230   3.632 -0.4893  0.2861  0.5769
19837TIP3   OH281001   5.057   6.058   2.694  0.3685  0.4423 -0.3917
19837TIP3    H181002   5.044   6.047   2.788 -0.6028  0.1293 -0.5503
19837TIP3    H281003   4.973   6.036   2.655  0.5279  1.3195 -1.2891
19838TIP3   OH281004   5.624   3.894   1.227 -0.0964  0.3171 -0.4060
19838TIP3    H181005   5.663   3.811   1.200 -1.5964 -0.1723 -1.1826
19838TIP3    H281006   5.551   3.869   1.284  0.5409  1.1970  0.8465
19839TIP3   OH281007   3.712   4.093   5.210  0.1631  0.0886  0.3607
19839TIP3    H181008   3.651   4.160   5.243  0.7041  0.6355  0.2642
19839TIP3    H281009   3.709   4.024   5.277  0.0232  0.4609  0.7456
19840TIP3   OH281010   3.051   4.723   1.547  0.5831  0.2291 -0.3515
19840TIP3    H181011   3.053   4.771   1.465  0.6702 -1.1988 -1.2144
19840TIP3    H281012   3.088   4.637   1.526  0.0918 -0.3604  1.0392
19841TIP3   OH281013   2.018   6.654  14.945  0.7709 -0.6139  0.5411
19841TIP3    H181014   2.049   6.589  14.883 -0.2495 -0.4367 -0.1793
19841TIP3    H281015   1.961   6.606  15.004  0.3744 -0.4644  0.2834
19842TIP3   OH281016   0.326   3.626   3.639  0.8527 -0.1110  0.2212
19842TIP3    H181017   0.376   3.691   3.589  1.5845  0.4914  1.6577
19842TIP3    H281018   0.262   3.592   3.577  2.1533  0.0915 -1.3151
19843TIP3   OH281019   4.241   6.825   0.338  0.3014 -0.4131 -0.3316
19843TIP3    H181020   4.307   6.780   0.285 -0.4943 -2.4226  0.2766
19843TIP3    H281021   4.158   6.788   0.310 -0.4473  0.9442 -0.0067
19844TIP3   OH281022   2.975   4.704   6.040 -0.4999 -0.2342 -0.0939
19844TIP3    H181023   3.040   4.746   5.984  1.3716 -0.2593  1.9181
19844TIP3    H281024   3.027   4.660   6.108 -2.6117  0.2771  1.9723
19845TIP3   OH281025   3.285   4.849   3.072 -0.1177  0.1706 -0.0913
19845TIP3    H181026   3.245   4.897   3.144 -0.5621 -0.0246 -0.2075
19845TIP3    H281027   3.214   4.798   3.034  0.1911 -0.0079 -0.4399
19846TIP3   OH281028   0.363   2.226   0.796 -0.0583 -0.2363  0.1483
19846TIP3    H181029   0.375   2.257   0.707  0.0091  0.2028  0.3068
19846TIP3    H281030   0.278   2.261   0.823  0.2525  0.2559  0.5087
19847TIP3   OH281031   2.152   4.216   3.204 -0.1312  0.0439  0.6428
19847TIP3    H181032   2.122   4.257   3.123  0.0170 -0.7754  0.1662
19847TIP3    H281033   2.188   4.289   3.255  1.1194  0.3793 -0.6415
19848TIP3   OH281034   1.266   4.828  16.940 -0.0383  0.0579 -0.1706
19848TIP3    H181035   1.348   4.788  16.913 -0.1491 -0.4498  0.2227
19848TIP3    H281036   1.292   4.896  17.002  0.0678 -0.2880  0.1658
19849TIP3   OH281037   3.112   5.164  10.579 -0.6053 -0.0158 -0.4147
19849TIP3    H181038   3.078   5.253  10.575  1.5796  0.9386  0.5536
19849TIP3    H281039   3.182   5.162  10.513 -0.6387 -1.0434 -0.4429
19850TIP3   OH281040   4.532   5.465  15.178 -0.0684 -0.1564  0.0667
19850TIP3    H181041   4.592   5.526  15.133  0.6192 -1.2913 -0.6086
19850TIP3    H281042   4.561   5.468  15.269 -0.4311  0.9632  0.1664
19851TIP3   OH281043   1.018   2.419  15.017  0.7979 -0.0780  0.3266
19851TIP3    H181044   1.098   2.369  15.003  0.1005 -1.3495  0.6996
19851TIP3    H281045   1.013   2.478  14.943  2.6632  0.8464  0.8736
19852TIP3   OH281046   5.459   5.873  14.424  0.0866  0.0878  0.5640
19852TIP3    H181047   5.374   5.908  14.397  1.3768  2.4966 -0.7231
19852TIP3    H281048   5.442   5.834  14.510 -2.2618  0.7166  0.4653
19853TIP3   OH281049   1.717   0.031  12.743  0.2859  0.2399  0.5658
19853TIP3    H181050   1.662  -0.016  12.806 -0.7084 -0.0347 -0.4654
19853TIP3    H281051   1.694  -0.008  12.658  1.6608  0.5359  0.0419
19854TIP3   OH281052   0.294   5.627  12.459  0.5044 -0.8726  0.3076
19854TIP3    H181053   0.275   5.630  12.552 -0.9956 -1.8347  0.0618
19854TIP3    H281054   0.383   5.591  12.454  1.3277  0.8985  1.3877
19855TIP3   OH281055   6.032   2.803  15.030 -0.7013  0.4421  0.0612
19855TIP3    H181056   5.947   2.776  15.065 -1.2910 -0.1006 -1.7119
19855TIP3    H281057   6.024   2.897  15.017 -0.9392  0.4339  0.1324
19856TIP3   OH281058   2.745   1.425   2.186 -0.2734  0.2359  0.5382
19856TIP3    H181059   2.778   1.496   2.241 -0.4593 -0.5178  1.6460
19856TIP3    H281060   2.676   1.465   2.134  1.0092  1.3583 -0.3858
19857TIP3   OH281061   6.347   0.892   0.603 -0.7372  0.1807 -0.3417
19857TIP3    H181062   6.440   0.900   0.623 -0.4898 -0.0907 -1.3455
19857TIP3    H281063   6.335   0.800   0.579 -1.2358  0.2439 -0.3493
19858TIP3   OH281064   1.683   2.908  12.824  0.4369  0.6061 -0.2670
19858TIP3    H181065   1.594   2.894  12.855  0.4465  0.2048 -0.4240
19858TIP3    H281066   1.678   2.988  12.771  0.4751  1.4815  1.0027
19859TIP3   OH281067   2.395   4.610   6.087  0.4102  0.0359 -0.1992
19859TIP3    H181068   2.419   4.596   5.995 -0.3548  0.2953 -0.4487
19859TIP3    H281069   2.365   4.525   6.117  1.6245 -0.2857  0.1123
19860TIP3   OH281070   3.633   0.211  11.069  0.5395 -0.3108  0.0535
19860TIP3    H181071   3.668   0.152  11.136  0.0103 -1.1535 -0.3871
19860TIP3    H281072   3.688   0.196  10.992 -1.3419 -2.4565 -0.9905
19861TIP3   OH281073   4.222   1.080   0.562 -0.0326 -0.5579 -0.2769
19861TIP3    H181074   4.311   1.074   0.527  0.1119 -1.2248  0.1817
19861TIP3    H281075   4.166   1.050   0.490 -0.0548  1.5170 -1.1861
19862TIP3   OH281076   3.373   2.523  17.068  0.2622 -0.4487  0.0316
19862TIP3    H181077   3.432   2.448  17.079  2.1144  1.1658  1.9112
19862TIP3    H281078   3.373   2.540  16.974  0.5823 -2.1708 -0.3093
19863TIP3   OH281079   2.382   5.568  14.786  0.0578 -0.0246 -0.6850
19863TIP3    H181080   2.341   5.555  14.700  0.3304 -1.7024 -0.5988
19863TIP3    H281081   2.336   5.643  14.824  0.2425  1.0578 -2.4675
19864TIP3   OH281082   6.678   4.482  15.351 -0.3360  0.0680  0.1212
19864TIP3    H181083   6.713   4.404  15.309  0.0031 -0.3484  1.1562
19864TIP3    H281084   6.593   4.495  15.308  0.0657 -0.2344 -0.8049
19865TIP3   OH281085   5.784   5.716  16.213  0.4662  0.0433  1.3298
19865TIP3    H181086   5.837   5.736  16.136 -0.0168 -1.0413  0.7037
19865TIP3    H281087   5.708   5.670  16.179 -0.4775  0.8243  2.3096
19866TIP3   OH281088   2.209   3.350  13.951 -1.0002 -0.0188  0.3971
19866TIP3    H181089   2.268   3.318  13.882  1.0419 -1.4936  2.6501
19866TIP3    H281090   2.182   3.436  13.922  2.7866  1.0354 -0.5972
19867TIP3   OH281091   5.015   4.683   5.118  0.1039 -0.1488 -0.4239
19867TIP3    H181092   4.939   4.738   5.099  0.0298  0.4542  1.4535
19867TIP3    H281093   4.980   4.596   5.132 -0.1697 -0.0070 -0.2220
19868TIP3   OH281094   4.750   0.127   4.899 -0.0667  0.0147 -0.1415
19868TIP3    H181095   4.691   0.153   4.828 -1.3798 -2.6715 -0.1511
19868TIP3    H281096   4.793   0.048   4.866 -0.8665 -1.4404  2.1001
19869TIP3   OH281097   6.028   4.756  11.834  0.5472  0.4910 -0.1521
19869TIP3    H181098   5.995   4.815  11.766 -0.6175  1.4638  1.1978
19869TIP3    H281099   6.108   4.798  11.865 -0.9438  2.1847  1.7043
19870TIP3   OH281100   4.057   6.278   5.413  0.0431  0.2752  0.5428
19870TIP3    H181101   3.967   6.247   5.400 -0.5235  1.6774  0.9431
19870TIP3    H281102   4.073   6.266   5.506  0.0167  0.6640  0.5987
19871TIP3   OH281103   1.725   2.781   0.215 -0.0290 -0.0334  0.8260
19871TIP3    H181104   1.647   2.726   0.219  1.1883 -1.7548  2.2979
19871TIP3    H281105   1.695   2.866   0.249 -1.1720 -0.7748  1.7518
19872TIP3   OH281106   0.446   6.548   1.389  0.1014  0.2754 -0.1186
19872TIP3    H181107   0.376   6.494   1.424  2.0044 -1.5161  1.1574
19872TIP3    H281108   0.430   6.550   1.295 -1.7553  0.1313  0.1587
19873TIP3   OH281109   4.644   4.519  16.150  0.1165  0.2118  0.4688
19873TIP3    H181110   4.732   4.556  16.161 -0.2057  0.5097  2.2776
19873TIP3    H281111   4.639   4.499  16.056  2.2893 -0.2628  0.3927
19874TIP3   OH281112   4.431   1.622  16.691 -0.3051 -0.1715  0.5759
19874TIP3    H181113   4.411   1.676  16.615  0.5989 -1.6231 -0.7600
19874TIP3    H281114   4.365   1.553  16.689  0.2851 -0.7444  0.5379
19875TIP3   OH281115   0.489   5.004   4.607 -0.0954 -0.6628  0.3999
19875TIP3    H181116   0.502   4.940   4.538  0.1407  2.1006 -2.3451
19875TIP3    H281117   0.577   5.027   4.636  0.4002  2.4761 -2.8732
19876TIP3   OH281118   6.355   0.917  14.787  0.0311  0.9046  0.1149
19876TIP3    H181119   6.319   0.998  14.822 -0.6043  0.3580  0.7411
19876TIP3    H281120   6.390   0.942  14.701 -1.0800  1.6250 -0.1477
19877TIP3   OH281121   2.820   3.495  15.798  0.1513  0.1987  0.0354
19877TIP3    H181122   2.813   3.573  15.854  0.5047 -0.9163  1.7118
19877TIP3    H281123   2.880   3.437  15.846  1.7618 -0.1940 -2.2970
19878TIP3   OH281124   1.206   2.969  13.971  0.2952 -0.1638  0.5589
19878TIP3    H181125   1.113   2.948  13.979 -1.0529  3.5164 -2.2103
19878TIP3    H281126   1.240   2.968  14.060 -3.0927  0.7438  2.0035
19879TIP3   OH281127   2.670   1.254  16.655  0.7453  0.7610 -0.3503
19879TIP3    H181128   2.669   1.168  16.614  1.0291 -0.1075  1.3525
19879TIP3    H281129   2.579   1.284  16.651  0.9421  1.1772 -2.4686
19880TIP3   OH281130   0.201   3.673   1.087  0.1838  0.5703 -0.4794
19880TIP3    H181131   0.108   3.650   1.079  0.2224  0.4545 -0.6048
19880TIP3    H281132   0.213   3.744   1.024  0.1992  0.5231 -0.5309
19881TIP3   OH281133   0.732   1.564  10.841 -0.4425 -0.4886 -0.7208
19881TIP3    H181134   0.827   1.580  10.839 -0.2881 -1.0680  0.7170
19881TIP3    H281135   0.707   1.554  10.749  1.3077 -2.6565 -1.0227
19882TIP3   OH281136   2.943   3.080   3.373 -0.1902  0.6112  0.3345
19882TIP3    H181137   2.876   3.141   3.403 -1.9551 -0.8651 -0.3200
19882TIP3    H281138   3.015   3.089   3.435 -1.1115  2.0797  1.2467
19883TIP3   OH281139   3.933   2.106  15.304 -0.4737 -0.2765  0.9910
19883TIP3    H181140   3.934   2.172  15.373 -1.1683 -0.3641  1.0926
19883TIP3    H281141   3.856   2.053  15.323 -0.0986 -0.9279  0.7293
19884TIP3   OH281142   4.271   5.103   1.386 -0.4054 -0.3442  0.4577
19884TIP3    H181143   4.336   5.174   1.388  0.1506 -0.8568  1.0742
19884TIP3    H281144   4.241   5.095   1.476 -0.1848 -1.1472  0.4688
19885TIP3   OH281145   0.769   5.879   4.952 -0.2453  0.4387 -0.0596
19885TIP3    H181146   0.756   5.802   4.897  1.6176 -0.2631  0.3894
19885TIP3    H281147   0.864   5.892   4.953 -0.2347  0.6990  2.5672
19886TIP3   OH281148   4.615   2.840  17.078  0.1985 -0.2050 -0.0644
19886TIP3    H181149   4.615   2.851  17.173 -0.6018 -1.0844  0.0566
19886TIP3    H281150   4.656   2.919  17.044 -0.6354  0.6820  0.9499
19887TIP3   OH281151   3.570   5.909  11.957 -0.2002  0.0070 -0.2615
19887TIP3    H181152   3.576   5.994  11.913  0.7269  0.8090  1.3245
19887TIP3    H281153   3.595   5.927  12.047  0.1517 -1.9862  0.0838
19888TIP3   OH281154   0.204   2.813   1.716 -0.0514 -0.4005  0.0765
19888TIP3    H181155   0.165   2.746   1.773  0.9661 -0.6666  0.4894
19888TIP3    H281156   0.163   2.895   1.743 -1.1152 -0.8087 -0.2493
19889TIP3   OH281157   0.110   1.308   5.589  0.3222  0.1702 -0.6486
19889TIP3    H181158   0.018   1.307   5.615  0.1920  0.6836 -1.0810
19889TIP3    H281159   0.109   1.322   5.494  0.8230 -0.6809 -0.8006
19890TIP3   OH281160   4.328   5.266   6.634 -0.5946  0.4443  0.1739
19890TIP3    H181161   4.283   5.225   6.561 -0.5084  0.9526 -0.1715
19890TIP3    H281162   4.263   5.266   6.705 -0.2136 -1.3436  0.5681
19891TIP3   OH281163   4.985   4.844   1.645  0.5828 -0.0553  0.0206
19891TIP3    H181164   5.006   4.927   1.601  2.2694  0.4671  1.6381
19891TIP3    H281165   4.892   4.851   1.667  1.1615  2.4954  2.1427
19892TIP3   OH281166   2.832   2.821   1.932  0.4901  0.1031 -0.1454
19892TIP3    H181167   2.742   2.853   1.940  0.5429 -0.1688  2.0325
19892TIP3    H281168   2.871   2.877   1.865 -0.9667  0.9803 -0.3100
19893TIP3   OH281169   1.264   2.983  14.239 -0.0639  0.5038 -0.2732
19893TIP3    H181170   1.265   3.078  14.250  0.7706  0.6239 -1.2530
19893TIP3    H281171   1.280   2.949  14.328 -1.7598  1.2174  0.3509
19894TIP3   OH281172   4.397   5.008   2.441  0.2426 -0.2239  0.1039
19894TIP3    H181173   4.482   5.046   2.421  1.2303 -2.2069  0.2744
19894TIP3    H281174   4.339   5.083   2.455  1.8772  1.1646 -0.3190
19895TIP3   OH281175   4.615   5.152  16.131 -0.2408  0.8919 -0.0552
19895TIP3    H181176   4.626   5.242  16.102 -0.8077  0.3811 -2.0426
19895TIP3    H281177   4.703   5.123  16.155  0.0169  1.8033  0.1324
19896TIP3   OH281178   4.043   4.991  13.334 -0.3550  0.2158  0.1388
19896TIP3    H181179   4.138   5.001  13.337 -0.4369  0.7667  1.6939
19896TIP3    H281180   4.012   5.029  13.416 -1.9235  0.0309 -0.3336
19897TIP3   OH281181   5.336   5.009   3.750 -0.2238  0.3497  0.2386
19897TIP3    H181182   5.293   4.928   3.776  1.0788  0.1904  2.1198
19897TIP3    H281183   5.383   4.987   3.670 -2.4933  0.1967 -1.1441
19898TIP3   OH281184   0.581   5.896   3.028  0.3590  0.1711 -0.5896
19898TIP3    H181185   0.656   5.956   3.023  0.7592 -0.2495  0.1200
19898TIP3    H281186   0.518   5.941   3.084  1.2719 -0.6698  1.1898
19899TIP3   OH281187   1.722   4.374  14.125 -0.2314  0.3035  0.1716
19899TIP3    H181188   1.751   4.288  14.094  1.5877  0.8978  0.1151
19899TIP3    H281189   1.626   4.370  14.120 -0.1679 -1.5092 -0.3639
19900TIP3   OH281190   0.636   4.582   5.358 -0.6471 -0.4003  0.7733
19900TIP3    H181191   0.704   4.526   5.322 -0.0589 -1.3808  3.2082
19900TIP3    H281192   0.571   4.522   5.393 -1.0646  0.4629  1.5162
19901TIP3   OH281193   5.722   5.550   6.270 -0.5604 -0.4184 -0.2088
19901TIP3    H181194   5.727   5.575   6.363 -2.1569  0.7808 -0.3998
19901TIP3    H281195   5.787   5.605   6.227  0.2767 -1.0670  0.1901
19902TIP3   OH281196   6.565   1.382  15.157 -0.3760 -0.0134 -0.3320
19902TIP3    H181197   6.489   1.421  15.114  0.3794  1.3542 -0.4839
19902TIP3    H281198   6.528   1.330  15.229 -1.3745  2.5927  1.1453
19903TIP3   OH281199   2.569   6.048   2.352 -0.3657  0.0623  0.5127
19903TIP3    H181200   2.587   5.957   2.327  1.9285  0.2679  1.2411
19903TIP3    H281201   2.619   6.100   2.289 -2.0391  0.8826 -0.1951
19904TIP3   OH281202   1.846   1.911   0.202 -0.0395  0.3291  0.2053
19904TIP3    H181203   1.934   1.877   0.217 -0.5107 -0.6523  0.8051
19904TIP3    H281204   1.842   1.926   0.107  0.7038  0.2155  0.1476
19905TIP3   OH281205   6.353   3.496  14.460  0.1214 -0.0813  0.3237
19905TIP3    H181206   6.416   3.428  14.438  0.8377  0.6629  0.0196
19905TIP3    H281207   6.397   3.551  14.525 -0.5145 -0.0071  0.7049
19906TIP3   OH281208   2.784   3.858   6.180 -0.3973 -0.1288 -0.0979
19906TIP3    H181209   2.716   3.925   6.170  0.0067  0.2008 -0.6563
19906TIP3    H281210   2.736   3.776   6.176 -0.7871  0.1036 -0.3502
19907TIP3   OH281211   5.267   1.360  12.149  0.0777  0.4702 -0.0404
19907TIP3    H181212   5.341   1.313  12.109 -0.4398 -0.4705  0.0723
19907TIP3    H281213   5.194   1.298  12.143 -0.4846  1.0594  0.6267
19908TIP3   OH281214   3.729   1.773   1.461  0.3459 -0.1258 -0.3264
19908TIP3    H181215   3.751   1.774   1.368  0.3787  1.0928 -0.3259
19908TIP3    H281216   3.809   1.800   1.505  0.2548 -0.4359  0.0301
19909TIP3   OH281217   3.738   4.555   4.998 -0.6019 -0.1817  0.2412
19909TIP3    H181218   3.771   4.642   4.976  1.4559 -1.5530 -2.8131
19909TIP3    H281219   3.658   4.546   4.947 -1.0310  0.0019  0.8619
19910TIP3   OH281220   3.839   0.755   0.814  0.0197 -0.1920 -0.4048
19910TIP3    H181221   3.860   0.704   0.736  0.7075 -0.6938  0.0857
19910TIP3    H281222   3.925   0.777   0.851 -0.3019 -0.7320  0.6918
19911TIP3   OH281223   5.193   1.497  11.912  1.1389  0.3661 -0.1455
19911TIP3    H181224   5.201   1.442  11.990 -0.4486  0.1586 -0.0958
19911TIP3    H281225   5.106   1.478  11.878  1.5733  0.9113 -1.6377
19912TIP3   OH281226   1.860   0.386  14.434 -0.0624 -0.0587  0.0583
19912TIP3    H181227   1.910   0.314  14.475 -0.1421  0.1552  0.5381
19912TIP3    H281228   1.884   0.463  14.485  2.7461  0.9850 -2.5356
19913TIP3   OH281229   0.369   2.247  10.955  0.0973  0.7778  0.0899
19913TIP3    H181230   0.450   2.196  10.962  0.2263  0.2559 -3.2184
19913TIP3    H281231   0.311   2.210  11.021  1.4499 -1.1412  0.2885
19914TIP3   OH281232   0.955   1.942   2.049  0.1212 -0.1546 -0.9003
19914TIP3    H181233   0.938   1.887   2.125  3.2663 -1.0714 -0.6967
19914TIP3    H281234   0.950   1.883   1.974  0.0953  0.0474 -1.0593
19915TIP3   OH281235   0.693   4.675  16.359  0.0843  0.1581  0.4128
19915TIP3    H181236   0.671   4.759  16.399 -1.6402 -1.4504  3.2448
19915TIP3    H281237   0.620   4.656  16.300  0.1767  0.3689  0.2293
19916TIP3   OH281238   6.262   6.328   2.239  0.7090 -0.7356  0.1204
19916TIP3    H181239   6.220   6.252   2.200  0.1178  0.2872 -1.3320
19916TIP3    H281240   6.190   6.383   2.271  1.0766 -0.3312  0.2793
19917TIP3   OH281241   6.786   5.012   2.923 -0.1029  0.5050  0.0693
19917TIP3    H181242   6.755   5.042   2.837 -0.2428  0.4080  0.0868
19917TIP3    H281243   6.708   5.013   2.978  0.0040  0.6466  0.2187
19918TIP3   OH281244   1.595   1.214   2.184  0.3412  0.0386 -0.2102
19918TIP3    H181245   1.502   1.233   2.171  0.4880 -0.6420 -2.7291
19918TIP3    H281246   1.596   1.139   2.243 -0.7126 -0.0714 -0.3141
19919TIP3   OH281247   4.321   1.563   3.063 -0.0180  0.3468 -0.6652
19919TIP3    H181248   4.379   1.510   3.008  1.0250  2.3531 -1.6100
19919TIP3    H281249   4.241   1.570   3.012  0.3246  0.7690 -1.1572
19920TIP3   OH281250   4.939   1.644   5.672  0.2801 -0.1935  0.4640
19920TIP3    H181251   5.012   1.700   5.648 -0.2792  0.5258  0.3999
19920TIP3    H281252   4.910   1.678   5.757 -0.5658  0.1497  0.0569
19921TIP3   OH281253   1.405   5.979  11.986  0.0857  0.2902  0.0794
19921TIP3    H181254   1.358   5.897  11.998 -0.1999  0.5027  0.4483
19921TIP3    H281255   1.469   5.981  12.057 -1.5669  1.5249  1.6394
19922TIP3   OH281256   4.355   1.915  13.640  0.6861 -0.4136  0.4011
19922TIP3    H181257   4.390   1.944  13.555 -0.0823  1.6466  0.7269
19922TIP3    H281258   4.274   1.965  13.651  0.7507 -0.6595  2.3232
19923TIP3   OH281259   5.056   1.073  11.635  0.1594 -0.8358 -0.9237
19923TIP3    H181260   4.964   1.051  11.620 -0.3106  1.3125 -1.4030
19923TIP3    H281261   5.098   0.988  11.649 -2.2937 -1.7478  1.7908
19924TIP3   OH281262   6.508   6.710  14.603  0.4735  0.4120 -0.4516
19924TIP3    H181263   6.454   6.780  14.639 -0.5870 -1.3096  1.5676
19924TIP3    H281264   6.455   6.670  14.535 -0.4559 -0.6036  0.8128
19925TIP3   OH281265   1.519   6.782   5.092 -0.0663  0.3473 -0.2815
19925TIP3    H181266   1.571   6.782   5.172  0.1606 -1.3427 -0.3983
19925TIP3    H281267   1.580   6.813   5.024  0.3401 -0.1383 -0.1445
19926TIP3   OH281268   1.656   4.941  11.789  0.7606  0.3313  0.2770
19926TIP3    H181269   1.723   4.900  11.735  0.6888  1.0904 -0.4039
19926TIP3    H281270   1.577   4.888  11.774  0.7287  0.5700 -0.4048
19927TIP3   OH281271   0.544   0.863  15.973 -0.5256  0.0124 -0.2557
19927TIP3    H181272   0.469   0.828  16.020 -0.1042  0.3058  0.6637
19927TIP3    H281273   0.590   0.786  15.940 -0.3678 -0.2408  0.5461
19928TIP3   OH281274   6.644   5.059  13.001  0.2822 -0.0009 -0.2475
19928TIP3    H181275   6.695   5.039  12.923  0.2889 -3.6865  0.5069
19928TIP3    H281276   6.701   5.036  13.074 -1.0857 -0.4262  0.7195
19929TIP3   OH281277   4.142   3.403   4.749 -0.2743 -0.2980 -0.1405
19929TIP3    H181278   4.161   3.494   4.772 -0.0919 -0.6261  1.0732
19929TIP3    H281279   4.154   3.399   4.654  1.7333  0.4525  0.0443
19930TIP3   OH281280   4.981   5.856   0.232 -0.2617 -0.5231 -0.3773
19930TIP3    H181281   4.971   5.918   0.304 -1.1952 -1.4734  0.3296
19930TIP3    H281282   5.063   5.810   0.251 -0.9231 -1.3439  0.5348
19931TIP3   OH281283   0.343   2.049  12.531 -0.3569  0.5653  0.2317
19931TIP3    H181284   0.412   2.054  12.465  0.0594 -0.1158  0.6155
19931TIP3    H281285   0.266   2.085  12.486 -0.1430 -0.1120 -0.7156
19932TIP3   OH281286   5.934   4.419  12.087 -0.1456 -0.6987 -0.6023
19932TIP3    H181287   5.957   4.454  12.173  0.1063  0.1337 -0.9918
19932TIP3    H281288   5.905   4.495  12.037 -0.4556 -1.1978 -1.2046
19933TIP3   OH281289   3.734   1.255  16.701  0.2161 -0.2488 -0.1826
19933TIP3    H181290   3.766   1.289  16.617  1.1694 -0.0450  0.2394
19933TIP3    H281291   3.812   1.216  16.741 -0.4000 -1.0333  0.2769
19934TIP3   OH281292   5.530   3.928  16.325 -0.9554 -0.3830  0.8139
19934TIP3    H181293   5.549   3.936  16.231 -0.5421 -2.1491  0.7087
19934TIP3    H281294   5.600   3.978  16.368 -1.1766  0.4863  0.2003
19935TIP3   OH281295   2.444   5.960  12.107  0.1986 -0.0710 -0.1763
19935TIP3    H181296   2.384   5.950  12.033 -1.0922  0.2092  0.8021
19935TIP3    H281297   2.520   6.007  12.070 -0.4332  0.0903 -1.3048
19936TIP3   OH281298   0.503   1.327  10.856  0.3257  0.0658  0.5198
19936TIP3    H181299   0.523   1.409  10.811 -1.7814  0.0007 -0.6723
19936TIP3    H281300   0.434   1.350  10.919  1.3588 -0.3800  1.8711
19937TIP3   OH281301   1.729   0.236  15.796 -0.6873  0.1697  0.2037
19937TIP3    H181302   1.824   0.231  15.806 -0.6076  0.7611 -0.1944
19937TIP3    H281303   1.696   0.154  15.832  0.2062 -1.5852 -2.6202
19938TIP3   OH281304   2.541   5.130   0.033 -0.1902  0.4283 -0.3315
19938TIP3    H181305   2.453   5.166   0.039 -0.0505  0.7927 -0.3813
19938TIP3    H281306   2.532   5.052  -0.021 -0.4816  0.4719 -0.3456
19939TIP3   OH281307   0.092   5.032   0.742 -0.4705  0.4337 -0.0978
19939TIP3    H181308   0.168   5.027   0.685 -0.0066  1.1689  0.4310
19939TIP3    H281309   0.033   4.963   0.711 -0.7547  1.5370 -2.1995
19940TIP3   OH281310   6.459   0.836   2.687  0.1070 -0.0508  0.6932
19940TIP3    H181311   6.434   0.928   2.686  0.5222  0.1108 -1.9823
19940TIP3    H281312   6.533   0.831   2.747 -1.4009  0.8549  2.7371
19941TIP3   OH281313   3.262   4.382   3.668 -1.3200  0.2735 -0.3898
19941TIP3    H181314   3.170   4.404   3.677 -1.5982 -0.7322 -0.6424
19941TIP3    H281315   3.303   4.412   3.749 -1.8455  0.8146 -0.3222
19942TIP3   OH281316   6.342   5.966  14.864 -0.3009 -0.2523  0.3915
19942TIP3    H181317   6.424   6.015  14.861 -0.2862 -0.2297 -3.4546
19942TIP3    H281318   6.274   6.033  14.875 -0.0554  0.2991 -1.2545
19943TIP3   OH281319   2.768   3.117  12.290 -0.0380  0.1910 -0.1049
19943TIP3    H181320   2.678   3.106  12.318 -0.2017 -0.4970 -0.8670
19943TIP3    H281321   2.803   3.185  12.348 -0.9469  0.2483  0.3950
19944TIP3   OH281322   3.805   0.820   2.271  0.0345 -0.1029  0.0007
19944TIP3    H181323   3.881   0.867   2.304  1.2433 -1.3017 -0.9447
19944TIP3    H281324   3.773   0.771   2.347  0.3233  0.2523  0.3596
19945TIP3   OH281325   6.724   6.373   2.698 -0.2424  0.9568 -0.4626
19945TIP3    H181326   6.673   6.439   2.744 -0.1337  0.2683  0.6953
19945TIP3    H281327   6.667   6.343   2.627 -1.5142  0.1224  0.8721
19946TIP3   OH281328   5.619   6.359  13.555  0.2444 -0.6187 -0.2663
19946TIP3    H181329   5.685   6.342  13.622  1.1602 -0.0297 -0.9911
19946TIP3    H281330   5.569   6.278  13.548  0.3642 -0.8071  0.8545
19947TIP3   OH281331   2.451   2.374  11.869 -0.2986  0.1279 -0.3665
19947TIP3    H181332   2.395   2.300  11.846 -0.2250 -0.1074  0.1896
19947TIP3    H281333   2.540   2.345  11.848 -0.3219  0.2588 -0.6458
19948TIP3   OH281334   5.030   0.472   1.709 -0.0823 -0.6231 -0.0545
19948TIP3    H181335   4.970   0.543   1.729 -1.2886 -1.4861 -0.4938
19948TIP3    H281336   5.098   0.513   1.655 -0.2273  0.3817  0.5083
19949TIP3   OH281337   4.167   2.915  12.323 -0.2406  0.3812 -0.2208
19949TIP3    H181338   4.169   3.010  12.332 -0.3336  0.3772 -0.1582
19949TIP3    H281339   4.108   2.886  12.392 -0.0180  0.2574 -0.0814
19950TIP3   OH281340   0.676   4.863   1.483  0.2792 -0.2425 -0.4497
19950TIP3    H181341   0.727   4.784   1.499 -1.3652 -1.2335  0.1758
19950TIP3    H281342   0.585   4.836   1.496 -0.3841  1.5854 -0.9361
19951TIP3   OH281343   2.423   1.006   2.774 -0.5349  0.0578  0.3010
19951TIP3    H181344   2.396   1.032   2.863 -1.0666 -2.0012  0.8088
19951TIP3    H281345   2.342   0.974   2.734 -0.5003  1.8304 -1.3161
19952TIP3   OH281346   5.396   1.984  11.579 -0.0817 -1.0081 -0.8645
19952TIP3    H181347   5.336   1.986  11.654  0.8618 -0.9105 -0.0937
19952TIP3    H281348   5.338   1.983  11.502 -1.0959  1.0635 -0.2227
19953TIP3   OH281349   3.996   1.261  14.797  0.1087 -0.0500  0.2708
19953TIP3    H181350   4.029   1.282  14.884 -0.8292 -0.9597  0.8733
19953TIP3    H281351   3.927   1.325  14.781  0.6680  0.4840 -0.0708
19954TIP3   OH281352   6.208   5.507   4.894  0.3295 -0.4606 -0.1441
19954TIP3    H181353   6.236   5.588   4.852 -0.3685 -0.3045 -0.3355
19954TIP3    H281354   6.260   5.501   4.974 -1.5758  1.7206  1.3964
19955TIP3   OH281355   3.418   1.705   0.078 -0.1858  0.5698  0.0520
19955TIP3    H181356   3.488   1.718   0.142  0.7734 -0.5248 -0.7352
19955TIP3    H281357   3.358   1.778   0.092  1.8384  2.3718 -0.1888
19956TIP3   OH281358   3.053   3.935  15.338 -0.0104 -0.3622  0.1525
19956TIP3    H181359   2.977   3.924  15.396  0.2103 -0.0874  0.5001
19956TIP3    H281360   3.029   4.010  15.283 -0.1389 -0.4973  0.0265
19957TIP3   OH281361   5.952   6.654  16.627 -0.4859  0.0644  0.2643
19957TIP3    H181362   6.009   6.675  16.553 -0.4362  2.0130  0.8073
19957TIP3    H281363   5.910   6.571  16.603  0.8232 -0.2141 -1.1621
19958TIP3   OH281364   5.866   2.668   0.033 -0.8996 -0.0807 -0.1825
19958TIP3    H181365   5.829   2.614   0.103 -0.0359 -0.9125 -0.3563
19958TIP3    H281366   5.798   2.733   0.016 -1.4421 -0.3301  0.8998
19959TIP3   OH281367   1.149   0.768   5.281 -0.2619  0.1575  0.0219
19959TIP3    H181368   1.126   0.683   5.318 -1.2480  0.5396  0.3097
19959TIP3    H281369   1.154   0.752   5.186  0.2803 -0.3699  0.1324
19960TIP3   OH281370   5.404   1.711  13.026  0.5260  0.2568 -0.2272
19960TIP3    H181371   5.310   1.713  13.009  0.6923  1.8171 -1.1211
19960TIP3    H281372   5.410   1.710  13.122 -0.4188  1.4846 -0.1220
19961TIP3   OH281373   4.686   5.509   6.809 -0.7421  0.0319 -0.6336
19961TIP3    H181374   4.781   5.501   6.796 -0.7430 -0.2314 -0.4919
19961TIP3    H281375   4.649   5.501   6.721 -0.7614 -1.9481 -0.4891
19962TIP3   OH281376   2.310   5.157   4.106  0.2814 -0.2674 -0.2919
19962TIP3    H181377   2.230   5.210   4.105  2.0435  2.7341  1.8737
19962TIP3    H281378   2.292   5.089   4.171 -0.3609  0.7134  0.5985
19963TIP3   OH281379   0.734   4.815   4.430 -0.2994 -0.4779  0.3441
19963TIP3    H181380   0.643   4.839   4.414 -0.5413 -1.7758 -0.3605
19963TIP3    H281381   0.729   4.731   4.476  0.5406 -0.8502 -0.2233
19964TIP3   OH281382   3.741   6.613   3.672  0.1925  0.0087 -0.1623
19964TIP3    H181383   3.760   6.672   3.598 -1.6424 -1.7049 -2.1370
19964TIP3    H281384   3.652   6.580   3.654  0.2586 -1.5924  2.0681
19965TIP3   OH281385   4.695   3.962  12.471  0.6439  0.1391 -0.0585
19965TIP3    H181386   4.742   3.961  12.387 -0.0110 -0.1001 -0.4303
19965TIP3    H281387   4.682   4.055  12.490 -1.2923  0.2098 -1.4360
19966TIP3   OH281388   4.114   2.095   0.237  0.5456 -0.3617  0.0590
19966TIP3    H181389   4.191   2.042   0.216 -0.0230 -0.6432 -1.3922
19966TIP3    H281390   4.125   2.116   0.330  2.2830 -0.5345 -0.0667
19967TIP3   OH281391   3.616   4.126  11.049 -0.3378  0.0333 -0.5430
19967TIP3    H181392   3.690   4.187  11.052 -0.1181 -0.2574  0.2753
19967TIP3    H281393   3.657   4.040  11.038 -0.4302 -0.2984  1.3293
19968TIP3   OH281394   4.275   0.751  15.786 -0.2053 -0.1803  0.0611
19968TIP3    H181395   4.324   0.724  15.864  0.2017 -1.1811 -0.5084
19968TIP3    H281396   4.183   0.748  15.813 -0.0827 -0.7631  0.4369
19969TIP3   OH281397   2.393   1.556   5.547 -0.0444  0.1244 -0.3751
19969TIP3    H181398   2.325   1.496   5.576 -1.0668 -0.2122 -3.2076
19969TIP3    H281399   2.359   1.643   5.570 -0.3914 -0.1539  0.1852
19970TIP3   OH281400   2.860   2.333   3.942  0.2106  0.2476 -0.0726
19970TIP3    H181401   2.776   2.320   3.987 -0.6157  1.1812 -1.2717
19970TIP3    H281402   2.917   2.372   4.009 -0.3589 -0.2205  0.7019
19971TIP3   OH281403   3.754   4.764   1.527 -0.2812  0.1330 -0.1730
19971TIP3    H181404   3.687   4.714   1.481  0.8847 -1.1444 -0.5534
19971TIP3    H281405   3.805   4.805   1.457  0.5987 -0.6180  0.0083
19972TIP3   OH281406   1.179   2.668   1.165 -0.3277 -0.3635 -0.2029
19972TIP3    H181407   1.169   2.573   1.156  1.5321 -0.5374 -0.8913
19972TIP3    H281408   1.201   2.681   1.258  1.2726 -0.8433 -0.4850
19973TIP3   OH281409   1.361   6.335   0.796  0.0018  0.1361  0.1332
19973TIP3    H181410   1.360   6.415   0.848 -0.4688  0.0318  0.2924
19973TIP3    H281411   1.349   6.265   0.860 -1.2667  0.0530 -0.1760
19974TIP3   OH281412   2.932   3.971  13.292 -0.1571  0.7232 -0.0675
19974TIP3    H181413   3.009   3.926  13.326  0.0897  0.5366 -0.8493
19974TIP3    H281414   2.884   4.000  13.370 -0.3786 -0.9683  0.4583
19975TIP3   OH281415   0.141   6.416   2.793  0.2183 -0.7910  0.3308
19975TIP3    H181416   0.100   6.372   2.719  0.5391 -1.8955  0.7924
19975TIP3    H281417   0.154   6.347   2.858 -0.3015  0.1937  1.5322
19976TIP3   OH281418   2.451   5.597  12.868  0.2252 -0.2844 -0.0631
19976TIP3    H181419   2.514   5.543  12.916  1.1140  0.0102 -0.8462
19976TIP3    H281420   2.437   5.673  12.924  0.5760 -0.3546  0.1252
19977TIP3   OH281421   2.221   5.903  17.032 -0.0846 -0.2235  0.1661
19977TIP3    H181422   2.140   5.933  16.990 -0.9488  1.4736  2.8349
19977TIP3    H281423   2.288   5.963  16.999 -0.7654  1.1374  1.1607
19978TIP3   OH281424   1.060   0.395   2.912 -0.3432 -0.2353 -0.1250
19978TIP3    H181425   1.130   0.457   2.890  0.8609 -1.5491 -0.1492
19978TIP3    H281426   0.994   0.449   2.955  1.6572  0.7684  1.9465
19979TIP3   OH281427   5.569   2.943   2.623 -0.4982  0.3852  0.1331
19979TIP3    H181428   5.572   3.031   2.661  0.1095  0.8817 -1.0129
19979TIP3    H281429   5.555   2.885   2.698 -1.4570  1.4896  0.8373
19980TIP3   OH281430   0.399   5.695   3.074  0.2910 -0.9472  0.1892
19980TIP3    H181431   0.350   5.708   2.993  0.5117 -0.6919  0.0967
19980TIP3    H281432   0.466   5.763   3.074  0.1230 -0.7716  0.7188
19981TIP3   OH281433   1.472   4.501  16.610 -0.0201 -0.3919 -0.3170
19981TIP3    H181434   1.438   4.431  16.554  3.1306  0.1562 -3.3110
19981TIP3    H281435   1.456   4.581  16.559  1.0568  0.4076  0.5623
19982TIP3   OH281436   3.866   2.943   4.188  0.1911  0.0221  0.0852
19982TIP3    H181437   3.842   3.034   4.168  0.4763  0.7506  2.6933
19982TIP3    H281438   3.786   2.894   4.173 -1.3508  1.4624  2.7382
19983TIP3   OH281439   1.865   3.186   3.328  0.1173 -0.5531  0.1880
19983TIP3    H181440   1.940   3.131   3.349  2.1031  1.5521 -0.9670
19983TIP3    H281441   1.902   3.263   3.286 -2.5714  1.4124  1.1235
19984TIP3   OH281442   1.803   4.646   0.949 -0.1767 -0.0120  0.1073
19984TIP3    H181443   1.832   4.595   1.025  0.4050 -0.2615 -0.2788
19984TIP3    H281444   1.869   4.715   0.940 -0.8851  0.7426  0.5442
19985TIP3   OH281445   1.822   0.316   0.906 -0.2985 -0.4048 -1.0865
19985TIP3    H181446   1.838   0.232   0.948 -0.3440  0.8631  1.6578
19985TIP3    H281447   1.729   0.334   0.922  0.2929  1.3613  0.8792
19986TIP3   OH281448   3.352   0.437  12.928  0.4993  0.2825  0.3913
19986TIP3    H181449   3.379   0.484  13.006  0.0069 -2.5794  2.4380
19986TIP3    H281450   3.433   0.419  12.880  0.8004  2.0655  0.1795
19987TIP3   OH281451   4.548   4.954  13.986  0.0187  1.1255 -0.1968
19987TIP3    H181452   4.592   5.030  13.948 -0.8605  0.6626 -2.2871
19987TIP3    H281453   4.559   4.884  13.922 -0.8402  0.0351  0.7860
19988TIP3   OH281454   4.075   5.883  16.766 -0.5415  0.0841  0.4680
19988TIP3    H181455   4.136   5.862  16.696 -1.6564  0.1223 -0.5549
19988TIP3    H281456   4.115   5.847  16.845  1.0684  0.6178 -0.0607
19989TIP3   OH281457   2.016   3.609  11.946  0.5494  0.0691 -0.7947
19989TIP3    H181458   2.014   3.528  11.998 -2.8104  0.5560  0.0945
19989TIP3    H281459   2.077   3.666  11.993  0.0060 -0.6392  0.8541
19990TIP3   OH281460   6.317   3.103  13.350 -0.3345  0.1941  0.1491
19990TIP3    H181461   6.291   3.181  13.301 -0.6964 -0.2261 -0.3249
19990TIP3    H281462   6.409   3.118  13.371 -0.5305  0.9757  0.4903
19991TIP3   OH281463   6.565   0.742   3.304  0.3114 -0.5314 -0.0708
19991TIP3    H181464   6.632   0.740   3.236  0.2734  0.8564 -0.1786
19991TIP3    H281465   6.614   0.734   3.386  0.7426  1.3632 -0.1000
19992TIP3   OH281466   6.638   2.089  10.263  0.2104  0.2033  0.2484
19992TIP3    H181467   6.593   2.161  10.219  1.1404  0.3937 -0.4213
19992TIP3    H281468   6.603   2.010  10.222 -0.3050  0.2995  0.4968
19993TIP3   OH281469   5.728   4.601  13.917 -0.4003  0.1439 -0.0573
19993TIP3    H181470   5.818   4.621  13.891  0.0555 -1.1932  0.4045
19993TIP3    H281471   5.703   4.674  13.974  1.3689 -0.7311  1.9694
19994TIP3   OH281472   3.957   1.549  16.697 -0.3816  0.3269 -0.2938
19994TIP3    H181473   3.992   1.636  16.719  0.3685  0.2817 -1.2762
19994TIP3    H281474   3.908   1.562  16.616  2.2686 -0.6650 -2.2155
19995TIP3   OH281475   0.476   5.129   2.684 -0.6930 -0.0815  0.1633
19995TIP3    H181476   0.396   5.078   2.675 -0.5027 -0.1669 -1.2635
19995TIP3    H281477   0.539   5.085   2.626 -0.1989  1.1041 -0.2241
19996TIP3   OH281478   3.279   6.094   2.103  0.2403 -0.1331  0.1948
19996TIP3    H181479   3.230   6.123   2.026  1.0271  0.9168  0.0636
19996TIP3    H281480   3.268   6.164   2.166  1.8671  0.3285  0.0155
19997TIP3   OH281481   5.794   0.651  14.165 -0.2916 -0.1405  0.0905
19997TIP3    H181482   5.828   0.669  14.252 -2.3256  0.5392  0.8030
19997TIP3    H281483   5.750   0.566  14.174  0.4081 -0.5819 -0.5674
19998TIP3   OH281484   0.150   5.774   5.139 -0.0102  0.5604 -0.1844
19998TIP3    H181485   0.143   5.831   5.062 -0.5006  0.3330 -0.3154
19998TIP3    H281486   0.089   5.702   5.121  1.8459 -0.9342 -0.7945
19999TIP3   OH281487   5.290   4.576  14.483 -0.0564 -0.2860 -0.1806
19999TIP3    H181488   5.276   4.542  14.572 -1.6263  1.3892  0.2924
19999TIP3    H281489   5.324   4.665  14.497  0.8057 -0.4238 -1.2896
20000TIP3   OH281490   3.285   5.133   6.828 -0.3786 -0.0670  0.3639
20000TIP3    H181491   3.362   5.108   6.777 -1.0889 -1.5156 -0.0368
20000TIP3    H281492   3.302   5.224   6.853  2.7548 -1.0867  2.6224
20001TIP3   OH281493   0.245   6.338  13.604  0.2447 -0.4814  0.2316
20001TIP3    H181494   0.243   6.346  13.699 -0.9833 -1.2025  0.2992
20001TIP3    H281495   0.250   6.428  13.572 -0.2589 -0.1778  0.9771
20002TIP3   OH281496   0.456   6.140  16.795 -0.1778 -0.1464 -0.1176
20002TIP3    H181497   0.522   6.071  16.783  0.4216  0.6576 -1.8936
20002TIP3    H281498   0.424   6.158  16.706 -0.9357  1.2723  0.4084
20003TIP3   OH281499   0.290   3.534   0.189  0.5179  0.0261 -0.2691
20003TIP3    H181500   0.208   3.493   0.159  0.6808  0.7059 -1.7145
20003TIP3    H281501   0.287   3.525   0.284  0.4173 -3.1133 -0.4541
20004TIP3   OH281502   6.529   5.655  14.494 -0.1442 -0.7025  0.0448
20004TIP3    H181503   6.589   5.726  14.475 -0.8300 -0.4523 -1.2972
20004TIP3    H281504   6.565   5.579  14.448 -0.1367 -0.8836  0.3475
20005TIP3   OH281505   4.036   4.584  13.232  0.0745  0.2525  0.2393
20005TIP3    H181506   4.001   4.508  13.186  0.2312 -1.0226  2.1383
20005TIP3    H281507   3.986   4.658  13.197  0.1355 -0.6410 -1.8826
20006TIP3   OH281508   2.164   1.533  12.961  0.1183  0.0661  0.2772
20006TIP3    H181509   2.141   1.626  12.960  1.9801  0.5626 -0.2481
20006TIP3    H281510   2.095   1.491  12.910  0.7138  1.5731 -1.8934
20007TIP3   OH281511   0.280   0.384   5.027 -0.4498 -0.6000  0.1507
20007TIP3    H181512   0.227   0.327   4.971 -0.1143 -1.6917  0.9137
20007TIP3    H281513   0.218   0.448   5.062 -0.5209  0.7301 -2.1695
20008TIP3   OH281514   3.423   5.975  13.223 -0.0792  0.0139 -0.0393
20008TIP3    H181515   3.482   5.900  13.233 -0.5136 -0.3571 -0.2110
20008TIP3    H281516   3.471   6.036  13.167  0.7478  0.3738  1.0167
20009TIP3   OH281517   5.197   3.404  10.522 -0.1490  0.2494 -0.3074
20009TIP3    H181518   5.209   3.322  10.571 -0.2507 -0.6287 -1.6906
20009TIP3    H281519   5.171   3.468  10.588  1.3387 -0.4665  1.0498
20010TIP3   OH281520   4.329   4.551   3.352 -0.1553  0.3313  0.0889
20010TIP3    H181521   4.339   4.473   3.407  1.1803 -0.7204 -1.5562
20010TIP3    H281522   4.377   4.619   3.399  1.8513 -0.8056 -0.1882
20011TIP3   OH281523   1.671   2.177   4.114  1.0348  0.3210 -0.0802
20011TIP3    H181524   1.758   2.166   4.152  1.0027  0.5191  0.0483
20011TIP3    H281525   1.644   2.265   4.141  1.1254  0.5708 -0.7906
20012TIP3   OH281526   3.035   4.207   2.519 -0.4020 -0.3059  0.2647
20012TIP3    H181527   3.029   4.159   2.437 -0.3974 -0.9718  0.6431
20012TIP3    H281528   3.033   4.139   2.587  0.3293  0.1831  0.7909
20013TIP3   OH281529   4.514   3.398   3.134 -0.0825  0.0665 -0.0014
20013TIP3    H181530   4.533   3.304   3.138  2.2080  0.4385 -0.7681
20013TIP3    H281531   4.463   3.408   3.054 -0.1875 -0.5052 -0.0119
20014TIP3   OH281532   4.801   3.290   2.600  0.2935  0.0464  0.2153
20014TIP3    H181533   4.821   3.302   2.507 -3.6401 -0.5102 -0.8800
20014TIP3    H281534   4.728   3.350   2.616 -0.4333 -1.3192  2.3978
20015TIP3   OH281535   3.578   0.494   3.714  0.1059 -0.2300  0.2544
20015TIP3    H181536   3.503   0.552   3.725  0.1226 -0.1625  0.0120
20015TIP3    H281537   3.647   0.551   3.680 -0.1745 -0.5879 -0.9874
20016TIP3   OH281538   4.782   3.400   4.524  0.0288 -0.4711 -0.6070
20016TIP3    H181539   4.717   3.455   4.483  0.4290 -0.2917 -1.0081
20016TIP3    H281540   4.865   3.426   4.483  0.4484 -0.2197  0.3692
20017TIP3   OH281541   2.335   3.441  16.727 -0.0235  0.8502 -0.0592
20017TIP3    H181542   2.426   3.415  16.735 -0.1023  0.9785  1.5180
20017TIP3    H281543   2.301   3.390  16.653  0.6736 -1.0370  0.8822
20018TIP3   OH281544   0.250   4.871  13.632  0.9191 -0.1018  0.1011
20018TIP3    H181545   0.278   4.800  13.574 -2.5665  0.1379 -2.1781
20018TIP3    H281546   0.189   4.829  13.693 -1.7719  0.8667 -1.7489
20019TIP3   OH281547   0.129   4.760  15.502  0.0552  0.1711  0.0960
20019TIP3    H181548   0.175   4.844  15.501  2.4709 -1.0626  0.7748
20019TIP3    H281549   0.147   4.723  15.415  0.3324 -0.3142  0.3603
20020TIP3   OH281550   0.994   1.565  10.335 -0.0018 -0.0237 -0.3098
20020TIP3    H181551   1.031   1.639  10.382 -2.3065  1.6658 -0.9729
20020TIP3    H281552   0.969   1.502  10.403  1.7156 -0.1320  0.2727
20021TIP3   OH281553   6.242   2.578  15.797  0.0203  0.0894 -0.5068
20021TIP3    H181554   6.244   2.490  15.835 -0.5870  0.8901  1.5617
20021TIP3    H281555   6.306   2.628  15.849 -0.6913  1.2009 -0.6559
20022TIP3   OH281556   4.727   6.268  13.977 -0.0892  0.2590 -0.4184
20022TIP3    H181557   4.713   6.182  13.939 -1.6829  0.5270 -0.5054
20022TIP3    H281558   4.801   6.256  14.037 -0.2144 -1.1378 -0.5146
20023TIP3   OH281559   2.684   2.808   1.275  0.8716 -0.1646  0.3317
20023TIP3    H181560   2.643   2.733   1.319  0.0133  0.3053  0.3447
20023TIP3    H281561   2.722   2.771   1.195  0.4389 -0.6135  0.3273
20024TIP3   OH281562   2.036   0.737  16.532  0.5989  0.9617 -0.5327
20024TIP3    H181563   1.957   0.792  16.534  1.1526  1.7753  0.8533
20024TIP3    H281564   2.098   0.787  16.479  0.8608  1.3495  0.1235
20025TIP3   OH281565   1.426   3.673  16.924 -0.1407  0.4398  0.7370
20025TIP3    H181566   1.413   3.751  16.869 -0.5406 -0.8645 -1.1054
20025TIP3    H281567   1.469   3.610  16.866  0.2054 -0.7249  2.2055
20026TIP3   OH281568   2.212   0.966  16.721  0.7056  0.2475  0.0752
20026TIP3    H181569   2.261   0.978  16.639  0.2082 -0.4574 -0.3353
20026TIP3    H281570   2.278   0.943  16.785  1.3187  2.3067  0.2538
20027TIP3   OH281571   2.148   5.838  10.970  0.1941 -0.1711  0.5945
20027TIP3    H181572   2.138   5.902  11.040  2.1548  0.6078  0.2009
20027TIP3    H281573   2.211   5.877  10.910  1.0562 -2.2556  0.0751
20028TIP3   OH281574   2.876   1.966   2.252  1.2564  0.1908 -0.7830
20028TIP3    H181575   2.855   2.025   2.323  0.3640  0.3272 -1.1464
20028TIP3    H281576   2.896   1.882   2.295  1.3883  0.4462 -0.3446
20029TIP3   OH281577   4.096   4.647   3.578 -0.1780  0.1554  0.3760
20029TIP3    H181578   4.041   4.603   3.513  0.1648  1.3282 -0.7573
20029TIP3    H281579   4.164   4.584   3.600 -0.7237 -0.5165  0.1517
20030TIP3   OH281580   4.711   6.614  15.010 -0.5665 -0.2645 -0.4238
20030TIP3    H181581   4.624   6.606  15.049 -1.0649 -1.2780 -1.6585
20030TIP3    H281582   4.695   6.660  14.927 -0.0483 -1.1586 -1.0278
20031TIP3   OH281583   4.433   0.250   4.922 -0.1089  0.3495 -0.0426
20031TIP3    H181584   4.518   0.293   4.919 -0.6559  1.6125  1.2322
20031TIP3    H281585   4.373   0.314   4.884 -0.6345 -0.0940  0.0322
20032TIP3   OH281586   6.608   6.784  10.734  0.0136 -0.1455  0.1855
20032TIP3    H181587   6.591   6.849  10.667  2.4791  0.5253  0.1174
20032TIP3    H281588   6.618   6.702  10.686  0.4741  0.0964 -0.1391
20033TIP3   OH281589   2.376   6.509   4.214 -0.7090 -0.6598  0.1326
20033TIP3    H181590   2.367   6.456   4.294 -1.3755 -1.3362 -0.3701
20033TIP3    H281591   2.323   6.587   4.231  0.1981 -0.1798  0.8403
20034TIP3   OH281592   0.255   6.166   6.002 -0.0555 -0.1786  0.5283
20034TIP3    H181593   0.321   6.236   5.996 -0.1642 -0.0463  0.8724
20034TIP3    H281594   0.221   6.173   6.091  0.3213 -1.0234  0.7489
20035TIP3   OH281595   2.557   3.439  11.105 -0.2335  0.0802  0.3772
20035TIP3    H181596   2.581   3.351  11.131  1.5310  0.1031 -0.9703
20035TIP3    H281597   2.495   3.468  11.172  2.3186 -0.6322  3.2971
20036TIP3   OH281598   3.093   4.104  15.739 -0.4761 -0.1136 -0.1576
20036TIP3    H181599   3.032   4.031  15.745 -3.0506  1.8768 -0.2191
20036TIP3    H281600   3.089   4.145  15.826  0.9507 -0.0147 -0.1126
20037TIP3   OH281601   1.291   6.446  15.226 -0.7065 -0.3089 -0.4020
20037TIP3    H181602   1.383   6.454  15.201 -0.5706  0.5408  0.2856
20037TIP3    H281603   1.248   6.409  15.149  0.5203 -2.6072 -0.0467
20038TIP3   OH281604   5.617   6.482   2.004 -0.7963  1.2758  0.2103
20038TIP3    H181605   5.668   6.562   1.987  1.5850 -0.1644  0.1420
20038TIP3    H281606   5.657   6.446   2.084 -1.9293  0.2251  0.3182
20039TIP3   OH281607   5.404   5.340   2.629  0.9519  0.2302 -0.1593
20039TIP3    H181608   5.323   5.331   2.578  1.5966 -1.1679 -1.0012
20039TIP3    H281609   5.389   5.288   2.708  0.4107  1.3876  0.5199
20040TIP3   OH281610   5.555   0.864   2.468 -0.9045  0.7302 -0.3954
20040TIP3    H181611   5.566   0.933   2.533 -0.8165 -0.6620  1.1014
20040TIP3    H281612   5.465   0.876   2.437 -0.7283  1.8136 -0.5375
20041TIP3   OH281613   3.954   3.630   1.400 -0.4135 -0.6042  0.5806
20041TIP3    H181614   3.957   3.721   1.427  0.0762 -0.5071  0.2116
20041TIP3    H281615   4.044   3.609   1.374 -0.3016 -1.4762  1.5905
20042TIP3   OH281616   1.077   2.468  12.549  0.1423  0.6886  0.0674
20042TIP3    H181617   1.114   2.382  12.529 -1.4845  0.2431 -1.2607
20042TIP3    H281618   1.044   2.460  12.638  0.5344  0.1269  0.1679
20043TIP3   OH281619   1.841   6.171   2.168 -0.1877 -0.0186 -0.2221
20043TIP3    H181620   1.867   6.080   2.149  2.8571  0.6543  0.1914
20043TIP3    H281621   1.838   6.213   2.082 -0.4137 -0.2359 -0.3218
20044TIP3   OH281622   2.961   3.615  10.410 -0.3703  1.0453 -0.8376
20044TIP3    H181623   2.986   3.674  10.481 -1.4876  0.3391  0.1896
20044TIP3    H281624   3.035   3.555  10.401  0.7276  2.4846 -1.8171
20045TIP3   OH281625   2.256   2.719  12.069  0.0120 -0.0447  0.9108
20045TIP3    H181626   2.341   2.686  12.040 -0.8571 -0.8110 -0.9451
20045TIP3    H281627   2.263   2.722  12.165  2.1469  0.0241  0.8022
20046TIP3   OH281628   3.420   3.408  14.707 -0.2551 -0.2717 -0.2798
20046TIP3    H181629   3.377   3.479  14.660 -0.6392 -0.9139 -0.9111
20046TIP3    H281630   3.365   3.332  14.691  0.3462 -0.7950  0.0989
20047TIP3   OH281631   1.252   1.726   2.683 -0.4750  0.3335 -0.4731
20047TIP3    H181632   1.175   1.771   2.648 -0.8500 -0.5665 -0.8375
20047TIP3    H281633   1.283   1.671   2.610  1.7950  2.2372 -1.0599
20048TIP3   OH281634   4.481   6.814   5.689 -0.2681  0.7072 -0.0873
20048TIP3    H181635   4.467   6.754   5.617 -1.8539  1.6047 -0.5743
20048TIP3    H281636   4.568   6.791   5.723 -1.6387 -3.4135  1.2748
20049TIP3   OH281637   3.658   6.790   1.135  0.0104 -0.2375  0.1485
20049TIP3    H181638   3.608   6.870   1.151 -2.8776 -2.1565  1.8069
20049TIP3    H281639   3.735   6.798   1.190 -0.5483  1.1227  0.7798
20050TIP3   OH281640   1.434   1.579  16.193 -0.5630 -0.0229  0.0868
20050TIP3    H181641   1.388   1.504  16.156 -0.0758 -0.3718  0.1807
20050TIP3    H281642   1.441   1.642  16.121  2.1433 -1.4828 -1.0507
20051TIP3   OH281643   0.869   1.173  14.922 -0.2593  0.0450  0.1476
20051TIP3    H181644   0.782   1.133  14.915 -0.4269  0.5561 -0.7995
20051TIP3    H281645   0.858   1.242  14.987  0.0204 -1.3770  1.7681
20052TIP3   OH281646   0.758   6.822  15.208 -0.2257  0.7109 -0.3382
20052TIP3    H181647   0.767   6.736  15.169 -1.0339 -0.8229  2.5235
20052TIP3    H281648   0.828   6.874  15.169  1.5084 -1.7902 -0.8157
20053TIP3   OH281649   3.334   6.381   1.161  0.6168  0.5196 -0.1890
20053TIP3    H181650   3.255   6.381   1.214 -0.0268  0.0278 -1.1272
20053TIP3    H281651   3.345   6.472   1.133 -0.5723  0.3067 -1.4306
20054TIP3   OH281652   4.373   1.522   4.242 -0.3071  0.3141  0.1200
20054TIP3    H181653   4.452   1.476   4.213 -0.0944 -0.1081  1.3126
20054TIP3    H281654   4.403   1.580   4.312 -0.6870  1.8313 -0.9121
20055TIP3   OH281655   3.469   5.902   4.889  0.9454  0.4006  0.8839
20055TIP3    H181656   3.474   5.869   4.799 -0.2009 -0.7002  1.1821
20055TIP3    H281657   3.460   5.997   4.880  2.6706  0.5145 -0.0767
20056TIP3   OH281658   6.466   5.799  11.944  0.3726 -0.0554 -0.3296
20056TIP3    H181659   6.461   5.894  11.934  0.7217  0.0937  0.7534
20056TIP3    H281660   6.376   5.769  11.934 -0.0871  0.6287  1.3178
20057TIP3   OH281661   1.020   0.103   4.682 -0.2994 -0.1176 -0.4917
20057TIP3    H181662   1.034   0.048   4.605 -0.9768 -0.6715 -0.2291
20057TIP3    H281663   0.926   0.120   4.683 -0.2170  0.3567 -0.0927
20058TIP3   OH281664   0.327   1.225  14.661  0.2415 -0.2196  0.5152
20058TIP3    H181665   0.362   1.136  14.659  1.1187  0.1230  0.0302
20058TIP3    H281666   0.232   1.213  14.665  0.0563 -1.2471 -2.9659
20059TIP3   OH281667   2.783   4.633   1.078  0.3633 -0.0225  0.9507
20059TIP3    H181668   2.803   4.551   1.034 -0.1703  0.5098 -0.3410
20059TIP3    H281669   2.845   4.637   1.151 -0.2218 -1.9923  1.6124
20060TIP3   OH281670   3.138   6.023   5.331 -0.0639 -0.1824  0.3925
20060TIP3    H181671   3.193   6.061   5.399 -1.0269  1.1302  0.4771
20060TIP3    H281672   3.048   6.040   5.361 -0.5073 -0.8066 -0.5411
20061TIP3   OH281673   6.169   2.346   2.373  0.0605 -0.0743  0.1950
20061TIP3    H181674   6.096   2.293   2.341 -0.7546  0.1158  1.7021
20061TIP3    H281675   6.145   2.369   2.462  2.5507 -1.1062  1.2154
20062TIP3   OH281676   2.474   3.463   6.341 -0.1358 -0.0304 -0.3624
20062TIP3    H181677   2.419   3.402   6.291  0.9121 -2.1253  0.9362
20062TIP3    H281678   2.414   3.534   6.365 -1.4537 -0.6066 -1.7285
20063TIP3   OH281679   1.498   6.830   5.609  0.3304 -0.0917  0.2583
20063TIP3    H181680   1.436   6.757   5.606 -0.1547  0.2770  1.0282
20063TIP3    H281681   1.542   6.828   5.524 -1.0946 -0.0595 -0.5065
20064TIP3   OH281682   4.587   0.339   5.840  0.3057 -0.0396  0.2167
20064TIP3    H181683   4.565   0.279   5.911 -0.4160  1.9383  1.7767
20064TIP3    H281684   4.503   0.356   5.797  0.4966 -0.1315 -0.1897
20065TIP3   OH281685   3.043   2.558   4.672 -0.9362 -0.8714 -0.0159
20065TIP3    H181686   2.980   2.492   4.643 -0.8269 -1.9254  2.0053
20065TIP3    H281687   3.064   2.534   4.762  0.0635  1.2219  0.3752
20066TIP3   OH281688   6.531   2.941   2.090 -0.5106 -0.3382 -0.8825
20066TIP3    H181689   6.523   2.879   2.162  1.6967 -1.7259 -1.7180
20066TIP3    H281690   6.456   2.922   2.034 -0.0296 -2.1591 -0.9863
20067TIP3   OH281691   3.715   0.102  12.831 -0.0593  0.5552 -0.2965
20067TIP3    H181692   3.757   0.017  12.848 -0.9113  0.0857 -0.5046
20067TIP3    H281693   3.734   0.119  12.739  2.3012  1.8444  0.3371
20068TIP3   OH281694   4.517   0.553   2.976  0.6316 -0.8488 -0.1449
20068TIP3    H181695   4.542   0.497   3.050  0.9422 -0.6117 -0.0674
20068TIP3    H281696   4.589   0.541   2.913  1.2110  0.2217  0.2818
20069TIP3   OH281697   4.387   2.351   5.710  0.0988  0.8641  0.0597
20069TIP3    H181698   4.337   2.417   5.663 -0.8030  0.6677  0.7091
20069TIP3    H281699   4.327   2.320   5.779  0.1350 -1.2815 -0.7985
20070TIP3   OH281700   4.140   5.557   5.776  0.0519 -0.1800 -0.2562
20070TIP3    H181701   4.111   5.466   5.783  0.1601 -0.1985 -0.0033
20070TIP3    H281702   4.159   5.570   5.683  0.4805 -0.5573 -0.2257
20071TIP3   OH281703   1.997   2.306  14.114 -0.4636 -0.1696 -0.0360
20071TIP3    H181704   1.982   2.219  14.151 -0.5585  0.3083  1.0890
20071TIP3    H281705   2.066   2.344  14.169 -0.4937  0.4970 -0.4463
20072TIP3   OH281706   6.735   1.626  16.570 -0.1068  0.9581  0.1071
20072TIP3    H181707   6.738   1.708  16.521 -0.8641 -0.0788 -1.7272
20072TIP3    H281708   6.644   1.598  16.566  0.2163 -0.1809  0.3886
20073TIP3   OH281709   6.127   5.244   5.250 -0.3989 -0.5314 -0.5838
20073TIP3    H181710   6.071   5.284   5.183  3.1414  0.7836 -3.0548
20073TIP3    H281711   6.120   5.150   5.234 -0.1714 -0.2778 -2.4018
20074TIP3   OH281712   6.436   4.307  11.568 -0.2173 -0.3279 -0.1707
20074TIP3    H181713   6.359   4.348  11.529 -0.2609  1.0507  1.2785
20074TIP3    H281714   6.425   4.321  11.662  0.7421 -2.0135  0.2293
20075TIP3   OH281715   5.444   5.319   6.445 -0.1931 -0.0249  0.6118
20075TIP3    H181716   5.358   5.281   6.426 -0.2160  0.3840 -0.1305
20075TIP3    H281717   5.495   5.246   6.482 -0.9982 -0.1477  1.5032
20076TIP3   OH281718   5.917   4.402  11.525 -0.3744  0.2726 -0.1530
20076TIP3    H181719   5.989   4.411  11.587  0.3402  0.0187 -0.9151
20076TIP3    H281720   5.957   4.419  11.440 -0.6553 -2.1610 -0.8603
20077TIP3   OH281721   0.287   1.503  14.791  0.1789  1.0156  0.4474
20077TIP3    H181722   0.350   1.517  14.862 -1.0833  0.9297  1.6149
20077TIP3    H281723   0.279   1.407  14.785 -0.2010  1.0333  0.6399
20078TIP3   OH281724   3.288   4.909  11.117 -0.0529 -0.7902  0.1844
20078TIP3    H181725   3.274   4.994  11.074  2.2727 -0.6675 -0.4543
20078TIP3    H281726   3.200   4.880  11.142 -0.9364  1.6877  0.2169
20079TIP3   OH281727   5.228   0.643  12.534 -0.4460 -0.4626  0.9163
20079TIP3    H181728   5.261   0.683  12.453 -1.1054 -1.1055  0.3161
20079TIP3    H281729   5.301   0.649  12.595  0.1271 -0.1307  0.2129
20080TIP3   OH281730   4.828   0.865  16.607  0.0356  0.0873 -0.5386
20080TIP3    H181731   4.840   0.870  16.702  0.5632  1.7095 -0.6667
20080TIP3    H281732   4.857   0.776  16.585  0.7187 -0.0316  0.7135
20081TIP3   OH281733   3.152   3.621   0.487 -0.3674  0.1394  0.1035
20081TIP3    H181734   3.226   3.569   0.518 -0.0219 -0.0006 -0.8895
20081TIP3    H281735   3.174   3.711   0.510 -0.4281 -0.0220  0.8131
20082TIP3   OH281736   0.960   0.427   6.169  0.5689 -0.2221  0.1380
20082TIP3    H181737   0.864   0.437   6.163  0.7012  1.0033 -0.2671
20082TIP3    H281738   0.982   0.368   6.097  0.2407  0.4920 -0.5623
20083TIP3   OH281739   3.354   5.677  13.227  0.4268 -0.2465 -0.1699
20083TIP3    H181740   3.386   5.596  13.188 -0.0665  0.1674 -1.4995
20083TIP3    H281741   3.259   5.674  13.214  0.2777  0.0756  0.7184
20084TIP3   OH281742   1.351   3.235  14.269 -0.5236 -0.3947 -0.3635
20084TIP3    H181743   1.422   3.187  14.227 -1.3374 -1.0004 -1.0865
20084TIP3    H281744   1.359   3.324  14.234  0.1193 -0.3482 -0.1211
20085TIP3   OH281745   3.455   4.593   3.998 -0.0692  0.0842  0.1265
20085TIP3    H181746   3.540   4.592   3.953 -0.3576  0.9871 -0.4731
20085TIP3    H281747   3.426   4.502   3.995  0.7312 -0.1811  0.0521
20086TIP3   OH281748   3.478   4.048  12.743 -0.0210  0.3393 -0.1369
20086TIP3    H181749   3.428   4.082  12.669  0.8428  0.3962 -0.7135
20086TIP3    H281750   3.536   4.121  12.769  0.7151 -0.1595 -0.3550
20087TIP3   OH281751   0.384   3.601  14.408  0.1490 -0.0178 -0.3975
20087TIP3    H181752   0.297   3.625  14.440 -0.5227 -2.3801 -0.2417
20087TIP3    H281753   0.385   3.631  14.318  0.6918  3.4741  0.6479
20088TIP3   OH281754   6.594   0.505  13.577 -0.0489  0.3753 -0.0667
20088TIP3    H181755   6.553   0.476  13.495 -0.7667  0.7908  0.1357
20088TIP3    H281756   6.553   0.589  13.595  0.1753  0.3269  0.6767
20089TIP3   OH281757   5.511   0.075   5.027 -0.4632 -0.6272  0.4640
20089TIP3    H181758   5.565   0.091   5.105  1.6534 -1.1712 -0.8183
20089TIP3    H281759   5.464   0.157   5.013  0.4683  0.0804  1.3038
20090TIP3   OH281760   5.120   3.573   1.876 -0.8123  0.6442  0.2219
20090TIP3    H181761   5.112   3.669   1.877 -0.0293  0.7532 -1.3000
20090TIP3    H281762   5.182   3.553   1.946 -0.2015  1.3488 -0.1046
20091TIP3   OH281763   4.102   6.637  15.115 -0.6546 -0.6231  0.1421
20091TIP3    H181764   4.158   6.706  15.150 -0.6164 -0.2649 -0.6033
20091TIP3    H281765   4.065   6.674  15.035  0.2569 -1.8643 -0.9006
20092TIP3   OH281766   5.224   6.587  12.943  0.0545 -0.2139 -0.1314
20092TIP3    H181767   5.308   6.632  12.932  0.4996 -1.0816 -0.3665
20092TIP3    H281768   5.197   6.565  12.853 -0.0671 -0.5677 -0.0093
20093TIP3   OH281769   3.102   0.149  13.263  0.3258 -0.6372  0.6004
20093TIP3    H181770   3.026   0.176  13.315  2.5426  1.4721  3.1075
20093TIP3    H281771   3.117   0.222  13.203 -0.0948 -1.4234 -0.4776
20094TIP3   OH281772   6.757   4.065   3.987 -0.1697  0.3186  0.4331
20094TIP3    H181773   6.741   4.144   4.038 -0.3904  0.3812  0.2633
20094TIP3    H281774   6.813   4.093   3.915 -0.5070  0.3802  0.1947
20095TIP3   OH281775   6.549   0.531   0.853  0.4827 -0.7390  0.4948
20095TIP3    H181776   6.522   0.523   0.944 -0.1769 -2.1476  0.1980
20095TIP3    H281777   6.584   0.620   0.846  0.4184 -0.5681  2.0771
20096TIP3   OH281778   2.902   4.187  12.238 -0.6590  0.6524 -0.0234
20096TIP3    H181779   2.946   4.115  12.193  1.0138  2.2987 -1.1337
20096TIP3    H281780   2.958   4.263  12.224 -2.3172  2.1902  1.1682
20097TIP3   OH281781   1.264   4.507  11.525 -0.1502 -0.0762  0.5272
20097TIP3    H181782   1.243   4.415  11.540 -0.8761  0.0564  0.3426
20097TIP3    H281783   1.190   4.555  11.562 -0.4090  0.3822 -0.5539
20098TIP3   OH281784   4.978   1.788  10.464  0.2986 -0.1873 -0.2599
20098TIP3    H181785   4.921   1.804  10.538  0.6248 -1.8723  0.4026
20098TIP3    H281786   4.920   1.790  10.388 -0.5305 -1.1606  0.3261
20099TIP3   OH281787   4.448   0.427  16.799 -0.0728 -0.3611  0.1194
20099TIP3    H181788   4.453   0.521  16.781  1.5778 -0.4238  0.0256
20099TIP3    H281789   4.371   0.397  16.751  0.0928  0.7341 -0.8900
20100TIP3   OH281790   0.329   4.174  14.727 -0.0895  0.2935 -0.8672
20100TIP3    H181791   0.245   4.183  14.773  0.3330  0.0637 -0.0258
20100TIP3    H281792   0.388   4.233  14.774  0.6940 -0.9184 -0.2647
20101TIP3   OH281793   3.280   4.134   5.448  0.0219  0.0828  0.4118
20101TIP3    H181794   3.285   4.196   5.375  0.2946 -1.3478 -0.8270
20101TIP3    H281795   3.187   4.112   5.455 -0.0283  0.3541  0.6290
20102TIP3   OH281796   5.674   5.435  10.857 -0.8659 -0.4032  0.1783
20102TIP3    H181797   5.669   5.476  10.771  0.3327  0.8178  0.6358
20102TIP3    H281798   5.750   5.377  10.852 -0.7870 -0.3232  0.3995
20103TIP3   OH281799   5.695   4.654   3.645  0.3705 -0.6527 -0.1640
20103TIP3    H181800   5.706   4.593   3.718  1.0204  0.8923  1.1181
20103TIP3    H281801   5.609   4.634   3.609 -1.4592  0.4905  3.0832
20104TIP3   OH281802   4.078   5.213  16.546  0.3338  0.9874  0.5645
20104TIP3    H181803   4.069   5.308  16.551  1.0471  1.0690  0.3058
20104TIP3    H281804   3.996   5.183  16.506  1.1976  1.7474 -1.9614
20105TIP3   OH281805   1.232   6.364   6.217 -0.3562  0.2117  0.0650
20105TIP3    H181806   1.315   6.400   6.247 -0.6849  0.2057  1.0000
20105TIP3    H281807   1.250   6.271   6.204 -0.0689  0.3152 -0.3077
20106TIP3   OH281808   5.495   2.075   2.647 -0.1978 -0.7667 -0.2456
20106TIP3    H181809   5.554   2.132   2.598  0.5441 -1.9159 -0.7323
20106TIP3    H281810   5.497   1.992   2.600 -0.2191 -1.6129  1.1828
20107TIP3   OH281811   5.465   6.035  14.698 -0.0543 -0.0188  0.7252
20107TIP3    H181812   5.552   6.057  14.664 -0.4460  1.6911  0.7058
20107TIP3    H281813   5.475   5.949  14.737  1.6894  0.2001  0.8282
20108TIP3   OH281814   3.018   4.186   2.880  0.2558 -0.6796  0.0438
20108TIP3    H181815   3.003   4.112   2.821 -0.2449 -0.7497  0.2539
20108TIP3    H281816   3.006   4.148   2.968  0.2879 -0.4160  0.1619
20109TIP3   OH281817   0.801   1.327  16.348  0.5856  0.6101 -0.0144
20109TIP3    H181818   0.889   1.294  16.363  0.8240  1.8109  1.3555
20109TIP3    H281819   0.804   1.366  16.261  1.2230  0.0929 -0.2288
20110TIP3   OH281820   3.709   4.469  14.999 -0.3544 -0.1401 -0.2829
20110TIP3    H181821   3.699   4.397  14.937  0.5579  0.3818 -1.0591
20110TIP3    H281822   3.620   4.494  15.022 -0.7334  0.2547 -2.0997
20111TIP3   OH281823   1.587   1.959  13.949  0.1605  0.5601  0.3732
20111TIP3    H181824   1.667   1.957  14.002  0.2129  0.5674  0.2943
20111TIP3    H281825   1.618   1.953  13.859  0.1484  1.8302  0.2714
20112TIP3   OH281826   4.171   4.953  14.008 -0.0468  0.1522  0.4125
20112TIP3    H181827   4.207   4.974  13.922  2.3638 -0.4843  1.1876
20112TIP3    H281828   4.082   4.922  13.990 -0.5807  2.5654 -1.5483
20113TIP3   OH281829   4.361   3.885  12.975  0.0649  0.4253 -0.2401
20113TIP3    H181830   4.338   3.976  12.956  2.1825  1.2242  0.7037
20113TIP3    H281831   4.412   3.856  12.900 -1.6008 -0.4478 -1.0976
20114TIP3   OH281832   2.693   6.075  14.405  0.1398 -0.2427 -0.9408
20114TIP3    H181833   2.776   6.083  14.357  1.1943  0.5351  0.8964
20114TIP3    H281834   2.719   6.075  14.497 -1.8513 -1.0027 -0.3334
20115TIP3   OH281835   3.903   2.558  10.797  0.1211 -0.2409 -0.2509
20115TIP3    H181836   3.969   2.597  10.739 -0.9555 -0.4833 -1.6927
20115TIP3    H281837   3.821   2.566  10.749 -0.6668 -1.3397  0.8389
20116TIP3   OH281838   6.012   3.368  12.724  0.5860  0.5509 -0.4919
20116TIP3    H181839   6.040   3.424  12.651 -0.0281  1.6538  0.1024
20116TIP3    H281840   6.042   3.413  12.802  1.0178 -0.5060 -0.0228
20117TIP3   OH281841   3.603   4.496   4.668 -0.2874  0.3019 -0.2136
20117TIP3    H181842   3.608   4.433   4.739  1.5329  0.6964  0.0535
20117TIP3    H281843   3.580   4.444   4.591 -2.4742 -0.1052  0.6433
20118TIP3   OH281844   1.098   1.745  10.531 -0.5185 -0.1221  0.6205
20118TIP3    H181845   1.090   1.839  10.541 -0.3402  0.1921 -1.6339
20118TIP3    H281846   1.192   1.728  10.537 -0.4633 -0.0163  0.0819
20119TIP3   OH281847   3.356   2.456   2.487  0.3384 -0.0984 -0.2312
20119TIP3    H181848   3.363   2.521   2.418 -1.0607 -1.3342 -1.6040
20119TIP3    H281849   3.340   2.507   2.567  2.3801  1.3634 -0.6882
20120TIP3   OH281850   0.316   6.762  15.521  0.7650 -0.1480 -0.1296
20120TIP3    H181851   0.320   6.840  15.465  1.2180 -1.2416 -1.7192
20120TIP3    H281852   0.373   6.699  15.477  0.8758 -1.1852  1.4320
20121TIP3   OH281853   0.305   3.123  13.915  0.3621 -0.1212 -0.2674
20121TIP3    H181854   0.216   3.128  13.880  0.9516 -0.1986 -1.8397
20121TIP3    H281855   0.345   3.206  13.889  0.8248 -0.1842  0.2286
20122TIP3   OH281856   5.936   3.291  11.105 -0.3544  0.4358  0.2670
20122TIP3    H181857   5.934   3.203  11.143 -1.9020  0.2853 -0.1222
20122TIP3    H281858   6.029   3.309  11.093  0.0515 -0.6169  1.5604
20123TIP3   OH281859   6.208   4.536   0.236  0.1150 -0.3463  0.1016
20123TIP3    H181860   6.227   4.447   0.206  1.0759 -0.3302  0.6593
20123TIP3    H281861   6.292   4.572   0.260 -0.1785  0.9509 -0.7158
20124TIP3   OH281862   0.386   6.193  10.369 -0.3710 -0.4478 -0.4454
20124TIP3    H181863   0.300   6.198  10.327 -0.3650  0.0635 -0.3987
20124TIP3    H281864   0.439   6.258  10.323  0.2840 -1.4435 -1.1367
20125TIP3   OH281865   4.378   6.432  13.176  0.1260 -0.4062  0.0205
20125TIP3    H181866   4.335   6.422  13.261  1.6149 -1.0884  0.7138
20125TIP3    H281867   4.329   6.503  13.133 -1.1223 -0.5725  1.1193
20126TIP3   OH281868   0.125   2.139   0.458  0.1331  0.3657  0.0385
20126TIP3    H181869   0.064   2.128   0.531  1.1410  0.8031  0.9628
20126TIP3    H281870   0.109   2.063   0.402  0.3889 -0.7796  1.4718
20127TIP3   OH281871   0.739   1.648  10.234  0.7100  0.1094 -0.2515
20127TIP3    H181872   0.833   1.652  10.251  0.8607 -0.0114 -1.0104
20127TIP3    H281873   0.721   1.554  10.224  0.4079  0.0940  0.4335
20128TIP3   OH281874   4.173   2.378  14.169  0.0792  0.3950  0.1462
20128TIP3    H181875   4.145   2.290  14.146  1.6423  0.4422 -2.2728
20128TIP3    H281876   4.256   2.367  14.215  0.5004  0.5849 -0.5453
20129TIP3   OH281877   2.742   0.890   1.915  0.4901  0.1082  0.0331
20129TIP3    H181878   2.753   0.927   1.827  0.1283  1.4324  0.5268
20129TIP3    H281879   2.778   0.956   1.974  2.5882 -1.5981  0.8112
20130TIP3   OH281880   3.734   5.195   0.665 -0.0587  0.7080  0.9330
20130TIP3    H181881   3.800   5.190   0.597 -0.7850  3.2149 -0.0697
20130TIP3    H281882   3.742   5.112   0.713  0.2632 -1.3292 -2.3412
20131TIP3   OH281883   6.549   0.018   2.045  0.3516 -0.2434 -0.1772
20131TIP3    H181884   6.576  -0.073   2.039 -0.2814 -0.4486  0.0795
20131TIP3    H281885   6.627   0.063   2.079  0.8798 -0.5694 -0.9300
20132TIP3   OH281886   2.135   6.407  14.161  0.1256 -0.3202 -0.1697
20132TIP3    H181887   2.154   6.334  14.103  0.7602  1.0381 -1.7646
20132TIP3    H281888   2.220   6.450  14.175  0.1028 -0.9069  2.2676
20133TIP3   OH281889   2.407   5.854  14.317 -0.1602  0.6085 -0.0594
20133TIP3    H181890   2.385   5.821  14.229  0.4818  1.1161 -0.4176
20133TIP3    H281891   2.438   5.943  14.302  0.4420  0.5201  0.6367
20134TIP3   OH281892   0.081   0.375   3.736  0.1396 -0.2224 -0.0103
20134TIP3    H181893   0.147   0.443   3.720 -1.6716  1.2770 -1.5659
20134TIP3    H281894   0.035   0.405   3.814  0.7464 -0.8435  0.5964
20135TIP3   OH281895   6.651   6.707  12.229 -0.6752  0.0570  0.0459
20135TIP3    H181896   6.677   6.769  12.296  3.1203 -0.9890 -0.2516
20135TIP3    H281897   6.674   6.750  12.146  1.2724 -1.3042 -0.1896
20136TIP3   OH281898   0.394   3.325  14.497  0.3597  0.2416  0.2971
20136TIP3    H181899   0.385   3.412  14.460 -1.8219 -0.0446  0.0487
20136TIP3    H281900   0.438   3.339  14.581 -1.4668  1.8174  1.0681
20137TIP3   OH281901   4.128   1.299  16.922  0.2077 -0.1175 -0.0059
20137TIP3    H181902   4.056   1.243  16.895  1.1599 -2.3456  1.7514
20137TIP3    H281903   4.087   1.367  16.976 -0.6867 -0.8180  0.2245
20138TIP3   OH281904   6.557   0.500   0.508 -0.3977  0.0784  0.2693
20138TIP3    H181905   6.573   0.585   0.466 -0.3680 -0.6737 -1.3174
20138TIP3    H281906   6.463   0.501   0.527 -0.3871  0.4807  0.3234
20139TIP3   OH281907   0.794   3.515   4.129  0.6153  0.0904  1.2270
20139TIP3    H181908   0.853   3.439   4.129  0.5273  0.0046  2.0185
20139TIP3    H281909   0.706   3.477   4.132  0.4943  0.2159 -0.3239
20140TIP3   OH281910   6.080   5.877  13.062 -1.0680 -0.1044  0.7737
20140TIP3    H181911   6.091   5.831  13.145 -1.0580 -1.2638  0.1413
20140TIP3    H281912   6.065   5.969  13.088 -1.1497 -0.4533  2.0471
20141TIP3   OH281913   6.039   6.136  17.001  0.2711  0.0861  0.1707
20141TIP3    H181914   6.013   6.222  16.968 -1.6348 -0.7505 -0.6423
20141TIP3    H281915   6.133   6.133  16.986  0.1853  1.5425 -0.9527
20142TIP3   OH281916   3.897   5.356  14.787 -0.0329 -0.1985  0.3959
20142TIP3    H181917   3.907   5.445  14.754 -0.5712 -0.6821 -1.1874
20142TIP3    H281918   3.956   5.303  14.733  1.9519 -0.5538  2.7482
20143TIP3   OH281919   2.363   4.963   1.201 -0.2509 -0.5190  0.5710
20143TIP3    H181920   2.399   4.899   1.262 -0.2388 -1.6566 -0.5760
20143TIP3    H281921   2.401   4.939   1.116  2.0129  2.7231  0.4650
20144TIP3   OH281922   4.926   1.616  14.949 -0.5330  0.2805 -0.6310
20144TIP3    H181923   4.968   1.574  15.023 -0.5887  1.3000  0.0033
20144TIP3    H281924   4.904   1.545  14.890  1.4234 -0.3548 -0.6575
20145TIP3   OH281925   5.697   4.187  13.553 -0.3705 -0.1445 -0.3943
20145TIP3    H181926   5.683   4.270  13.507 -2.0964  0.5934  1.3447
20145TIP3    H281927   5.715   4.212  13.643 -2.3875 -1.6568  0.5026
20146TIP3   OH281928   4.863   1.315  14.365  0.4158  0.0646  0.4939
20146TIP3    H181929   4.902   1.329  14.279  2.1888 -1.5436  0.9675
20146TIP3    H281930   4.868   1.221  14.379 -0.8371  0.1605  1.9332
20147TIP3   OH281931   0.296   6.632   1.876 -0.1380  0.3867 -0.4900
20147TIP3    H181932   0.374   6.685   1.893  1.5821 -1.4969 -1.9892
20147TIP3    H281933   0.306   6.556   1.934 -1.7224  0.8729  0.4591
20148TIP3   OH281934   2.200   5.610  12.450 -0.4901 -0.2177  0.1088
20148TIP3    H181935   2.124   5.551  12.444  0.0023 -0.7931 -0.7037
20148TIP3    H281936   2.162   5.698  12.450 -1.1289 -0.4344 -1.7120
20149TIP3   OH281937   0.901   3.173  11.052 -0.5587 -0.3992  0.2654
20149TIP3    H181938   0.891   3.100  11.114 -0.8166 -0.5036  0.1030
20149TIP3    H281939   0.991   3.202  11.064 -0.6753 -0.2645  0.8579
20150TIP3   OH281940   4.151   6.347   0.940  0.4133 -0.1602  0.5857
20150TIP3    H181941   4.129   6.342   1.033  0.6243 -0.1181  0.6380
20150TIP3    H281942   4.152   6.441   0.921  0.0292 -0.1766  0.4565
20151TIP3   OH281943   4.316   4.721   5.483  0.2724  0.1907  0.3394
20151TIP3    H181944   4.391   4.662   5.493 -0.5885 -1.1995 -1.0115
20151TIP3    H281945   4.242   4.663   5.466 -0.5923  1.6663 -1.1672
20152TIP3   OH281946   6.006   3.731   4.605 -0.1870  0.2869  0.1730
20152TIP3    H181947   6.045   3.716   4.519 -0.6255  0.0781  0.0113
20152TIP3    H281948   6.081   3.742   4.663  0.1201  1.2086 -0.3691
20153TIP3   OH281949   1.186   6.189  14.367 -0.3963 -0.3583  0.0745
20153TIP3    H181950   1.253   6.243  14.408 -0.3909  0.8986 -1.4713
20153TIP3    H281951   1.219   6.173  14.278 -1.8225 -0.2982 -0.4893
20154TIP3   OH281952   0.652   4.658   5.112 -0.3510 -0.3766  0.1465
20154TIP3    H181953   0.626   4.749   5.099  3.2876  0.8641  0.4512
20154TIP3    H281954   0.630   4.640   5.204  0.1275  0.7167  0.4991
20155TIP3   OH281955   0.912   0.466  16.600 -0.2435 -0.4369 -0.7538
20155TIP3    H181956   0.999   0.495  16.629 -0.1986 -1.2935  0.0045
20155TIP3    H281957   0.851   0.529  16.638 -0.0773 -0.8190  0.1936
20156TIP3   OH281958   6.430   5.867   0.239  0.8180 -0.0816  0.6840
20156TIP3    H181959   6.498   5.835   0.179  0.3971 -1.4938  0.9241
20156TIP3    H281960   6.477   5.924   0.300  1.2916  1.2075 -0.8203
20157TIP3   OH281961   2.654   2.098   2.794  0.4094 -0.0008  0.3662
20157TIP3    H181962   2.660   2.002   2.793  1.1429  0.0249 -1.2337
20157TIP3    H281963   2.731   2.126   2.842  0.3996 -0.2164  0.5095
20158TIP3   OH281964   1.342   4.133   5.512  0.1637 -0.2850  0.3581
20158TIP3    H181965   1.396   4.183   5.452 -0.8535  0.2182 -0.1698
20158TIP3    H281966   1.299   4.199   5.566  0.7704 -0.7136  1.3958
20159TIP3   OH281967   5.494   0.857  12.042  0.0944 -0.3163  0.3264
20159TIP3    H181968   5.537   0.789  12.094 -0.4034 -2.6792 -2.1321
20159TIP3    H281969   5.566   0.905  12.001  0.4594 -0.9832  0.1724
20160TIP3   OH281970   6.269   4.949  14.488  0.2351 -0.2712 -0.1436
20160TIP3    H181971   6.189   4.968  14.536  1.2522  1.0152  1.1420
20160TIP3    H281972   6.270   5.015  14.418  0.9642  0.8707  0.8860
20161TIP3   OH281973   4.148   0.458  14.019 -0.0264  0.0485  0.4660
20161TIP3    H181974   4.088   0.478  13.947  0.2683 -0.5186  0.0584
20161TIP3    H281975   4.217   0.523  14.012 -0.7436  0.9173  1.1386
20162TIP3   OH281976   1.930   6.736   0.318  0.5244  0.3367 -0.1976
20162TIP3    H181977   2.003   6.690   0.276  0.0725 -1.8024  1.2507
20162TIP3    H281978   1.852   6.696   0.281  0.0789  1.1404 -0.1555
20163TIP3   OH281979   6.782   6.481   0.992 -0.1248 -0.1575  0.0636
20163TIP3    H181980   6.705   6.535   1.008  0.2664  0.1451  1.0054
20163TIP3    H281981   6.789   6.477   0.896 -0.3213  1.2431 -0.0387
20164TIP3   OH281982   5.895   1.941  14.779  0.5786 -0.2879  0.4309
20164TIP3    H181983   5.838   1.910  14.708 -0.9589  0.3331  1.3455
20164TIP3    H281984   5.923   1.861  14.824 -1.0356 -0.5552  1.0359
20165TIP3   OH281985   5.123   4.279   3.719 -0.3380  0.8189 -0.0192
20165TIP3    H181986   5.182   4.209   3.689  0.3372  0.7591  1.3558
20165TIP3    H281987   5.100   4.327   3.639 -1.1924 -1.2189 -1.0809
20166TIP3   OH281988   6.420   2.241   2.322 -0.0803 -0.4755 -0.2872
20166TIP3    H181989   6.416   2.147   2.340  0.5119 -0.4486  0.0294
20166TIP3    H281990   6.335   2.275   2.350  0.6194 -0.4989  2.1228
20167TIP3   OH281991   2.142   5.576   5.034 -0.1920 -0.4063 -0.7338
20167TIP3    H181992   2.210   5.557   5.099 -0.5244  0.7631 -0.0142
20167TIP3    H281993   2.101   5.657   5.065 -0.5470  0.0273 -2.2512
20168TIP3   OH281994   4.922   3.748  14.412 -0.2085  0.1087  0.1803
20168TIP3    H181995   4.945   3.656  14.425 -0.3893  0.1678  0.9875
20168TIP3    H281996   4.981   3.796  14.471 -0.5670  0.4543  0.2641
20169TIP3   OH281997   1.948   0.164   5.841  0.5867 -0.2164  0.1671
20169TIP3    H181998   1.940   0.232   5.908  2.8518  1.0607 -0.7483
20169TIP3    H281999   2.011   0.102   5.877  0.7013 -0.2964 -0.1676
20170TIP3   OH282000   4.627   5.049  12.672 -0.7214  0.6632  0.4253
20170TIP3    H182001   4.582   5.035  12.755  0.0401 -0.8511  0.6085
20170TIP3    H282002   4.640   5.144  12.668 -0.4616  0.7359  2.1978
20171TIP3   OH282003   0.338   0.678   1.746 -0.6856  0.5319  0.1070
20171TIP3    H182004   0.270   0.720   1.799  0.4966  1.3504  1.0078
20171TIP3    H282005   0.354   0.739   1.675 -1.1258  0.1796 -0.2992
20172TIP3   OH282006   6.061   6.099  13.253 -0.0539  0.1622  0.2200
20172TIP3    H182007   6.050   6.058  13.338 -1.9756 -0.2080 -0.1773
20172TIP3    H282008   6.041   6.192  13.267  0.0019  0.1734  0.2273
20173TIP3   OH282009   1.419   1.614   2.880  0.3908 -0.2329 -0.1058
20173TIP3    H182010   1.411   1.657   2.966 -0.3308 -1.5247  0.4947
20173TIP3    H282011   1.342   1.642   2.832  0.2450 -0.3481  0.0581
20174TIP3   OH282012   6.632   5.023   2.130  0.0611  0.0086 -0.3224
20174TIP3    H182013   6.675   5.085   2.190  1.8744 -0.3757 -1.1611
20174TIP3    H282014   6.651   4.937   2.168 -0.0165 -0.1710 -0.6934
20175TIP3   OH282015   5.725   3.869  16.667 -0.0875 -0.0100  0.0793
20175TIP3    H182016   5.704   3.902  16.754  1.6794  0.2932  0.4296
20175TIP3    H282017   5.800   3.812  16.680  1.0307  1.0453 -1.3861
20176TIP3   OH282018   2.602   0.416   3.906  0.0371 -0.2075  0.2686
20176TIP3    H182019   2.653   0.359   3.964 -1.0282 -1.9974 -0.4708
20176TIP3    H282020   2.619   0.382   3.819 -2.4906 -0.9746  0.0104
20177TIP3   OH282021   2.531   1.198  14.211 -0.1677  0.3270 -0.4186
20177TIP3    H182022   2.455   1.250  14.184 -0.7150 -1.1261 -1.8314
20177TIP3    H282023   2.510   1.108  14.186  0.9128 -0.5630  1.6077
20178TIP3   OH282024   2.443   4.188  13.252 -0.7131  0.1586  0.1567
20178TIP3    H182025   2.510   4.123  13.274  0.0219  1.1531  0.9584
20178TIP3    H282026   2.421   4.171  13.161 -0.0000 -0.7441  0.1439
20179TIP3   OH282027   0.755   3.577  16.025 -0.0965 -0.5169 -0.3240
20179TIP3    H182028   0.806   3.605  16.101 -0.3202  1.2643 -0.7919
20179TIP3    H282029   0.689   3.518  16.061  0.7844 -0.9545  0.6237
20180TIP3   OH282030   3.033   5.095   1.525  0.2927 -0.3940  0.6053
20180TIP3    H182031   3.052   5.035   1.597  0.2113 -0.4035  0.6195
20180TIP3    H282032   2.977   5.162   1.563 -1.4341 -1.4848  0.1091
20181TIP3   OH282033   0.376   6.440   2.281 -0.1816 -0.2948 -0.2217
20181TIP3    H182034   0.444   6.393   2.329  1.7973  0.6239 -1.9652
20181TIP3    H282035   0.347   6.508   2.342  3.2257  1.7192 -0.5621
20182TIP3   OH282036   6.044   6.201   2.921 -0.5301  0.1757 -0.2222
20182TIP3    H182037   6.047   6.110   2.949 -0.4577  0.4858  0.8100
20182TIP3    H282038   6.114   6.208   2.856  0.0789 -0.2895  0.3677
20183TIP3   OH282039   4.171   5.853  15.809  0.0470 -0.6330 -0.5916
20183TIP3    H182040   4.228   5.879  15.737  0.6460  2.0512  0.7109
20183TIP3    H282041   4.221   5.788  15.857  0.3383 -1.2107 -1.6569
20184TIP3   OH282042   5.905   1.100  12.130 -0.3230 -0.2123  0.2739
20184TIP3    H182043   5.857   1.036  12.183 -2.6703 -0.3693 -1.8561
20184TIP3    H282044   5.943   1.160  12.193 -1.6689 -1.2741  2.1836
20185TIP3   OH282045   3.167   1.806  11.757 -0.0653  0.1098  0.4211
20185TIP3    H182046   3.139   1.834  11.670  1.2393 -0.8482 -0.3440
20185TIP3    H282047   3.085   1.797  11.807 -0.7278  2.3269 -0.1512
20186TIP3   OH282048   2.801   3.048   5.416 -0.3333  0.4162 -0.0607
20186TIP3    H182049   2.866   3.090   5.359 -0.5817  0.8938  0.0037
20186TIP3    H282050   2.727   3.028   5.358 -0.3945  0.4724 -0.0025
20187TIP3   OH282051   2.445   5.061  12.777 -0.1578  0.0871  0.4115
20187TIP3    H182052   2.388   5.107  12.839  0.4601  2.3129 -0.5528
20187TIP3    H282053   2.514   5.124  12.758  2.0495 -2.0995  0.6774
20188TIP3   OH282054   3.583   1.195   2.016 -0.1068  0.1854 -0.1825
20188TIP3    H182055   3.626   1.216   1.932 -3.7133  1.3793 -1.9599
20188TIP3    H282056   3.552   1.280   2.048 -0.2936 -0.4861  1.5030
20189TIP3   OH282057   3.731   5.198  13.749 -0.3013  0.6137 -0.2225
20189TIP3    H182058   3.766   5.227  13.833 -0.4601 -0.7526  0.3471
20189TIP3    H282059   3.799   5.141  13.712 -0.2635  1.1442 -0.9963
20190TIP3   OH282060   0.671   4.289  13.150 -0.8764  0.1893  0.1646
20190TIP3    H182061   0.649   4.200  13.124 -0.1105  0.4581 -1.5701
20190TIP3    H282062   0.599   4.342  13.117 -0.3158  0.4356 -0.7030
20191TIP3   OH282063   1.733   4.451  16.472 -0.2902  0.0967  0.2405
20191TIP3    H182064   1.675   4.524  16.491 -0.3265  0.3943 -0.9342
20191TIP3    H282065   1.677   4.387  16.428  0.2711  0.4341 -1.0014
20192TIP3   OH282066   0.308   5.662   0.414  0.4587  0.3605  0.1479
20192TIP3    H182067   0.286   5.704   0.331 -0.1433  2.1369  1.1569
20192TIP3    H282068   0.253   5.584   0.417 -0.2295  0.8023 -0.6974
20193TIP3   OH282069   6.598   4.898   3.134 -0.5099  0.0119 -0.3757
20193TIP3    H182070   6.576   4.939   3.217 -0.9754  0.7975 -0.8766
20193TIP3    H282071   6.680   4.851   3.152  0.4126  1.6832  0.0618
20194TIP3   OH282072   1.374   5.311  11.711  0.2153  0.2411  0.3259
20194TIP3    H182073   1.427   5.379  11.669  0.7898  0.5571  1.5085
20194TIP3    H282074   1.352   5.250  11.640 -0.2946  1.6285 -0.7540
20195TIP3   OH282075   5.323   3.096  15.082  0.8844 -0.3287 -0.6464
20195TIP3    H182076   5.323   3.060  14.994 -0.1771 -0.2288 -0.7047
20195TIP3    H282077   5.280   3.029  15.135  0.3529  0.1437 -0.4593
20196TIP3   OH282078   5.250   5.562  15.433 -0.5092  0.2780  0.6558
20196TIP3    H182079   5.268   5.580  15.341  0.3357 -0.6828  0.6151
20196TIP3    H282080   5.261   5.646  15.477 -0.6411  0.6832 -0.0720
20197TIP3   OH282081   5.108   0.157  11.888 -0.8792 -0.2472  0.3409
20197TIP3    H182082   5.076   0.237  11.931 -2.7873 -0.4607 -0.5823
20197TIP3    H282083   5.147   0.188  11.806 -0.0725 -0.1314  0.7574
20198TIP3   OH282084   2.472   6.538   5.494  0.5390  0.5433  0.3214
20198TIP3    H182085   2.555   6.575   5.465  1.6326 -1.7251  0.3186
20198TIP3    H282086   2.464   6.565   5.586  1.7071  0.1271  0.5604
20199TIP3   OH282087   6.755   1.346   0.655  0.1390  0.0363  0.1108
20199TIP3    H182088   6.825   1.347   0.590 -1.0487  1.4538 -1.2370
20199TIP3    H282089   6.678   1.317   0.606 -0.3601 -0.9115  1.4107
20200TIP3   OH282090   1.689   2.851   5.193  0.0493  0.2759  0.6268
20200TIP3    H182091   1.658   2.891   5.274  1.8607  0.7805  1.1217
20200TIP3    H282092   1.741   2.920   5.151  1.6540 -0.9153  0.5596
20201TIP3   OH282093   4.889   4.528  16.052  0.2053  0.3322  0.1643
20201TIP3    H182094   4.846   4.578  15.982 -1.6272 -1.1834  0.1134
20201TIP3    H282095   4.932   4.594  16.106 -0.5403  1.7681 -0.9185
20202TIP3   OH282096   3.649   0.781   3.044 -0.8334 -0.4755  0.2771
20202TIP3    H182097   3.718   0.843   3.021  1.5765 -3.4432 -1.3096
20202TIP3    H282098   3.568   0.832   3.040  1.0875  2.9233  1.0319
20203TIP3   OH282099   6.478   5.521   2.874  0.6527  0.0646  0.6314
20203TIP3    H182100   6.446   5.501   2.962 -0.8620 -0.7584 -0.0599
20203TIP3    H282101   6.557   5.468   2.864  0.9198  0.2832  1.5434
20204TIP3   OH282102   1.988   1.063   0.376 -0.3297 -0.1508 -0.2498
20204TIP3    H182103   1.914   1.002   0.370 -0.9697  0.4551  0.9759
20204TIP3    H282104   2.028   1.042   0.461  0.7460 -0.2824 -0.7823
20205TIP3   OH282105   0.530   6.481  12.295 -0.4383 -0.2171  0.1881
20205TIP3    H182106   0.563   6.561  12.336 -1.3758  0.0790  0.3962
20205TIP3    H282107   0.608   6.430  12.275  0.1534  0.5850  0.3950
20206TIP3   OH282108   0.778   6.089  11.683 -0.2972  0.2278 -0.1075
20206TIP3    H182109   0.830   6.136  11.748  1.0280 -2.0091  0.5775
20206TIP3    H282110   0.799   6.132  11.600  1.0821  0.6969  0.4461
20207TIP3   OH282111   4.778   3.758  13.447  0.2731  0.7714  0.7190
20207TIP3    H182112   4.824   3.677  13.427  2.2190  2.1229 -0.6614
20207TIP3    H282113   4.789   3.812  13.369 -0.7007  2.4746  1.6940
20208TIP3   OH282114   4.598   5.742  15.416  0.4288 -0.5953 -0.7994
20208TIP3    H182115   4.607   5.740  15.321 -0.0829  0.5760 -0.8865
20208TIP3    H282116   4.687   5.731  15.449  1.3943  3.3621 -1.5226
20209TIP3   OH282117   0.077   0.276  15.683 -0.3897  0.1080  0.5348
20209TIP3    H182118   0.085   0.304  15.592 -0.7116 -1.4266 -0.0009
20209TIP3    H282119   0.128   0.340  15.733 -2.1148  2.3634 -0.4241
20210TIP3   OH282120   3.288   1.507   4.086  0.2364 -0.1616 -0.1862
20210TIP3    H182121   3.291   1.541   4.175 -2.0395  0.7866 -0.4060
20210TIP3    H282122   3.335   1.573   4.034 -1.2892  1.0344 -0.1222
20211TIP3   OH282123   1.084   1.431   2.810 -0.1850  0.2908 -0.7422
20211TIP3    H182124   0.990   1.412   2.817  0.2669 -1.8297  0.3586
20211TIP3    H282125   1.093   1.519   2.845 -1.6986  0.2837 -0.2487
20212TIP3   OH282126   4.810   1.137   1.475  0.3137  0.5406 -0.0655
20212TIP3    H182127   4.902   1.152   1.456  0.6537 -0.4086  0.7674
20212TIP3    H282128   4.776   1.224   1.498 -0.0930  1.8299 -4.4449
20213TIP3   OH282129   5.267   0.728   3.575 -0.3769 -0.3264  0.0207
20213TIP3    H182130   5.191   0.727   3.517 -1.3477  1.0669  1.2024
20213TIP3    H282131   5.342   0.710   3.517 -1.4527 -0.4664 -1.3780
20214TIP3   OH282132   3.167   2.027  16.459  0.3794  0.2361 -0.0023
20214TIP3    H182133   3.098   2.086  16.488 -0.9734 -0.5907 -1.4111
20214TIP3    H282134   3.176   2.045  16.366  3.3686  1.5771  0.4214
20215TIP3   OH282135   4.392   1.983   2.410 -0.1831  0.5462  0.3567
20215TIP3    H182136   4.384   1.940   2.495 -2.0562  1.9468  0.9621
20215TIP3    H282137   4.383   1.912   2.346 -1.2115 -0.2510  1.3340
20216TIP3   OH282138   5.726   2.364   5.750  0.3919  0.1460  0.4094
20216TIP3    H182139   5.748   2.295   5.813  0.1604  0.2278  0.5815
20216TIP3    H282140   5.711   2.442   5.804  0.6195  0.3221  0.2183
20217TIP3   OH282141   0.308   0.572   0.315 -0.6129  0.3975 -0.3476
20217TIP3    H182142   0.348   0.659   0.307 -0.4119  0.2574 -0.9100
20217TIP3    H282143   0.226   0.588   0.361 -0.9447  1.0046 -1.1149
20218TIP3   OH282144   1.194   6.142   5.095 -0.1761  0.0611  0.1373
20218TIP3    H182145   1.247   6.217   5.123 -1.4479  0.0458  2.9678
20218TIP3    H282146   1.253   6.068   5.102  1.1052  0.6686 -2.7140
20219TIP3   OH282147   3.128   4.599   6.238 -0.7170  0.2087  0.1533
20219TIP3    H182148   3.220   4.610   6.214 -0.6253  0.2799  0.5415
20219TIP3    H282149   3.125   4.612   6.333 -1.0436 -0.2926  0.2211
20220TIP3   OH282150   0.965   4.143   1.061 -0.2330 -0.0572 -0.2292
20220TIP3    H182151   1.052   4.168   1.093 -0.0497 -2.0009  0.9550
20220TIP3    H282152   0.905   4.173   1.129 -0.5595  1.5931 -1.2111
20221TIP3   OH282153   4.089   0.524   2.314  0.6375  0.0729  0.3964
20221TIP3    H182154   4.040   0.522   2.396  0.3878 -1.0600  0.2346
20221TIP3    H282155   4.134   0.609   2.315 -1.0525  1.0201  0.7012
20222TIP3   OH282156   6.803   0.009  12.029  0.1240  0.2101 -0.2575
20222TIP3    H182157   6.787  -0.037  11.946  2.0564  0.2494 -0.7035
20222TIP3    H282158   6.755   0.091  12.021 -0.3528 -0.1272 -0.9945
20223TIP3   OH282159   6.777   6.507   1.956  0.2894  0.0590 -0.4571
20223TIP3    H182160   6.743   6.426   1.995 -1.2370  0.5440 -0.7261
20223TIP3    H282161   6.829   6.547   2.026  2.0836 -1.7044 -0.6918
20224TIP3   OH282162   1.575   3.931   3.373 -0.1583 -0.0454 -0.1588
20224TIP3    H182163   1.572   3.880   3.455 -0.1899 -0.9034 -0.6829
20224TIP3    H282164   1.668   3.943   3.356 -0.1425 -0.2974 -0.2554
20225TIP3   OH282165   5.787   5.888   6.343 -0.3012  0.1275  0.3763
20225TIP3    H182166   5.774   5.869   6.436  0.9485 -0.0401  0.5446
20225TIP3    H282167   5.701   5.914   6.311 -0.8311 -0.1835  1.4925
20226TIP3   OH282168   3.677   1.878  15.318 -0.3500 -0.2900  0.5693
20226TIP3    H182169   3.676   1.809  15.384 -0.1557  0.2770  1.1656
20226TIP3    H282170   3.627   1.950  15.357  0.5775  0.4082  0.4882
20227TIP3   OH282171   0.494   0.207  11.389  0.5079 -0.2691  0.0117
20227TIP3    H182172   0.492   0.302  11.400  1.7715 -0.1158 -0.8422
20227TIP3    H282173   0.419   0.175  11.438 -0.9733  1.3203 -1.1204
20228TIP3   OH282174   0.055   2.851  15.482  0.2943 -0.3670  0.3720
20228TIP3    H182175  -0.034   2.884  15.484 -0.0234 -0.7982 -2.3342
20228TIP3    H282176   0.089   2.865  15.570 -2.4038 -0.1347  1.4390
20229TIP3   OH282177   6.233   0.620  11.496 -0.4005  0.0140 -0.9450
20229TIP3    H182178   6.218   0.707  11.533 -0.9645 -0.8908  1.1295
20229TIP3    H282179   6.146   0.590  11.468 -0.3081 -0.0990 -1.1142
20230TIP3   OH282180   5.565   3.626   5.794 -0.0210  0.3341 -0.4269
20230TIP3    H182181   5.513   3.615   5.874  0.5997 -1.5444 -0.2457
20230TIP3    H282182   5.654   3.644   5.825  0.3347 -0.9301 -0.6502
20231TIP3   OH282183   1.713   0.690   3.131 -0.1207 -0.3725  0.8979
20231TIP3    H182184   1.625   0.695   3.092  0.1808  1.8281  0.3889
20231TIP3    H282185   1.700   0.641   3.212 -1.1753 -3.1126 -0.7448
20232TIP3   OH282186   6.221   2.408  12.118  0.3724 -0.4449 -0.0558
20232TIP3    H182187   6.243   2.359  12.039 -1.8205 -0.1532 -0.9108
20232TIP3    H282188   6.217   2.342  12.187  2.2377 -0.7144 -0.1522
20233TIP3   OH282189   2.469   0.152  13.975  0.3790  0.0917  0.1940
20233TIP3    H182190   2.542   0.189  14.024  0.6254  2.4229 -1.7429
20233TIP3    H282191   2.414   0.227  13.952  0.7613 -0.5964 -3.7479
20234TIP3   OH282192   2.365   2.751   2.959  0.6260 -0.5873 -0.1101
20234TIP3    H182193   2.355   2.796   2.875  1.6288  1.0591  0.6005
20234TIP3    H282194   2.434   2.686   2.943  3.3086  1.9791  0.1902
20235TIP3   OH282195   5.840   1.214  14.476  0.0060 -0.2178  0.3601
20235TIP3    H182196   5.799   1.284  14.425 -1.6377 -0.2333  1.5777
20235TIP3    H282197   5.864   1.147  14.411 -0.8297  0.3219 -0.5175
20236TIP3   OH282198   3.868   5.718   1.791  0.2674  0.5679 -0.0769
20236TIP3    H182199   3.803   5.769   1.838  1.1157  1.1512  0.4963
20236TIP3    H282200   3.869   5.755   1.703  0.1070  0.8138  0.0245
20237TIP3   OH282201   2.862   1.053   1.496  0.5615  0.8523  0.5613
20237TIP3    H182202   2.947   1.009   1.494 -0.9706 -2.3800  0.3074
20237TIP3    H282203   2.855   1.084   1.586  1.9690  1.1191  0.6096
20238TIP3   OH282204   2.378   4.968  14.024 -0.2915  0.0123 -0.9043
20238TIP3    H182205   2.330   5.016  13.957 -1.6654 -0.3892 -0.2535
20238TIP3    H282206   2.399   5.033  14.091 -2.5482 -0.2892  0.1934
20239TIP3   OH282207   5.685   2.685  15.844  0.9110 -0.7653 -0.1368
20239TIP3    H182208   5.763   2.712  15.795  0.5248 -0.0997 -0.4044
20239TIP3    H282209   5.635   2.632  15.782 -0.8226  2.1486 -1.4225
20240TIP3   OH282210   3.731   0.354   1.769 -0.7945  0.0654  0.7881
20240TIP3    H182211   3.713   0.424   1.705  2.5889  0.2269 -0.2150
20240TIP3    H282212   3.705   0.391   1.853  0.1831  2.3058  0.1836
20241TIP3   OH282213   6.853   0.000  13.820  0.0062 -0.0573 -0.7081
20241TIP3    H182214   6.757  -0.002  13.823 -0.0036  0.5855 -0.3414
20241TIP3    H282215   6.877  -0.070  13.760 -0.7281  0.2038 -1.3241
20242TIP3   OH282216   0.570   6.153  16.384 -0.3706 -0.4225 -0.1559
20242TIP3    H182217   0.500   6.175  16.323  0.7329 -1.0579 -1.6955
20242TIP3    H282218   0.651   6.171  16.336  0.5717 -3.3632  0.1255
20243TIP3   OH282219   4.479   0.916  16.981 -0.2809  0.1687 -0.2584
20243TIP3    H182220   4.499   0.962  17.063 -1.2762  0.6607 -0.2860
20243TIP3    H282221   4.419   0.974  16.935  0.8944  0.2690 -1.7239
20244TIP3   OH282222   2.504   5.560  12.148 -0.1300 -0.4511 -0.2819
20244TIP3    H182223   2.434   5.624  12.166 -0.3267 -0.5527 -0.6823
20244TIP3    H282224   2.533   5.533  12.235 -0.4490 -0.2544 -0.1077
20245TIP3   OH282225   3.132   1.160   0.985  0.0637  0.1692 -0.2170
20245TIP3    H182226   3.057   1.102   0.998  1.2832 -1.5771 -0.5649
20245TIP3    H282227   3.146   1.161   0.890  0.5379  0.4033 -0.1479
20246TIP3   OH282228   4.636   0.235   5.564  0.7772  0.2641  0.3736
20246TIP3    H182229   4.609   0.226   5.655  0.3912 -1.1725  0.1457
20246TIP3    H282230   4.731   0.222   5.565  0.5068 -2.1648  0.3375
20247LIG      O82231   5.126   1.600  16.344  0.3475  0.5217  0.1328
20247LIG      N82232   5.053   1.680  16.770  0.7968  0.9198 -0.3509
20247LIG     C182233   4.911   1.503  16.312 -0.1792 -0.0449  0.0660
20247LIG     C282234   4.990   1.619  16.381  0.4206  0.1063 -0.1316
20247LIG     C382235   4.896   1.515  16.159  0.5174 -0.7939 -0.5024
20247LIG     C482236   4.967   1.361  16.343  0.7461  0.6381 -0.0856
20247LIG     C582237   4.984   1.598  16.533  0.1296  0.4061 -0.1104
20247LIG     C682238   4.819   1.398  16.104  0.4202  0.1843  0.3485
20247LIG     C782239   4.887   1.244  16.281 -0.7026  0.2369  0.1780
20247LIG     C882240   4.871   1.258  16.134 -0.4893 -0.0989  0.4607
20247LIG     C982241   5.072   1.696  16.616 -0.7268  0.7807  0.0889
20247LIG    C1082242   4.938   1.770  16.336  0.3096 -0.1128  0.2164
20247LIG    C1182243   5.142   1.758  16.852 -0.7702 -0.2225 -0.1039
20247LIG    C1282244   4.917   1.674  16.819 -0.3781 -0.2996 -0.7247
20247LIG    C1382245   5.088   1.904  16.858  0.5902  0.1903  0.0009
20247LIG    C1482246   4.857   1.817  16.812 -0.4035 -0.2631  0.1495
20247LIG    C1582247   4.942   1.918  16.900  0.3419  0.1723  0.6160
20247LIG    C1682248   5.006   1.866  16.264  0.8792  0.5412 -0.8996
20247LIG    C1782249   4.815   1.808  16.394  0.1507 -0.1637 -0.3537
20247LIG    C1882250   4.946   1.979  16.223 -0.2809 -0.2973 -0.8693
20247LIG    C1982251   4.759   1.931  16.353 -0.0927 -0.5730 -0.1078
20247LIG    C2082252   4.818   2.016  16.265 -0.0107  0.2341  0.0749
20247LIG     H182253   4.806   1.507  16.348 -0.7063  1.5502 -1.5086
20247LIG     H282254   4.998   1.519  16.115  0.1016  0.7027 -1.3783
20247LIG     H382255   4.841   1.606  16.127 -2.3982 -1.9970  0.7328
20247LIG     H482256   4.963   1.345  16.453 -2.3037 -1.0268 -0.3447
20247LIG     H582257   5.073   1.353  16.311  1.3173  0.7246  1.7158
20247LIG     H682258   5.019   1.500  16.570  0.8972  0.9650  0.6815
20247LIG     H782259   4.877   1.608  16.563  0.0798  1.3672 -0.5709
20247LIG     H882260   4.800   1.419  15.996  1.3485  3.4380  0.7010
20247LIG     H982261   4.715   1.404  16.145  0.8264 -1.5819  1.7548
20247LIG    H1082262   4.786   1.216  16.316 -1.1747  0.2123 -1.1381
20247LIG    H1182263   4.954   1.156  16.288  0.8504  1.4659  1.5243
20247LIG    H1282264   4.971   1.247  16.088 -1.1993 -2.5239 -0.6624
20247LIG    H1382265   4.801   1.178  16.104 -2.0466  1.2167  0.4058
20247LIG    H1482266   5.175   1.664  16.590 -0.4582 -0.0302  1.9784
20247LIG    H1582267   5.048   1.798  16.579  0.3160  1.2595  0.6891
20247LIG    H1682268   5.237   1.758  16.795 -1.4937  0.8639 -1.3433
20247LIG    H1782269   5.167   1.718  16.953 -1.8264  1.2478  0.7800
20247LIG    H1882270   4.924   1.653  16.928  2.9489  0.9360 -0.5669
20247LIG    H1982271   4.844   1.607  16.769 -0.3925 -1.2816  0.5709
20247LIG    H2082272   5.124   1.602  16.248  3.3108 -4.1997 -0.3651
20247LIG    H2182273   5.095   1.932  16.751  1.2589  1.8756  0.4495
20247LIG    H2282274   5.137   1.992  16.904 -3.6855  2.2091  1.2322
20247LIG    H2382275   4.750   1.810  16.843 -0.3394 -1.4213  0.1339
20247LIG    H2482276   4.853   1.841  16.704  1.0427 -0.4214  0.0436
20247LIG    H2582277   4.907   2.024  16.897 -0.9774 -0.2567  0.2497
20247LIG    H2682278   4.941   1.892  17.008  0.5209 -0.4821  0.4616
20247LIG    H2782279   5.098   1.834  16.217 -0.0827 -1.5382 -1.4728
20247LIG    H2882280   4.754   1.742  16.455  0.3455 -0.7674 -0.8009
20247LIG    H2982281   4.998   2.052  16.161  0.9023  0.2898  0.7353
20247LIG    H3082282   4.662   1.960  16.390 -0.3577  2.3284 -2.6684
20247LIG    H3182283   4.773   2.111  16.241  3.0236  1.3610 -1.8439
   6.85534   6.85534  17.10737
